/*--------------------------------*- C++ -*----------------------------------*\
| =========                 |                                                 |
| \\      /  F ield         | OpenFOAM: The Open Source CFD Toolbox           |
|  \\    /   O peration     | Version:  5.x                                   |
|   \\  /    A nd           | Web:      www.OpenFOAM.org                      |
|    \\/     M anipulation  |                                                 |
\*---------------------------------------------------------------------------*/
/*   Windows 32 and 64 bit porting by blueCAPE: http://www.bluecape.com.pt   *\
|  Based on Windows porting (2.0.x v4) by Symscape: http://www.symscape.com   |
\*---------------------------------------------------------------------------*/
FoamFile
{
    version     2.0;
    format      ascii;
    class       volScalarField;
    location    "340";
    object      epsilon;
}
// * * * * * * * * * * * * * * * * * * * * * * * * * * * * * * * * * * * * * //

dimensions      [0 2 -3 0 0 0 0];

internalField   nonuniform List<scalar> 
43900
(
0.00152925
0.00151909
0.00151979
0.00151971
0.00151968
0.00151966
0.00151967
0.00151967
0.00151967
0.00151967
0.00151967
0.00151968
0.00151968
0.00151968
0.00151968
0.00151969
0.00151968
0.00151968
0.00151969
0.00151969
0.00151969
0.00151969
0.00151969
0.00151969
0.00151969
0.00151969
0.00151969
0.00151969
0.00151969
0.000414009
3.81924e-005
3.16661e-005
3.15207e-005
3.27295e-005
3.2793e-005
3.28053e-005
3.27906e-005
3.27911e-005
3.27957e-005
3.2796e-005
3.28016e-005
3.28043e-005
3.28035e-005
3.28075e-005
3.28093e-005
3.28055e-005
3.28069e-005
3.28107e-005
3.28111e-005
3.28131e-005
3.28134e-005
3.28138e-005
3.2814e-005
3.28111e-005
3.28119e-005
3.28165e-005
3.28187e-005
3.28184e-005
0.0508423
0.00575386
0.000289832
1.14976e-005
1.71218e-006
1.32782e-006
1.32678e-006
1.40977e-006
1.4188e-006
1.41761e-006
1.41654e-006
1.41689e-006
1.41755e-006
1.41796e-006
1.41832e-006
1.41842e-006
1.41859e-006
1.41908e-006
1.41924e-006
1.41932e-006
1.41952e-006
1.4196e-006
1.41982e-006
1.42003e-006
1.42017e-006
1.42044e-006
1.42059e-006
1.42042e-006
1.42047e-006
0.146448
0.0437456
0.00966828
0.0013193
8.3617e-005
3.41998e-006
3.42514e-007
1.22575e-007
1.0835e-007
1.15569e-007
1.19858e-007
1.20187e-007
1.19619e-007
1.19493e-007
1.19619e-007
1.19662e-007
1.19671e-007
1.19719e-007
1.19754e-007
1.19783e-007
1.198e-007
1.19821e-007
1.19869e-007
1.19891e-007
1.19899e-007
1.19918e-007
1.19924e-007
1.19942e-007
1.19984e-007
0.197742
0.0845305
0.0338761
0.01126
0.00265149
0.000357742
2.25062e-005
9.67001e-007
8.43799e-008
2.22582e-008
1.64931e-008
1.71029e-008
1.84147e-008
1.8622e-008
1.84396e-008
1.84145e-008
1.84817e-008
1.84892e-008
1.8473e-008
1.84789e-008
1.84831e-008
1.84858e-008
1.8492e-008
1.84953e-008
1.84978e-008
1.85035e-008
1.85076e-008
1.85137e-008
1.85154e-008
0.222692
0.109111
0.053298
0.0251071
0.0105061
0.00332244
0.000707521
7.74807e-005
4.29151e-006
2.03497e-007
1.92004e-008
5.5558e-009
4.10152e-009
4.42786e-009
4.72756e-009
4.71245e-009
4.63323e-009
4.64578e-009
4.67384e-009
4.66873e-009
4.66851e-009
4.67226e-009
4.67373e-009
4.67467e-009
4.67702e-009
4.67859e-009
4.67871e-009
4.67931e-009
4.68022e-009
0.234135
0.123611
0.0660944
0.0352901
0.0183646
0.00890829
0.00355837
0.000973513
0.000153016
1.17214e-005
6.07176e-007
3.34516e-008
4.3935e-009
1.74081e-009
1.52207e-009
1.66808e-009
1.7508e-009
1.71435e-009
1.6968e-009
1.7087e-009
1.70914e-009
1.7062e-009
1.70651e-009
1.70686e-009
1.70649e-009
1.70685e-009
1.70751e-009
1.70799e-009
1.70842e-009
0.237355
0.131289
0.0739579
0.0420847
0.0238915
0.0132687
0.00695292
0.00317304
0.00103807
0.000216176
2.27365e-005
1.39573e-006
7.7965e-008
5.53223e-009
1.23252e-009
7.33428e-010
7.52649e-010
8.16191e-010
8.12999e-010
7.96383e-010
7.99754e-010
8.05096e-010
8.05207e-010
8.05812e-010
8.0651e-010
8.0594e-010
8.05581e-010
8.06139e-010
8.06688e-010
0.236444
0.135265
0.0789955
0.0468355
0.0279693
0.0166406
0.00969927
0.00538208
0.0026869
0.0010234
0.000248213
3.19328e-005
2.29763e-006
1.40302e-007
9.21577e-009
1.12044e-009
4.80148e-010
4.02451e-010
4.46062e-010
4.62752e-010
4.52554e-010
4.50403e-010
4.52034e-010
4.51997e-010
4.525e-010
4.53725e-010
4.53867e-010
4.53373e-010
4.53239e-010
0.232156
0.135919
0.0814299
0.0496809
0.0306926
0.0190619
0.0117826
0.00714026
0.00413654
0.00217943
0.000920144
0.000246214
3.6187e-005
2.97401e-006
2.0062e-007
1.38385e-008
1.28474e-009
3.92027e-010
2.64063e-010
2.76539e-010
2.9332e-010
2.88789e-010
2.857e-010
2.8687e-010
2.86922e-010
2.86612e-010
2.87005e-010
2.87935e-010
2.88017e-010
0.225053
0.134198
0.0818367
0.0509329
0.0321991
0.0205677
0.0131842
0.00840091
0.00524613
0.00313589
0.00171572
0.000773657
0.000220113
3.52001e-005
3.21503e-006
2.39626e-007
1.79051e-008
1.57916e-009
3.26198e-010
1.95815e-010
1.88769e-010
2.02225e-010
2.01812e-010
1.98528e-010
1.98789e-010
1.98855e-010
1.98536e-010
1.98646e-010
1.99068e-010
0.217063
0.131384
0.0813833
0.0514586
0.0331051
0.0215773
0.014177
0.00932833
0.00609081
0.00389261
0.00238079
0.00133632
0.000625884
0.000184635
3.13733e-005
3.12918e-006
2.56613e-007
2.09296e-008
1.88504e-009
3.07433e-010
1.60055e-010
1.34543e-010
1.45518e-010
1.49937e-010
1.47998e-010
1.47631e-010
1.47687e-010
1.47408e-010
1.46972e-010
0.208152
0.127642
0.0801116
0.0513281
0.0334997
0.0221898
0.0148572
0.0100057
0.00673386
0.00448809
0.00292262
0.00181894
0.00103874
0.000496199
0.000148672
2.62037e-005
2.82381e-006
2.55432e-007
2.29259e-008
2.19598e-009
3.17861e-010
1.37906e-010
1.06704e-010
1.1113e-010
1.15821e-010
1.14732e-010
1.14574e-010
1.15e-010
1.14911e-010
0.198484
0.1231
0.0781463
0.0506827
0.033469
0.0224717
0.015279
0.0104788
0.00721333
0.00495162
0.00335901
0.00222158
0.00140128
0.000809146
0.00038948
0.000116536
2.08299e-005
2.40143e-006
2.39252e-007
2.36412e-008
2.44454e-009
3.39119e-010
1.19953e-010
8.84863e-011
8.81296e-011
9.2292e-011
9.22742e-011
9.19026e-011
9.21747e-011
0.18831
0.117963
0.0756472
0.0495743
0.0331207
0.022481
0.0154859
0.010781
0.00755534
0.00530339
0.00370422
0.00255093
0.00170844
0.00108795
0.000631521
0.00030312
8.94149e-005
1.59912e-005
1.96182e-006
2.14552e-007
2.32992e-008
2.61723e-009
3.63476e-010
1.10059e-010
7.72915e-011
7.01048e-011
7.40802e-011
7.54284e-011
7.51134e-011
0.177826
0.112421
0.0727534
0.0481304
0.0324734
0.0222939
0.0155222
0.0109459
0.00778632
0.00556457
0.00397504
0.00281931
0.0019668
0.00133063
0.000852829
0.000495234
0.000234348
6.79586e-005
1.22799e-005
1.61331e-006
1.93717e-007
2.31345e-008
2.83486e-009
4.03569e-010
1.07924e-010
6.97578e-011
5.99288e-011
6.15859e-011
6.2925e-011
0.167159
0.106592
0.0695758
0.0464311
0.0316155
0.0219152
0.0154274
0.0109984
0.00792497
0.00574971
0.004183
0.00303581
0.00218286
0.00154015
0.00105086
0.000676625
0.000392117
0.000181813
5.18519e-005
9.55046e-006
1.34939e-006
1.77485e-007
2.3202e-008
3.08506e-009
4.56607e-010
1.11063e-010
6.28619e-011
5.27528e-011
5.2841e-011
0.156444
0.100588
0.066198
0.0445458
0.0305918
0.0213986
0.0152121
0.0109612
0.007989
0.00587214
0.00433775
0.00320693
0.0023604
0.00171756
0.00122339
0.00084016
0.000542137
0.000312359
0.000140924
3.96502e-005
7.4949e-006
1.13764e-006
1.62812e-007
2.31204e-008
3.3233e-009
5.17507e-010
1.17995e-010
5.86946e-011
4.79927e-011
0.145803
0.0945048
0.062694
0.04253
0.0294495
0.0207762
0.0149038
0.0108475
0.00798651
0.00594063
0.00444807
0.00334092
0.00250658
0.00186852
0.00137405
0.000986653
0.000680948
0.000439545
0.000251118
0.000109461
3.0554e-005
5.97398e-006
9.75221e-007
1.51649e-007
2.33904e-008
3.63582e-009
5.99585e-010
1.31224e-010
5.71477e-011
0.135323
0.0884159
0.0591204
0.0404266
0.0282209
0.0200761
0.0145276
0.0106713
0.00794047
0.00596748
0.00452155
0.00344284
0.00262512
0.00199583
0.00150481
0.00111696
0.000807644
0.000559586
0.000360951
0.000204198
8.57112e-005
2.38965e-005
4.86772e-006
8.54827e-007
1.44043e-007
2.40534e-008
4.03389e-009
7.04918e-010
1.49215e-010
0.125086
0.0823842
0.0555245
0.0382705
0.0269314
0.0193167
0.0140965
0.0104469
0.00784607
0.00595734
0.0045642
0.00351848
0.00272097
0.0021035
0.00161861
0.00123292
0.000922733
0.000671199
0.000466443
0.000300377
0.000168065
6.76266e-005
1.89736e-005
4.04696e-006
7.6365e-007
1.38822e-007
2.49786e-008
4.50177e-009
8.19731e-010
0.115159
0.0764618
0.0519458
0.0360912
0.0256034
0.0185152
0.0136254
0.0101856
0.0077196
0.00591998
0.00458118
0.00357143
0.00279693
0.00219379
0.00171733
0.00133595
0.00102703
0.000774338
0.000566224
0.000394458
0.00025353
0.000140338
5.39918e-005
1.53748e-005
3.45018e-006
6.98097e-007
1.36521e-007
2.63545e-008
4.97544e-009
0.105594
0.0706901
0.0484155
0.0339118
0.0242537
0.0176837
0.0131225
0.00989342
0.00756442
0.00585385
0.00457528
0.00360489
0.00285609
0.00226952
0.00180342
0.00142807
0.00112206
0.000869907
0.000660343
0.000485233
0.000338857
0.000217508
0.000119538
4.51557e-005
1.29682e-005
3.04509e-006
6.55708e-007
1.36935e-007
2.76258e-008
0.0964319
0.0651024
0.0449589
0.0317513
0.0228967
0.0168334
0.0125966
0.00957823
0.00738764
0.00576915
0.00455315
0.00362286
0.00290105
0.0023325
0.0018782
0.00151027
0.00120854
0.000958291
0.000748739
0.000571973
0.00042227
0.000295648
0.000189643
0.000103163
3.88064e-005
1.13066e-005
2.77601e-006
6.34082e-007
1.37863e-007
0.0877058
0.0597252
0.0415967
0.0296253
0.0215438
0.0159724
0.0120536
0.00924357
0.00719113
0.00566523
0.00451113
0.00362343
0.00293171
0.00238344
0.00194271
0.00158365
0.00128746
0.00104029
0.000831935
0.000654792
0.000503269
0.000373317
0.000262154
0.000168099
9.06415e-005
3.42677e-005
1.02281e-005
2.63019e-006
6.20946e-007
0.0794378
0.0545785
0.038345
0.0275462
0.0202044
0.015108
0.0114991
0.0088942
0.00697935
0.00554686
0.00445695
0.00361433
0.00295221
0.00242469
0.00199837
0.00164917
0.00135952
0.00111643
0.000910246
0.000733761
0.000581576
0.000449694
0.000335234
0.000236246
0.000151666
8.13602e-005
3.11491e-005
9.59251e-006
2.52606e-006
0.0716448
0.0496785
0.0352172
0.0255247
0.0188869
0.0142465
0.0109378
0.00853351
0.00675453
0.00541516
0.0043898
0.00359234
0.00296161
0.00245631
0.00204562
0.00170734
0.00142518
0.00118706
0.000983937
0.000808988
0.000657074
0.000524326
0.000407873
0.000305664
0.000216365
0.000139355
7.47001e-005
2.91454e-005
9.08532e-006
0.0643365
0.0450369
0.0322242
0.0235697
0.0175981
0.0133931
0.0103735
0.00816433
0.0065187
0.00527158
0.00431076
0.00355854
0.00296034
0.0024787
0.00208485
0.00175854
0.00148483
0.00125254
0.00105327
0.000880635
0.000729782
0.000597017
0.000479549
0.000375315
0.000282867
0.000201323
0.000130308
7.02539e-005
2.74595e-005
0.0575181
0.0406622
0.0293743
0.0216884
0.016344
0.0125524
0.00981009
0.00778958
0.00627425
0.0051183
0.00422201
0.0035161
0.00295186
0.00249372
0.00211712
0.00180344
0.00153889
0.00131317
0.00111846
0.000948826
0.00079972
0.00066765
0.000549941
0.000444577
0.000350079
0.00026544
0.00019007
0.000124149
6.62749e-005
0.0511903
0.0365602
0.0266743
0.019887
0.0151298
0.0117288
0.00925065
0.0074117
0.00602295
0.00495642
0.00412407
0.00346435
0.00293374
0.00250036
0.00214215
0.00184204
0.0015875
0.0013691
0.00117966
0.00101369
0.000866966
0.000736213
0.000618908
0.000513116
0.000417382
0.000330658
0.000252255
0.000181935
0.000119714
0.0453492
0.0327336
0.0241291
0.0181706
0.0139598
0.0109257
0.00869812
0.00703294
0.00576653
0.00478729
0.004018
0.00340436
0.00290755
0.00249944
0.00216045
0.00187471
0.00163094
0.00142058
0.00123707
0.0010754
0.000931644
0.00080278
0.000686446
0.000580813
0.000484484
0.00039642
0.000315895
0.000242498
0.000176239
0.0399872
0.0291826
0.0217417
0.016543
0.0128379
0.0101465
0.00815512
0.00665541
0.00550666
0.00461229
0.003905
0.00333721
0.0028748
0.00249305
0.00217317
0.00190214
0.00166965
0.00146792
0.00129096
0.00113416
0.000993945
0.000867508
0.000752662
0.000647703
0.000551313
0.000462492
0.000380517
0.000304917
0.000235509
0.0350933
0.0259053
0.0195139
0.0150072
0.0117671
0.0093939
0.00762401
0.00628101
0.00524482
0.00443248
0.00378576
0.00326325
0.00283503
0.00247934
0.0021796
0.0019241
0.00170366
0.00151126
0.0013415
0.00119019
0.00105408
0.000930604
0.000817747
0.000713938
0.000617953
0.000528854
0.000445948
0.000368753
0.00029699
0.0306528
0.0228972
0.0174458
0.013565
0.0107499
0.00867031
0.0071069
0.00591145
0.00498238
0.00424892
0.00366109
0.00318309
0.00278889
0.00245927
0.00217981
0.00194074
0.00173312
0.00155078
0.00138889
0.00124372
0.00111231
0.00099233
0.000881964
0.000779769
0.000684623
0.000595663
0.000512243
0.000433905
0.000360349
0.026648
0.0201518
0.015536
0.0122176
0.0097881
0.00797777
0.00660562
0.00554832
0.0047206
0.00406263
0.00353182
0.00309746
0.00273708
0.00243404
0.00217596
0.00195313
0.00175863
0.00158685
0.00143345
0.00129503
0.00116892
0.00105301
0.000945659
0.000845551
0.000751672
0.000663239
0.000579669
0.000500544
0.000425585
0.0230588
0.0176608
0.0137822
0.0109652
0.00888312
0.00731798
0.00612187
0.00519309
0.00446071
0.00387455
0.00339864
0.0030068
0.00267979
0.00240325
0.00216647
0.00196069
0.00178005
0.00161956
0.00147534
0.00134436
0.00122422
0.00111301
0.00100924
0.000911736
0.000819576
0.000732063
0.000648682
0.00056907
0.000492994
0.0198628
0.0154144
0.0121807
0.0098072
0.00803587
0.00669238
0.00565715
0.00484713
0.00420384
0.00368558
0.00326219
0.00291155
0.00261727
0.00236704
0.00215147
0.00196323
0.00179727
0.00164887
0.00151465
0.00139191
0.00127849
0.00117271
0.00107319
0.000978874
0.000888946
0.000802784
0.000719941
0.00064012
0.000563146
0.0170357
0.0134011
0.0107268
0.00874247
0.0072468
0.00610213
0.00521281
0.0045117
0.00395108
0.00349658
0.00312312
0.00281218
0.00254989
0.00232577
0.00213176
0.00196158
0.00181068
0.00167501
0.00155155
0.00143787
0.00133205
0.00123251
0.00113803
0.00104762
0.000960546
0.000876247
0.000794343
0.000714601
0.000636914
0.0145519
0.0116083
0.00941505
0.00776911
0.00651593
0.0055481
0.00479004
0.00418804
0.00370352
0.00330842
0.00298208
0.0027091
0.00247786
0.00227949
0.00210714
0.00195559
0.00182012
0.00169783
0.00158596
0.0014823
0.00138505
0.00129277
0.00120429
0.0011187
0.00103528
0.000953512
0.000873063
0.000793753
0.000715546
0.012385
0.0100224
0.0082389
0.00688462
0.00584282
0.00503093
0.00438991
0.0038773
0.00346222
0.00312199
0.00283974
0.00260275
0.00240136
0.00222811
0.00207719
0.00194402
0.00182475
0.00171677
0.00161748
0.00152492
0.00143742
0.00135361
0.00127237
0.00119277
0.00111409
0.0010358
0.000957551
0.000879192
0.000800741
0.0105077
0.00862903
0.00719115
0.00608587
0.00522666
0.00455099
0.00401339
0.00358066
0.00322837
0.00293835
0.00269693
0.00249374
0.00232077
0.00217181
0.00204196
0.00192726
0.00182438
0.0017314
0.00164561
0.00156524
0.00148877
0.00141485
0.00134235
0.00127026
0.0011978
0.00112432
0.0010494
0.00097283
0.000894641
0.00889273
0.00741306
0.00626397
0.00536928
0.00466631
0.00410856
0.0036615
0.00329951
0.00300346
0.00275894
0.002555
0.0023832
0.002237
0.00211125
0.00200189
0.0019056
0.00181981
0.00174176
0.00166999
0.00160276
0.00153854
0.001476
0.00141392
0.00135118
0.00128681
0.00121997
0.00115003
0.00107661
0.000999613
0.00751348
0.00635938
0.00544925
0.00473099
0.00416051
0.00370396
0.00333553
0.00303568
0.00278962
0.00258602
0.00241617
0.00227328
0.00215202
0.0020482
0.00195842
0.00187995
0.00181052
0.00174795
0.00169073
0.00163737
0.00158647
0.00153668
0.00148671
0.00143529
0.0013812
0.00132327
0.00126051
0.00119218
0.00111788
0.00634428
0.00545317
0.00473889
0.00416716
0.00370818
0.00333788
0.00303732
0.0027918
0.00259
0.00242307
0.00228412
0.00216772
0.00206959
0.00198627
0.00191502
0.00185357
0.0018
0.00175254
0.00170979
0.00167055
0.00163354
0.00159749
0.00156104
0.00152275
0.00148112
0.00143459
0.00138162
0.00132086
0.00125134
0.00536119
0.00468034
0.00412515
0.00367423
0.00330856
0.00301152
0.00276947
0.0025715
0.00240899
0.00227507
0.0021643
0.00207233
0.00199568
0.00193157
0.00187777
0.00183246
0.00179415
0.00176088
0.00173179
0.00170629
0.00168315
0.0016612
0.00163908
0.00161525
0.00158793
0.0015551
0.00151458
0.00146415
0.00140188
0.0045423
0.00402782
0.00360086
0.00324905
0.00296131
0.00272661
0.0025353
0.00237937
0.00225226
0.00214859
0.00206403
0.00199503
0.00193875
0.00189292
0.00185575
0.00182579
0.00180087
0.00178048
0.00176443
0.00175198
0.00174209
0.00173389
0.00172616
0.00171734
0.00170545
0.00168805
0.00166238
0.00162499
0.00157241
0.00386769
0.00348357
0.00315931
0.00288869
0.0026663
0.00248516
0.00233857
0.00222066
0.00212637
0.00205141
0.00199221
0.00194575
0.00190967
0.00188198
0.00186044
0.0018434
0.00183113
0.00182351
0.00181992
0.00181962
0.00182169
0.00182625
0.00183214
0.00183796
0.00184156
0.00184021
0.00183151
0.00180963
0.00176861
0.00331926
0.00303632
0.00279405
0.00259017
0.00242318
0.00228895
0.00218292
0.00210071
0.00203829
0.0019921
0.00195906
0.00193622
0.0019203
0.00190967
0.00190374
0.00190196
0.00190352
0.00190844
0.0019165
0.001927
0.00193998
0.00195561
0.00197349
0.00199266
0.00201138
0.00202669
0.00203397
0.00202739
0.00200094
0.00288026
0.00267527
0.00249849
0.00235001
0.00223094
0.00213908
0.00207136
0.00202448
0.00199501
0.00197976
0.00197457
0.00197656
0.00198419
0.00199612
0.0020104
0.00202655
0.00204389
0.00206216
0.00208141
0.00210201
0.0021245
0.00214949
0.00217731
0.0022077
0.00223961
0.00227027
0.00229498
0.00230265
0.00228742
0.00253497
0.00238976
0.00226562
0.00216398
0.00208759
0.00203558
0.002006
0.00199633
0.00200289
0.00202154
0.0020507
0.00208687
0.00212726
0.00216943
0.00221119
0.00225112
0.00228867
0.00232386
0.00235709
0.00238922
0.00242136
0.00245478
0.0024907
0.00252982
0.00257213
0.0026154
0.00265587
0.00267831
0.0026695
0.00226861
0.00216925
0.00208801
0.00202703
0.00199014
0.00197745
0.00198793
0.00201871
0.0020675
0.00213168
0.00220761
0.002291
0.00237755
0.00246393
0.00254705
0.00262458
0.00269522
0.00275855
0.00281502
0.00286574
0.00291232
0.00295677
0.00300149
0.00304832
0.00309872
0.00315098
0.00320403
0.00323712
0.0032298
0.00206748
0.00200353
0.00195802
0.00193351
0.00193478
0.00196236
0.00201669
0.0020962
0.00219967
0.00232344
0.00246332
0.00261447
0.00277138
0.00292871
0.00308143
0.0032253
0.00335728
0.00347564
0.00357998
0.003671
0.00375032
0.00382029
0.00388511
0.00394768
0.00401105
0.00407305
0.00413674
0.00417373
0.00415806
0.00191922
0.00188299
0.00186811
0.0018775
0.00191665
0.00198794
0.00209309
0.00223261
0.00240531
0.00260892
0.00283952
0.00309167
0.00335856
0.00363261
0.00390607
0.00417169
0.00442338
0.00465668
0.00486885
0.0050588
0.00522676
0.00537409
0.0055092
0.00563159
0.00574327
0.00584249
0.00593287
0.005987
0.00594269
0.001813
0.00179892
0.00181105
0.00185297
0.00193164
0.00205123
0.00221595
0.0024284
0.0026903
0.00300171
0.00336046
0.003762
0.00419929
0.00466335
0.005144
0.00563078
0.00611403
0.00658561
0.00703942
0.00747137
0.00787898
0.00826098
0.00862357
0.0089647
0.00928255
0.00957379
0.00980369
0.0100382
0.00989687
0.00173961
0.00174362
0.00178033
0.00185464
0.00197479
0.00214823
0.00238212
0.00268354
0.00305891
0.00351314
0.00404874
0.00466515
0.00535833
0.00612104
0.00694362
0.0078152
0.00872511
0.00966432
0.0106264
0.0116079
0.0126085
0.013629
0.0146702
0.015744
0.0168539
0.0180032
0.0189968
0.0204978
0.0200914
0.00169141
0.00171045
0.00177033
0.00187683
0.00204116
0.00227397
0.00258762
0.00299555
0.00351175
0.00414968
0.00492109
0.00583482
0.00689605
0.00810623
0.00946391
0.0109662
0.0126112
0.0144
0.0163396
0.0184452
0.0207422
0.023266
0.0260637
0.0291791
0.0327589
0.0368826
0.0412723
0.0487406
0.0484218
0.00166211
0.00169384
0.00177586
0.00191485
0.00212545
0.00242309
0.00282687
0.00335907
0.00404479
0.00491094
0.00598485
0.00729294
0.00885965
0.0107074
0.0128574
0.0153325
0.0181603
0.0213784
0.0250407
0.0292241
0.0340408
0.039644
0.0462691
0.0541792
0.0639546
0.0759918
0.0916267
0.116504
0.123532
0.00164677
0.00168923
0.00179261
0.00196402
0.00222273
0.00258988
0.00309309
0.00376623
0.00464964
0.00578955
0.00723714
0.0090475
0.011279
0.0139939
0.0172605
0.0211572
0.0257801
0.0312527
0.0377404
0.0454692
0.0547598
0.0660539
0.0800503
0.0975893
0.120645
0.150198
0.19422
0.25493
0.299804
0.00164228
0.0016936
0.00181792
0.00202138
0.00232951
0.00276987
0.00338046
0.00420958
0.0053173
0.006776
0.00867075
0.0110996
0.0141749
0.0180257
0.0228034
0.0286909
0.0359163
0.0447738
0.0556553
0.0690927
0.08584
0.106943
0.134085
0.169358
0.217802
0.281917
0.386006
0.512791
0.680466
0.00151969
0.00151969
0.00151969
0.0015197
0.0015197
0.0015197
0.00151969
0.00151969
0.0015197
0.0015197
0.00151971
0.0015197
0.00151969
0.0015197
0.00151971
0.0015197
0.00151969
0.00151968
0.0015197
0.0015197
0.00151969
0.00151968
0.00151967
0.00151968
0.00151969
0.0015197
0.0015197
0.0015197
0.0015197
0.00151968
0.00151968
0.00151968
0.00151969
0.0015197
0.0015197
0.0015197
0.0015197
0.0015197
0.0015197
0.0015197
0.0015197
0.0015197
0.0015197
0.0015197
0.0015197
0.0015197
0.0015197
0.0015197
0.0015197
0.0015197
0.0015197
0.0015197
0.0015197
0.0015197
0.0015197
0.0015197
0.0015197
0.0015197
0.0015197
0.0015197
0.0015197
0.0015197
0.0015197
0.0015197
0.0015197
0.0015197
0.0015197
0.0015197
0.0015197
0.0015197
0.0015197
0.0015197
0.00151971
0.0015197
0.00151971
0.0015197
0.00151971
0.00151971
0.00151971
0.00151971
0.00151971
0.00151971
0.00151971
0.00151971
0.00151971
0.00151971
0.00151971
0.00151971
0.00151971
0.00151971
0.00151971
0.00151971
0.00151971
0.00151971
0.00151971
0.00151971
0.00151971
0.00151971
0.00151971
0.00151971
0.00151971
0.00151971
0.00151971
0.00151971
0.00151971
0.00151971
0.00151971
0.00151971
0.00151971
0.00151971
0.00151971
0.00151971
0.00151971
0.00151971
0.00151971
0.00151971
0.00151971
0.00151971
0.00151971
0.00151971
0.00151971
0.00151971
0.00151971
0.00151971
0.00151971
0.00151971
0.00151971
0.00151971
0.00151971
0.00151971
0.00151971
0.00151972
0.00151971
0.00151972
0.00151972
0.00151972
0.00151972
0.00151973
0.00154195
3.28173e-005
3.28145e-005
3.28154e-005
3.28229e-005
3.28293e-005
3.28258e-005
3.28176e-005
3.28155e-005
3.2823e-005
3.28331e-005
3.28336e-005
3.28238e-005
3.28196e-005
3.28318e-005
3.28399e-005
3.28309e-005
3.28152e-005
3.28104e-005
3.28231e-005
3.28281e-005
3.28181e-005
3.28018e-005
3.27972e-005
3.28083e-005
3.28217e-005
3.28246e-005
3.28267e-005
3.28296e-005
3.28215e-005
3.28083e-005
3.28008e-005
3.28029e-005
3.28203e-005
3.28244e-005
3.28239e-005
3.28235e-005
3.28233e-005
3.28232e-005
3.28231e-005
3.28231e-005
3.28232e-005
3.28235e-005
3.28241e-005
3.28248e-005
3.28254e-005
3.28256e-005
3.28258e-005
3.28257e-005
3.28259e-005
3.2826e-005
3.28263e-005
3.28264e-005
3.28268e-005
3.28272e-005
3.28275e-005
3.28278e-005
3.28284e-005
3.28287e-005
3.28293e-005
3.28295e-005
3.283e-005
3.28304e-005
3.28306e-005
3.28313e-005
3.28314e-005
3.2832e-005
3.28322e-005
3.28331e-005
3.28329e-005
3.28335e-005
3.28339e-005
3.28335e-005
3.28355e-005
3.28344e-005
3.28358e-005
3.28353e-005
3.28359e-005
3.28371e-005
3.28373e-005
3.28367e-005
3.28392e-005
3.28412e-005
3.28406e-005
3.28396e-005
3.28391e-005
3.28399e-005
3.28367e-005
3.28361e-005
3.28399e-005
3.28412e-005
3.28411e-005
3.28407e-005
3.28405e-005
3.28405e-005
3.28408e-005
3.28408e-005
3.28413e-005
3.28412e-005
3.28416e-005
3.28416e-005
3.28418e-005
3.28419e-005
3.28419e-005
3.2842e-005
3.2842e-005
3.28421e-005
3.28419e-005
3.28419e-005
3.28418e-005
3.28419e-005
3.28418e-005
3.28419e-005
3.28419e-005
3.2842e-005
3.28419e-005
3.2842e-005
3.28419e-005
3.28419e-005
3.28419e-005
3.28419e-005
3.28419e-005
3.28418e-005
3.28417e-005
3.28417e-005
3.28418e-005
3.28419e-005
3.28422e-005
3.28428e-005
3.28424e-005
3.28435e-005
3.28441e-005
3.28467e-005
3.28457e-005
3.28508e-005
3.28479e-005
3.2854e-005
3.28538e-005
3.28688e-005
3.51469e-005
1.42062e-006
1.42076e-006
1.42113e-006
1.42163e-006
1.42138e-006
1.42059e-006
1.42038e-006
1.42118e-006
1.42219e-006
1.42223e-006
1.42122e-006
1.42058e-006
1.4213e-006
1.4225e-006
1.42252e-006
1.42152e-006
1.4208e-006
1.42099e-006
1.42141e-006
1.421e-006
1.42008e-006
1.42006e-006
1.42066e-006
1.42177e-006
1.42184e-006
1.42183e-006
1.42197e-006
1.42175e-006
1.42082e-006
1.42063e-006
1.42094e-006
1.42204e-006
1.42262e-006
1.42234e-006
1.42238e-006
1.42244e-006
1.42248e-006
1.42251e-006
1.42255e-006
1.4226e-006
1.42266e-006
1.42274e-006
1.42283e-006
1.42291e-006
1.42298e-006
1.42303e-006
1.42306e-006
1.42309e-006
1.42313e-006
1.42317e-006
1.42322e-006
1.42326e-006
1.42332e-006
1.42338e-006
1.42343e-006
1.42349e-006
1.42356e-006
1.42362e-006
1.42368e-006
1.42374e-006
1.4238e-006
1.42386e-006
1.42392e-006
1.42399e-006
1.42404e-006
1.4241e-006
1.42417e-006
1.42422e-006
1.42428e-006
1.42435e-006
1.4244e-006
1.42446e-006
1.42454e-006
1.42457e-006
1.42466e-006
1.42473e-006
1.42469e-006
1.42479e-006
1.4248e-006
1.42463e-006
1.42479e-006
1.42482e-006
1.4249e-006
1.42502e-006
1.42508e-006
1.425e-006
1.42479e-006
1.42491e-006
1.42497e-006
1.42507e-006
1.42521e-006
1.42523e-006
1.42522e-006
1.42524e-006
1.42526e-006
1.42527e-006
1.42529e-006
1.42528e-006
1.4253e-006
1.4253e-006
1.4253e-006
1.42531e-006
1.4253e-006
1.42531e-006
1.4253e-006
1.42529e-006
1.42527e-006
1.42526e-006
1.42523e-006
1.42521e-006
1.42518e-006
1.42516e-006
1.42513e-006
1.42509e-006
1.42507e-006
1.42502e-006
1.425e-006
1.42494e-006
1.42492e-006
1.42487e-006
1.42483e-006
1.42477e-006
1.42472e-006
1.42467e-006
1.42463e-006
1.42457e-006
1.42457e-006
1.42448e-006
1.4245e-006
1.42462e-006
1.42436e-006
1.42464e-006
1.42459e-006
1.42504e-006
1.4244e-006
1.42842e-006
1.40792e-006
1.33216e-006
2.14199e-006
1.19996e-007
1.20007e-007
1.20048e-007
1.20061e-007
1.20012e-007
1.20003e-007
1.20086e-007
1.20189e-007
1.20193e-007
1.20107e-007
1.20042e-007
1.20102e-007
1.20231e-007
1.20288e-007
1.20235e-007
1.20124e-007
1.20108e-007
1.20143e-007
1.20168e-007
1.20164e-007
1.20137e-007
1.20157e-007
1.20187e-007
1.2024e-007
1.20263e-007
1.20296e-007
1.20308e-007
1.20287e-007
1.20256e-007
1.20271e-007
1.20267e-007
1.20346e-007
1.2035e-007
1.20375e-007
1.20393e-007
1.20405e-007
1.20416e-007
1.20427e-007
1.20438e-007
1.20451e-007
1.20465e-007
1.20479e-007
1.20494e-007
1.20506e-007
1.20517e-007
1.20529e-007
1.2054e-007
1.20552e-007
1.20564e-007
1.20576e-007
1.20588e-007
1.206e-007
1.20612e-007
1.20625e-007
1.20637e-007
1.20651e-007
1.20663e-007
1.20677e-007
1.20689e-007
1.20703e-007
1.20716e-007
1.20727e-007
1.20741e-007
1.20752e-007
1.20766e-007
1.20776e-007
1.2079e-007
1.20798e-007
1.20813e-007
1.20822e-007
1.20831e-007
1.20848e-007
1.20853e-007
1.20865e-007
1.2087e-007
1.20884e-007
1.20874e-007
1.20884e-007
1.20894e-007
1.20887e-007
1.20907e-007
1.20903e-007
1.20921e-007
1.20933e-007
1.20959e-007
1.20946e-007
1.20935e-007
1.20942e-007
1.20945e-007
1.20962e-007
1.20983e-007
1.20988e-007
1.20998e-007
1.21008e-007
1.21014e-007
1.21017e-007
1.2102e-007
1.21021e-007
1.21023e-007
1.21024e-007
1.21025e-007
1.21026e-007
1.21026e-007
1.21027e-007
1.21026e-007
1.21025e-007
1.21023e-007
1.21022e-007
1.21018e-007
1.21014e-007
1.21009e-007
1.21002e-007
1.20996e-007
1.20987e-007
1.20983e-007
1.20974e-007
1.20968e-007
1.20957e-007
1.20949e-007
1.20938e-007
1.20927e-007
1.20912e-007
1.20897e-007
1.20881e-007
1.20865e-007
1.20841e-007
1.20828e-007
1.208e-007
1.20766e-007
1.20772e-007
1.20776e-007
1.20755e-007
1.20676e-007
1.21954e-007
1.21321e-007
1.09502e-007
1.62201e-007
9.3266e-006
0.00148611
1.85177e-008
1.85255e-008
1.85313e-008
1.85319e-008
1.85328e-008
1.85419e-008
1.8552e-008
1.85535e-008
1.85469e-008
1.85452e-008
1.85518e-008
1.85656e-008
1.85718e-008
1.85699e-008
1.8561e-008
1.85543e-008
1.85609e-008
1.85692e-008
1.85796e-008
1.85817e-008
1.85831e-008
1.85848e-008
1.859e-008
1.8597e-008
1.86046e-008
1.86083e-008
1.86127e-008
1.86137e-008
1.86117e-008
1.86095e-008
1.8614e-008
1.86261e-008
1.86339e-008
1.864e-008
1.86433e-008
1.86468e-008
1.86504e-008
1.86537e-008
1.86571e-008
1.86607e-008
1.86644e-008
1.86681e-008
1.86714e-008
1.86744e-008
1.86776e-008
1.86813e-008
1.86848e-008
1.86889e-008
1.86925e-008
1.86961e-008
1.86999e-008
1.87038e-008
1.87075e-008
1.87111e-008
1.87148e-008
1.87186e-008
1.8722e-008
1.87258e-008
1.87291e-008
1.87327e-008
1.87362e-008
1.87395e-008
1.87432e-008
1.87461e-008
1.87496e-008
1.87525e-008
1.87561e-008
1.87585e-008
1.87621e-008
1.87646e-008
1.87669e-008
1.87712e-008
1.87724e-008
1.87761e-008
1.87774e-008
1.87802e-008
1.8781e-008
1.8782e-008
1.87846e-008
1.87846e-008
1.87883e-008
1.87893e-008
1.87915e-008
1.87961e-008
1.8799e-008
1.87991e-008
1.87977e-008
1.88016e-008
1.88044e-008
1.88066e-008
1.88104e-008
1.8814e-008
1.88172e-008
1.8819e-008
1.88195e-008
1.88205e-008
1.8821e-008
1.88225e-008
1.88228e-008
1.88238e-008
1.88241e-008
1.88246e-008
1.88248e-008
1.88249e-008
1.88249e-008
1.88245e-008
1.88243e-008
1.88234e-008
1.88228e-008
1.88211e-008
1.88197e-008
1.88169e-008
1.88148e-008
1.88113e-008
1.88095e-008
1.88065e-008
1.88042e-008
1.88011e-008
1.87985e-008
1.87954e-008
1.87923e-008
1.87884e-008
1.87847e-008
1.87805e-008
1.87762e-008
1.8773e-008
1.87734e-008
1.87577e-008
1.8738e-008
1.87874e-008
1.87045e-008
1.87231e-008
1.89897e-008
1.67202e-008
1.68845e-008
6.25556e-008
5.065e-006
0.000578067
0.0150438
4.68239e-009
4.68451e-009
4.68565e-009
4.68655e-009
4.68738e-009
4.68841e-009
4.68939e-009
4.69061e-009
4.69186e-009
4.69368e-009
4.69456e-009
4.69571e-009
4.69737e-009
4.69829e-009
4.69789e-009
4.69932e-009
4.70105e-009
4.70416e-009
4.70776e-009
4.70838e-009
4.70827e-009
4.70875e-009
4.71121e-009
4.71461e-009
4.71763e-009
4.71837e-009
4.7192e-009
4.71922e-009
4.7184e-009
4.71843e-009
4.72089e-009
4.72476e-009
4.72766e-009
4.72927e-009
4.7306e-009
4.73209e-009
4.73365e-009
4.73515e-009
4.73664e-009
4.73815e-009
4.73962e-009
4.74102e-009
4.74228e-009
4.74353e-009
4.74488e-009
4.7464e-009
4.74786e-009
4.74933e-009
4.75093e-009
4.75268e-009
4.75422e-009
4.75565e-009
4.75709e-009
4.75853e-009
4.75997e-009
4.76142e-009
4.76277e-009
4.76418e-009
4.76549e-009
4.76686e-009
4.76817e-009
4.76946e-009
4.7708e-009
4.77201e-009
4.77331e-009
4.7745e-009
4.77576e-009
4.7769e-009
4.77815e-009
4.77925e-009
4.78026e-009
4.78176e-009
4.78245e-009
4.78408e-009
4.7846e-009
4.78597e-009
4.78669e-009
4.78755e-009
4.78881e-009
4.78977e-009
4.79102e-009
4.79132e-009
4.79212e-009
4.79307e-009
4.79409e-009