/*--------------------------------*- C++ -*----------------------------------*\
| =========                 |                                                 |
| \\      /  F ield         | OpenFOAM: The Open Source CFD Toolbox           |
|  \\    /   O peration     | Version:  5.x                                   |
|   \\  /    A nd           | Web:      www.OpenFOAM.org                      |
|    \\/     M anipulation  |                                                 |
\*---------------------------------------------------------------------------*/
/*   Windows 32 and 64 bit porting by blueCAPE: http://www.bluecape.com.pt   *\
|  Based on Windows porting (2.0.x v4) by Symscape: http://www.symscape.com   |
\*---------------------------------------------------------------------------*/
FoamFile
{
    version     2.0;
    format      ascii;
    class       volScalarField;
    location    "340";
    object      k;
}
// * * * * * * * * * * * * * * * * * * * * * * * * * * * * * * * * * * * * * //

dimensions      [0 2 -2 0 0 0 0];

internalField   nonuniform List<scalar> 
43900
(
0.000985518
0.000989435
0.000990249
0.000990178
0.000990127
0.000990115
0.00099012
0.00099012
0.000990121
0.000990125
0.000990124
0.000990129
0.000990131
0.00099013
0.000990133
0.000990135
0.000990131
0.000990132
0.000990135
0.000990136
0.000990137
0.000990138
0.000990138
0.000990138
0.000990135
0.000990136
0.00099014
0.000990142
0.000990141
0.00164985
5.60165e-005
3.89323e-005
3.8176e-005
4.08102e-005
4.09667e-005
4.0988e-005
4.09556e-005
4.09554e-005
4.09613e-005
4.0962e-005
4.0969e-005
4.09726e-005
4.09718e-005
4.09769e-005
4.0979e-005
4.09745e-005
4.09765e-005
4.09812e-005
4.09817e-005
4.09841e-005
4.09845e-005
4.09851e-005
4.09855e-005
4.09822e-005
4.09834e-005
4.0989e-005
4.09913e-005
4.09909e-005
0.294461
0.0540167
0.004104
0.000117951
5.00911e-006
3.08386e-006
2.97871e-006
3.34463e-006
3.38109e-006
3.37579e-006
3.37056e-006
3.37111e-006
3.37303e-006
3.37416e-006
3.37494e-006
3.37513e-006
3.3756e-006
3.37678e-006
3.37713e-006
3.37735e-006
3.37779e-006
3.37798e-006
3.37854e-006
3.37904e-006
3.37939e-006
3.37999e-006
3.38029e-006
3.3799e-006
3.38008e-006
0.880028
0.376628
0.120012
0.0238264
0.00208089
8.29127e-005
4.02205e-006
5.91529e-007
4.57857e-007
4.98775e-007
5.33601e-007
5.36415e-007
5.31511e-007
5.30257e-007
5.3115e-007
5.31438e-007
5.31367e-007
5.31559e-007
5.31746e-007
5.31876e-007
5.3195e-007
5.32053e-007
5.32256e-007
5.32341e-007
5.32372e-007
5.3246e-007
5.3249e-007
5.32583e-007
5.32753e-007
1.28976
0.739211
0.394908
0.176621
0.0561612
0.010326
0.00082556
3.76709e-005
1.70815e-006
2.30351e-007
1.2882e-007
1.2608e-007
1.44653e-007
1.48176e-007
1.45397e-007
1.44986e-007
1.45946e-007
1.45998e-007
1.45727e-007
1.45783e-007
1.45813e-007
1.45817e-007
1.45862e-007
1.45898e-007
1.45922e-007
1.4596e-007
1.45986e-007
1.46027e-007
1.4604e-007
1.54667
0.984057
0.616827
0.369997
0.198898
0.0833607
0.0232126
0.00328871
0.000213036
1.03957e-005
5.54595e-007
9.7916e-008
5.39656e-008
5.4697e-008
6.1606e-008
6.15819e-008
5.95593e-008
5.98567e-008
6.05529e-008
6.04046e-008
6.0395e-008
6.04807e-008
6.0497e-008
6.0501e-008
6.05357e-008
6.05583e-008
6.05584e-008
6.05653e-008
6.05791e-008
1.71124
1.15026
0.773666
0.514283
0.330934
0.198394
0.100324
0.0349838
0.00706143
0.000652877
3.68788e-005
1.98689e-006
1.39875e-007
4.02023e-008
2.89534e-008
3.14551e-008
3.48998e-008
3.3592e-008
3.27846e-008
3.32385e-008
3.32456e-008
3.31087e-008
3.31087e-008
3.31132e-008
3.30903e-008
3.30998e-008
3.31204e-008
3.31294e-008
3.31331e-008
1.81095
1.2585
0.880368
0.615535
0.425612
0.286241
0.181764
0.102479
0.0432786
0.0113189
0.00145112
9.85842e-005
5.74849e-006
3.58409e-007
4.31296e-008
2.14439e-008
1.89497e-008
2.15163e-008
2.19706e-008
2.11204e-008
2.12763e-008
2.15764e-008
2.15711e-008
2.15918e-008
2.16199e-008
2.1585e-008
2.15604e-008
2.15828e-008
2.16027e-008
1.87473
1.33389
0.958043
0.691299
0.497838
0.354513
0.246142
0.162716
0.0976703
0.0467942
0.0141242
0.00221708
0.000178134
1.14822e-005
7.49957e-007
6.42166e-008
1.9825e-008
1.45346e-008
1.51088e-008
1.64108e-008
1.57826e-008
1.5518e-008
1.56249e-008
1.562e-008
1.56451e-008
1.57218e-008
1.57294e-008
1.56897e-008
1.56758e-008
1.90169
1.37602
1.00705
0.742763
0.549519
0.40532
0.295553
0.210386
0.143161
0.0894118
0.0464208
0.0153056
0.00272926
0.000250787
1.78525e-005
1.26108e-006
1.02327e-007
1.91333e-008
1.21402e-008
1.12801e-008
1.24401e-008
1.24083e-008
1.21481e-008
1.22162e-008
1.22134e-008
1.21688e-008
1.21932e-008
1.22636e-008
1.22639e-008
1.90147
1.39256
1.03263
0.773242
0.582571
0.439666
0.330471
0.245431
0.177983
0.123619
0.0793142
0.0432954
0.0150395
0.0028927
0.000294038
2.30457e-005
1.77683e-006
1.47737e-007
2.11922e-008
1.12617e-008
9.4378e-009
9.98532e-009
1.02745e-008
9.99719e-009
1.00009e-008
1.00274e-008
1.00041e-008
9.99987e-009
1.00346e-008
1.89221
1.3998
1.04901
0.794584
0.606602
0.465152
0.356762
0.27218
0.204979
0.150672
0.106138
0.0692839
0.0389105
0.0140596
0.00283783
0.000312142
2.67653e-005
2.24976e-006
1.98553e-007
2.55354e-008
1.01849e-008
8.22088e-009
8.36573e-009
8.85733e-009
8.71335e-009
8.60639e-009
8.61035e-009
8.59171e-009
8.54323e-009
1.87002
1.39554
1.05514
0.806947
0.622697
0.483492
0.376481
0.292782
0.226173
0.172263
0.127938
0.0910159
0.0600262
0.0341005
0.0125274
0.0025922
0.000304978
2.87089e-005
2.64978e-006
2.53527e-007
3.10365e-008
9.78052e-009
7.48014e-009
7.13725e-009
7.57551e-009
7.63039e-009
7.58187e-009
7.59129e-009
7.58046e-009
1.83726
1.3818
1.0529
0.811797
0.632106
0.495868
0.390811
0.308437
0.242764
0.189535
0.145699
0.109073
0.0781138
0.0517779
0.0294689
0.0107
0.00221907
0.000276354
2.85447e-005
2.89601e-006
3.01463e-007
3.71921e-008
9.93424e-009
7.0555e-009
6.34196e-009
6.58043e-009
6.7527e-009
6.72367e-009
6.74864e-009
1.79622
1.35995
1.04377
0.810578
0.636053
0.503312
0.400681
0.32001
0.255568
0.203255
0.160114
0.124003
0.0933718
0.0671232
0.044526
0.0252175
0.00883291
0.00180949
0.000237371
2.68395e-005
2.98948e-006
3.39405e-007
4.37243e-008
1.05313e-008
6.53673e-009
5.77475e-009
5.83929e-009
6.02256e-009
6.00235e-009
1.74874
1.33205
1.02869
0.804437
0.635584
0.506792
0.406934
0.328279
0.265322
0.214129
0.171851
0.136407
0.106277
0.0803529
0.057854
0.0382757
0.0214154
0.00727387
0.00147919
0.000205457
2.54005e-005
3.10412e-006
3.85133e-007
5.24738e-008
1.14739e-008
6.21237e-009
5.40492e-009
5.23045e-009
5.36658e-009
1.69609
1.29931
1.0092
0.793923
0.631615
0.506995
0.410213
0.3338
0.272532
0.222634
0.18137
0.146731
0.117237
0.0917976
0.0696178
0.0501406
0.0330201
0.0181098
0.00597792
0.00121912
0.000180443
2.43501e-005
3.25002e-006
4.37966e-007
6.31118e-008
1.29418e-008
6.1421e-009
5.1752e-009
4.86007e-009
1.63943
1.26273
0.986173
0.780203
0.624385
0.50469
0.411134
0.33714
0.277678
0.229167
0.188993
0.155228
0.126444
0.101576
0.0798364
0.0606499
0.0436185
0.0285025
0.0152346
0.00490011
0.00101023
0.000159426
2.3336e-005
3.37634e-006
4.91827e-007
7.53118e-008
1.50617e-008
6.32405e-009
4.94778e-009
1.57978
1.2232
0.960374
0.763936
0.614836
0.499954
0.41006
0.338662
0.281168
0.23417
0.195175
0.162347
0.13432
0.110068
0.0888239
0.0700146
0.0532248
0.0381715
0.0246985
0.0127898
0.00402741
0.000847076
0.000142873
2.26628e-005
3.55497e-006
5.597e-007
9.14309e-008
1.82203e-008
6.68629e-009
1.51789
1.18139
0.932389
0.745626
0.6034
0.493473
0.407255
0.338531
0.283099
0.237693
0.199961
0.168148
0.140947
0.117376
0.0966916
0.0783342
0.0618873
0.0470507
0.0336269
0.0215211
0.0107618
0.00334028
0.000723299
0.000130588
2.23971e-005
3.79755e-006
6.44511e-007
1.12185e-007
2.22086e-008
1.45445
1.13789
0.90272
0.725707
0.59046
0.485606
0.403137
0.337344
0.284007
0.240237
0.203789
0.173006
0.146645
0.123769
0.103664
0.0857879
0.06973
0.0551856
0.0419384
0.0298534
0.0188827
0.00908708
0.00280115
0.000628706
0.00012145
2.24237e-005
4.08994e-006
7.45153e-007
1.35624e-007
1.39005
1.09318
0.87177
0.704514
0.576292
0.476564
0.397886
0.334927
0.283794
0.241731
0.206628
0.176928
0.151452
0.129307
0.109815
0.0924531
0.0768238
0.0626252
0.0496344
0.0376972
0.0267266
0.0167118
0.00771357
0.00238114
0.000557195
0.000114971
2.27883e-005
4.45249e-006
8.48906e-007
1.32516
1.04767
0.83987
0.682331
0.561144
0.466585
0.391761
0.331725
0.282889
0.242551
0.208814
0.180208
0.155623
0.134218
0.115345
0.0985079
0.0833228
0.0694953
0.0568026
0.0450822
0.0342268
0.024187
0.0149978
0.00662783
0.00205379
0.000501522
0.000110141
2.33225e-005
4.76256e-006
1.26019
1.00167
0.807288
0.659374
0.545193
0.455803
0.384843
0.327729
0.281119
0.242533
0.210218
0.182754
0.159105
0.138475
0.120253
0.103968
0.0892536
0.0758254
0.0634654
0.0520096
0.0413408
0.0313873
0.0221282
0.0136334
0.00577979
0.00180786
0.000460982
0.000107516
2.37312e-005
1.19547
0.955471
0.774249
0.635831
0.528597
0.444361
0.377277
0.323121
0.278808
0.242063
0.211152
0.184828
0.162113
0.14226
0.124692
0.108965
0.0947283
0.0817115
0.0697027
0.0585395
0.0481008
0.0383032
0.0291007
0.0204954
0.012557
0.00521838
0.00165856
0.000441526
0.000106349
1.1313
0.909295
0.740939
0.611851
0.511479
0.432358
0.36914
0.317946
0.275932
0.240995
0.211522
0.186369
0.164615
0.145563
0.128671
0.11352
0.0997789
0.0871906
0.0755517
0.0647041
0.0545272
0.0449321
0.0358607
0.0272867
0.0192242
0.0117222
0.00487127
0.00158408
0.000430121
1.06793
0.863349
0.707522
0.587567
0.493945
0.419881
0.360501
0.312258
0.272541
0.239409
0.211401
0.187438
0.166663
0.148428
0.132228
0.117669
0.104439
0.0922939
0.0810413
0.0705285
0.0606373
0.0512778
0.0423857
0.0339216
0.0258727
0.0182541
0.0111071
0.00466597
0.00152792
1.00558
0.817818
0.674146
0.563097
0.476091
0.407009
0.351431
0.306127
0.268716
0.237423
0.210913
0.188137
0.168346
0.150935
0.135433
0.121472
0.108761
0.0970688
0.0862132
0.0760483
0.0664595
0.0573579
0.0486771
0.0403709
0.0324135
0.0247999
0.017544
0.0107213
0.00449276
0.944471
0.772867
0.640944
0.538547
0.458002
0.393809
0.341979
0.299588
0.264467
0.234997
0.209951
0.188384
0.169604
0.153041
0.13826
0.124918
0.112744
0.101522
0.0910786
0.0812767
0.0720065
0.0631818
0.0547361
0.0466206
0.0388029
0.031267
0.0240137
0.0170856
0.010363
0.884787
0.728651
0.608038
0.514016
0.439757
0.380346
0.332201
0.292687
0.259842
0.232194
0.208625
0.18828
0.170517
0.154811
0.140762
0.12805
0.116425
0.105683
0.0956639
0.086237
0.0772983
0.068765
0.060572
0.0526699
0.0450234
0.0376105
0.0304234
0.0234743
0.0168028
0.826703
0.685311
0.575545
0.489596
0.42143
0.366678
0.322144
0.285465
0.254876
0.229048
0.206971
0.187874
0.171124
0.15628
0.142968
0.130896
0.119829
0.109579
0.0999941
0.0909532
0.0823575
0.0741279
0.0662015
0.0585297
0.051076
0.0438157
0.0367355
0.0298356
0.0231388
0.770378
0.642979
0.543567
0.46537
0.403086
0.352858
0.31185
0.277953
0.24959
0.225564
0.204964
0.187084
0.171371
0.157412
0.144861
0.133448
0.122958
0.113216
0.104082
0.0954417
0.0872024
0.0792896
0.0716432
0.0642161
0.0569721
0.0498853
0.0429394
0.0361285
0.0294585
0.715955
0.601773
0.512204
0.441418
0.384789
0.338937
0.301357
0.270184
0.244012
0.221772
0.202644
0.185993
0.171319
0.158257
0.146479
0.13574
0.125841
0.116622
0.107953
0.0997272
0.091858
0.0842751
0.0769216
0.0697521
0.0627315
0.0558338
0.0490413
0.0423447
0.0357428
0.663561
0.5618
0.481543
0.41781
0.366596
0.324958
0.290703
0.262186
0.238165
0.217691
0.200033
0.184623
0.171019
0.158848
0.147848
0.137794
0.1285
0.11982
0.111631
0.103836
0.0963519
0.0891133
0.0820662
0.0751671
0.0683823
0.0616862
0.0550607
0.0484953
0.0419856
0.613305
0.52316
0.451667
0.394613
0.34856
0.310964
0.279917
0.253982
0.232067
0.213332
0.197128
0.18295
0.170399
0.159146
0.14895
0.139603
0.130938
0.122819
0.115133
0.107789
0.10071
0.093834
0.0871095
0.0804955
0.0739596
0.0674769
0.0610297
0.054607
0.0482036
0.565287
0.485941
0.422654
0.371892
0.330733
0.296995
0.269032
0.245596
0.225732
0.208706
0.193942
0.180992
0.169495
0.15916
0.149794
0.14118
0.133169
0.125637
0.11848
0.111611
0.104961
0.0984698
0.0920884
0.0857777
0.0795061
0.0732499
0.0669918
0.0607209
0.0544324
0.519594
0.450228
0.394578
0.349712
0.313167
0.283092
0.258078
0.237049
0.219177
0.203822
0.190481
0.178757
0.168333
0.158959
0.150415
0.142546
0.13521
0.128289
0.121688
0.115326
0.109134
0.103056
0.0970442
0.0910602
0.0850733
0.0790599
0.0730032
0.066893
0.060725
0.476305
0.416104
0.367517
0.328138
0.295919
0.2693
0.247089
0.228365
0.212417
0.19869
0.186746
0.176236
0.166883
0.158463
0.150772
0.143676
0.137046
0.130772
0.124765
0.118947
0.113252
0.107625
0.102019
0.0963943
0.0907203
0.0849728
0.0791348
0.0731961
0.0671534
0.435497
0.383652
0.341551
0.307246
0.279051
0.255673
0.236107
0.219576
0.205473
0.193321
0.182739
0.173426
0.165135
0.157663
0.150835
0.144549
0.138661
0.133074
0.127704
0.122476
0.117328
0.112201
0.107049
0.101831
0.0965111
0.0910644
0.0854718
0.0797223
0.073813
0.397238
0.352956
0.316767
0.287116
0.262639
0.242274
0.225187
0.210726
0.198377
0.187735
0.178474
0.170331
0.163091
0.156579
0.150647
0.145169
0.140043
0.135176
0.130486
0.1259
0.121355
0.116791
0.112158
0.107408
0.102503
0.0974115
0.0921085
0.08658
0.0808216
0.361599
0.324103
0.293259
0.267843
0.246772
0.229185
0.2144
0.201875
0.191181
0.181974
0.173978
0.166966
0.160754
0.155188
0.150143
0.145485
0.141146
0.137033
0.133066
0.129176
0.125297
0.121369
0.117333
0.113136
0.108729
0.104071
0.0991281
0.0938769
0.0883074
0.32864
0.297184
0.271131
0.249536
0.231557
0.216511
0.203845
0.193115
0.183964
0.176105
0.169306
0.163372
0.158147
0.153498
0.149309
0.145471
0.141935
0.138596
0.135386
0.132238
0.129087
0.125868
0.122517
0.118971
0.115169
0.111052
0.106571
0.101687
0.0963765
0.298421
0.27229
0.250494
0.232315
0.217122
0.204381
0.193649
0.184567
0.176843
0.170237
0.164555
0.159634
0.155341
0.151562
0.148204
0.145186
0.142411
0.139836
0.137391
0.135011
0.132632
0.130186
0.127604
0.124811
0.12173
0.118285
0.1144
0.11001
0.105067
0.270991
0.249511
0.231464
0.216318
0.203616
0.192951
0.183974
0.176395
0.169978
0.164524
0.159871
0.155884
0.152451
0.149479
0.146889
0.144613
0.142577
0.140742
0.139045
0.137431
0.135839
0.134204
0.132452
0.130501
0.128257
0.125619
0.122482
0.118742
0.114313
0.246386
0.228932
0.214161
0.201688
0.191202
0.182399
0.175007
0.168794
0.163568
0.159164
0.155448
0.152308
0.149652
0.147406
0.145506
0.143898
0.142533
0.141369
0.140363
0.139471
0.138642
0.137815
0.136919
0.135866
0.13455
0.132844
0.130605
0.127686
0.123942
0.224627
0.210622
0.198693
0.188565
0.180046
0.172912
0.166952
0.161982
0.157839
0.15439
0.15152
0.149137
0.147168
0.145553
0.144248
0.143213
0.142417
0.141826
0.14142
0.141166
0.141032
0.140965
0.1409
0.140753
0.140416
0.139729
0.138515
0.136587
0.133708
0.2057
0.194624
0.185145
0.17707
0.170297
0.164666
0.160009
0.156175
0.153027
0.150448
0.148341
0.146631
0.145256
0.144177
0.143361
0.142788
0.142444
0.142297
0.142364
0.142623
0.143077
0.143673
0.144364
0.145078
0.145704
0.146066
0.145952
0.14519
0.143358
0.189547
0.180937
0.17356
0.167282
0.16207
0.157804
0.154349
0.151571
0.149351
0.147581
0.146176
0.145067
0.144209
0.143576
0.143146
0.142907
0.142858
0.143022
0.143424
0.144067
0.14495
0.146061
0.147376
0.148842
0.150366
0.151787
0.152869
0.153229
0.152548
0.176054
0.1695
0.163923
0.159228
0.155424
0.152421
0.150099
0.148333
0.147009
0.146022
0.14529
0.144747
0.144344
0.144056
0.143895
0.143883
0.144032
0.144389
0.144977
0.145823
0.146957
0.148399
0.150153
0.1522
0.154482
0.156864
0.159123
0.160812
0.161277
0.165042
0.160191
0.156156
0.152867
0.150361
0.148556
0.14734
0.146585
0.146177
0.145997
0.145928
0.145927
0.145965
0.146033
0.14613
0.146288
0.146545
0.146961
0.147574
0.148445
0.149632
0.151187
0.15315
0.155545
0.158361
0.161518
0.164851
0.167862
0.169822
0.156275
0.152827
0.150123
0.148106
0.146824
0.146196
0.146111
0.146419
0.146978
0.147667
0.148397
0.149086
0.149684
0.150175
0.150566
0.150894
0.151214
0.151595
0.152113
0.15285
0.153895
0.155331
0.15724
0.159691
0.162736
0.166367
0.170546
0.174756
0.178428
0.149479
0.147185
0.145645
0.144806
0.144719
0.145287
0.146401
0.147873
0.149585
0.151383
0.153135
0.154733
0.156106
0.157224
0.158088
0.158729
0.15921
0.159612
0.160031
0.160573
0.161351
0.162483
0.164088
0.166286
0.169186
0.172876
0.1775
0.182559
0.18802
0.144363
0.143022
0.142519
0.142801
0.143909
0.145752
0.148182
0.151048
0.154168
0.15736
0.160467
0.163353
0.165912
0.168083
0.169842
0.171204
0.172223
0.172979
0.173574
0.174128
0.174769
0.175636
0.176876
0.178662
0.181134
0.184474
0.188972
0.194253
0.201072
0.140638
0.140094
0.140536
0.141912
0.144265
0.147483
0.151437
0.155934
0.160782
0.165776
0.170728
0.175463
0.179841
0.183758
0.187157
0.190024
0.192388
0.194317
0.195906
0.197271
0.198541
0.199855
0.201314
0.203148
0.205428
0.208534
0.212566
0.217868
0.224609
0.138038
0.138167
0.139493
0.141971
0.145627
0.15037
0.156049
0.162475
0.169445
0.17674
0.184145
0.191457
0.1985
0.205136
0.211271
0.216866
0.221928
0.226513
0.230714
0.234654
0.238471
0.242316
0.246325
0.250586
0.255014
0.26044
0.265514
0.273851
0.27607
0.136325
0.137028
0.139207
0.142795
0.147843
0.154251
0.161882
0.170558
0.180076
0.190219
0.200761
0.211487
0.222203
0.23275
0.24302
0.252966
0.262599
0.271997
0.281292
0.290669
0.300356
0.310616
0.321736
0.334097
0.347673
0.363753
0.378585
0.405221
0.398766
0.135289
0.136491
0.139502
0.144227
0.15074
0.158955
0.168759
0.179994
0.19248
0.206019
0.220399
0.235418
0.250889
0.266668
0.282667
0.298869
0.31534
0.332238
0.349812
0.368415
0.388508
0.410671
0.435652
0.464423
0.498
0.539417
0.585964
0.662878
0.654248
0.134763
0.136395
0.140231
0.146109
0.154155
0.164302
0.17647
0.190541
0.206375
0.223816
0.2427
0.262866
0.284181
0.306556
0.329976
0.354516
0.380366
0.407851
0.437447
0.469815
0.505852
0.54672
0.59409
0.650023
0.71791
0.802573
0.910441
1.06393
1.0956
0.134639
0.136637
0.141303
0.148341
0.157977
0.170157
0.184847
0.201984
0.221492
0.243284
0.267276
0.293397
0.321612
0.351954
0.384548
0.419646
0.457661
0.499202
0.545124
0.596587
0.655188
0.723011
0.803257
0.899681
1.02004
1.17086
1.37836
1.63143
1.80236
0.00099014
0.000990138
0.000990138
0.000990144
0.00099015
0.000990148
0.000990141
0.000990138
0.000990144
0.000990153
0.000990154
0.000990146
0.000990142
0.000990152
0.000990159
0.000990152
0.000990138
0.000990134
0.000990145
0.00099015
0.000990142
0.000990127
0.000990122
0.000990131
0.000990143
0.000990146
0.000990148
0.000990151
0.000990144
0.000990132
0.000990125
0.000990126
0.000990141
0.000990145
0.000990145
0.000990144
0.000990144
0.000990144
0.000990144
0.000990144
0.000990144
0.000990144
0.000990145
0.000990145
0.000990146
0.000990146
0.000990146
0.000990146
0.000990146
0.000990146
0.000990146
0.000990146
0.000990147
0.000990147
0.000990147
0.000990147
0.000990148
0.000990148
0.000990149
0.000990149
0.000990149
0.000990149
0.00099015
0.00099015
0.00099015
0.000990151
0.000990151
0.000990152
0.000990151
0.000990152
0.000990152
0.000990152
0.000990154
0.000990152
0.000990154
0.000990153
0.000990154
0.000990155
0.000990155
0.000990155
0.000990157
0.000990158
0.000990158
0.000990157
0.000990156
0.000990157
0.000990154
0.000990154
0.000990157
0.000990158
0.000990158
0.000990158
0.000990157
0.000990157
0.000990158
0.000990158
0.000990158
0.000990158
0.000990158
0.000990158
0.000990159
0.000990159
0.000990159
0.000990159
0.000990159
0.000990159
0.000990159
0.000990159
0.000990159
0.000990159
0.000990159
0.000990159
0.000990159
0.000990159
0.000990159
0.000990159
0.000990159
0.000990159
0.000990159
0.000990159
0.000990159
0.000990159
0.000990159
0.000990159
0.000990159
0.000990159
0.000990159
0.00099016
0.00099016
0.00099016
0.000990161
0.000990163
0.000990163
0.000990166
0.000990165
0.00099017
0.000990167
0.000990178
0.00100814
4.09897e-005
4.09866e-005
4.0988e-005
4.09974e-005
4.10047e-005
4.09996e-005
4.09896e-005
4.0988e-005
4.09981e-005
4.10101e-005
4.10095e-005
4.09971e-005
4.0993e-005
4.10087e-005
4.10183e-005
4.10065e-005
4.09871e-005
4.09817e-005
4.09971e-005
4.10025e-005
4.09894e-005
4.097e-005
4.09653e-005
4.09797e-005
4.09956e-005
4.09991e-005
4.10017e-005
4.10047e-005
4.0994e-005
4.09781e-005
4.09695e-005
4.09734e-005
4.09947e-005
4.09991e-005
4.09984e-005
4.0998e-005
4.09978e-005
4.09977e-005
4.09976e-005
4.09976e-005
4.09978e-005
4.09982e-005
4.0999e-005
4.09998e-005
4.10005e-005
4.10009e-005
4.10011e-005
4.1001e-005
4.10013e-005
4.10014e-005
4.10017e-005
4.1002e-005
4.10024e-005
4.10029e-005
4.10034e-005
4.10038e-005
4.10045e-005
4.10049e-005
4.10056e-005
4.10059e-005
4.10065e-005
4.10071e-005
4.10074e-005
4.10082e-005
4.10084e-005
4.10091e-005
4.10093e-005
4.10105e-005
4.10103e-005
4.10111e-005
4.10116e-005
4.10112e-005
4.10136e-005
4.10122e-005
4.1014e-005
4.10135e-005
4.10141e-005
4.10157e-005
4.10158e-005
4.1015e-005
4.10181e-005
4.10206e-005
4.10198e-005
4.10188e-005
4.10183e-005
4.10192e-005
4.10151e-005
4.10145e-005
4.10191e-005
4.10207e-005
4.10207e-005
4.10202e-005
4.10199e-005
4.102e-005
4.10203e-005
4.10203e-005
4.1021e-005
4.10208e-005
4.10213e-005
4.10214e-005
4.10215e-005
4.10216e-005
4.10217e-005
4.10218e-005
4.10218e-005
4.10218e-005
4.10216e-005
4.10217e-005
4.10215e-005
4.10216e-005
4.10215e-005
4.10216e-005
4.10215e-005
4.10216e-005
4.10215e-005
4.10216e-005
4.10215e-005
4.10214e-005
4.10214e-005
4.10214e-005
4.10213e-005
4.10212e-005
4.10212e-005
4.10211e-005
4.10212e-005
4.10213e-005
4.10216e-005
4.10224e-005
4.10219e-005
4.10233e-005
4.10239e-005
4.10272e-005
4.10259e-005
4.10327e-005
4.10286e-005
4.1036e-005
4.1039e-005
4.1066e-005
4.46139e-005
3.38046e-006
3.38078e-006
3.38169e-006
3.38279e-006
3.38206e-006
3.38022e-006
3.37999e-006
3.38202e-006
3.38427e-006
3.3841e-006
3.38164e-006
3.38038e-006
3.38227e-006
3.38503e-006
3.38491e-006
3.38248e-006
3.3809e-006
3.38141e-006
3.38226e-006
3.38129e-006
3.3792e-006
3.37931e-006
3.38076e-006
3.38327e-006
3.38335e-006
3.38337e-006
3.38368e-006
3.3831e-006
3.38097e-006
3.38069e-006
3.38139e-006
3.38405e-006
3.38519e-006
3.38457e-006
3.38469e-006
3.38483e-006
3.38493e-006
3.38501e-006
3.38511e-006
3.38523e-006
3.38538e-006
3.38557e-006
3.38578e-006
3.38598e-006
3.38614e-006
3.38625e-006
3.38634e-006
3.3864e-006
3.3865e-006
3.3866e-006
3.38672e-006
3.38683e-006
3.38697e-006
3.38711e-006
3.38725e-006
3.38739e-006
3.38755e-006
3.38769e-006
3.38785e-006
3.38799e-006
3.38814e-006
3.38829e-006
3.38843e-006
3.38858e-006
3.38873e-006
3.38887e-006
3.38903e-006
3.38916e-006
3.38931e-006
3.38947e-006
3.38959e-006
3.38975e-006
3.38992e-006
3.39e-006
3.3902e-006
3.39038e-006
3.39026e-006
3.39048e-006
3.3905e-006
3.39012e-006
3.39048e-006
3.39054e-006
3.39073e-006
3.39105e-006
3.39123e-006
3.39102e-006
3.39053e-006
3.39082e-006
3.39093e-006
3.39117e-006
3.39153e-006
3.39157e-006
3.39157e-006
3.39163e-006
3.39168e-006
3.39168e-006
3.39174e-006
3.39172e-006
3.39175e-006
3.39176e-006
3.39176e-006
3.39177e-006
3.39176e-006
3.39177e-006
3.39174e-006
3.39173e-006
3.39168e-006
3.39166e-006
3.39159e-006
3.39154e-006
3.39147e-006
3.39141e-006
3.39133e-006
3.39124e-006
3.39118e-006
3.39106e-006
3.39101e-006
3.39088e-006
3.39082e-006
3.3907e-006
3.39061e-006
3.39047e-006
3.39035e-006
3.39023e-006
3.39011e-006
3.38997e-006
3.38996e-006
3.38973e-006
3.38974e-006
3.39007e-006
3.38941e-006
3.39008e-006
3.39004e-006
3.39035e-006
3.38928e-006
3.40489e-006
3.31549e-006
3.08186e-006
5.97383e-006
5.32797e-007
5.3286e-007
5.33036e-007
5.33063e-007
5.32859e-007
5.32866e-007
5.33251e-007
5.33658e-007
5.33619e-007
5.33233e-007
5.33007e-007
5.33318e-007
5.33859e-007
5.34036e-007
5.33776e-007
5.33313e-007
5.33291e-007
5.33465e-007
5.33562e-007
5.33549e-007
5.33472e-007
5.33561e-007
5.33703e-007
5.33883e-007
5.33986e-007
5.34121e-007
5.34175e-007
5.34085e-007
5.33981e-007
5.34035e-007
5.34038e-007
5.34368e-007
5.34368e-007
5.34481e-007
5.3456e-007
5.34611e-007
5.34658e-007
5.34704e-007
5.34754e-007
5.34809e-007
5.34868e-007
5.34932e-007
5.34992e-007
5.35043e-007
5.35091e-007
5.35144e-007
5.35193e-007
5.35248e-007
5.35299e-007
5.35352e-007
5.35403e-007
5.35456e-007
5.35511e-007
5.35566e-007
5.3562e-007
5.3568e-007
5.35733e-007
5.35793e-007
5.35847e-007
5.35905e-007
5.35961e-007
5.36012e-007
5.36074e-007
5.3612e-007
5.36179e-007
5.36224e-007
5.36287e-007
5.36319e-007
5.36385e-007
5.36424e-007
5.36459e-007
5.36538e-007
5.36552e-007
5.36609e-007
5.36625e-007
5.36686e-007
5.36647e-007
5.36676e-007
5.3672e-007
5.36693e-007
5.36773e-007
5.36756e-007
5.36826e-007
5.36895e-007
5.37003e-007
5.36951e-007
5.36904e-007
5.36944e-007
5.36959e-007
5.3703e-007
5.37122e-007
5.37151e-007
5.37199e-007
5.37241e-007
5.37264e-007
5.37276e-007
5.37283e-007
5.37289e-007
5.37296e-007
5.37302e-007
5.37305e-007
5.37308e-007
5.37309e-007
5.3731e-007
5.37307e-007
5.37303e-007
5.37294e-007
5.37286e-007
5.37272e-007
5.37251e-007
5.37228e-007
5.37197e-007
5.37169e-007
5.37128e-007
5.37107e-007
5.37066e-007
5.37038e-007
5.36991e-007
5.36958e-007
5.36908e-007
5.36861e-007
5.36797e-007
5.36735e-007
5.36668e-007
5.36597e-007
5.3649e-007
5.36425e-007
5.36333e-007
5.36201e-007
5.36102e-007
5.36325e-007
5.36112e-007
5.35373e-007
5.45633e-007
5.40292e-007
4.54706e-007
9.60026e-007
0.000107001
0.0115188
1.46062e-007
1.46124e-007
1.46163e-007
1.46163e-007
1.46176e-007
1.46247e-007
1.46314e-007
1.46316e-007
1.4627e-007
1.46264e-007
1.46324e-007
1.4642e-007
1.46456e-007
1.46431e-007
1.46364e-007
1.46338e-007
1.46393e-007
1.46462e-007
1.46538e-007
1.46552e-007
1.4657e-007
1.46581e-007
1.4662e-007
1.46666e-007
1.46723e-007
1.46747e-007
1.46778e-007
1.46783e-007
1.4677e-007
1.46752e-007
1.46791e-007
1.46876e-007
1.46934e-007
1.46975e-007
1.47e-007
1.47027e-007
1.47053e-007
1.47078e-007
1.47104e-007
1.4713e-007
1.47158e-007
1.47184e-007
1.47207e-007
1.47228e-007
1.4725e-007
1.47278e-007
1.47305e-007
1.47335e-007
1.47361e-007
1.47389e-007
1.47418e-007
1.47447e-007
1.47474e-007
1.47501e-007
1.47527e-007
1.47556e-007
1.4758e-007
1.47608e-007
1.47632e-007
1.47659e-007
1.47684e-007
1.47708e-007
1.47735e-007
1.47756e-007
1.47782e-007
1.47803e-007
1.47828e-007
1.47846e-007
1.47872e-007
1.4789e-007
1.47907e-007
1.47938e-007
1.47946e-007
1.47974e-007
1.47983e-007
1.48003e-007
1.48012e-007
1.48019e-007
1.4804e-007
1.48041e-007
1.48067e-007
1.48075e-007
1.48091e-007
1.48124e-007
1.48142e-007
1.48145e-007
1.4814e-007
1.48166e-007
1.48183e-007
1.48197e-007
1.48226e-007
1.48253e-007
1.48275e-007
1.48286e-007
1.4829e-007
1.483e-007
1.48304e-007
1.48316e-007
1.48319e-007
1.48326e-007
1.48329e-007
1.48333e-007
1.48334e-007
1.48335e-007
1.48335e-007
1.48332e-007
1.48331e-007
1.48324e-007
1.48319e-007
1.48307e-007
1.48296e-007
1.48275e-007
1.4826e-007
1.48234e-007
1.4822e-007
1.48198e-007
1.4818e-007
1.48157e-007
1.48139e-007
1.48116e-007
1.48094e-007
1.48065e-007
1.48038e-007
1.48008e-007
1.47977e-007
1.47973e-007
1.48014e-007
1.47822e-007
1.47622e-007
1.48358e-007
1.47158e-007
1.4754e-007
1.50948e-007
1.18456e-007
1.31996e-007
8.41476e-007
8.91758e-005
0.00726203
0.116674
6.0604e-008
6.06261e-008
6.06404e-008
6.06499e-008
6.06592e-008
6.06721e-008
6.06865e-008
6.06998e-008
6.07148e-008
6.07327e-008
6.07448e-008
6.07578e-008
6.07786e-008
6.07848e-008
6.07814e-008
6.07999e-008
6.08246e-008
6.08672e-008
6.09066e-008
6.09117e-008
6.09101e-008
6.09159e-008
6.09458e-008
6.09867e-008
6.10189e-008
6.10275e-008
6.10342e-008
6.1031e-008
6.10195e-008
6.10229e-008
6.10534e-008
6.10978e-008
6.11334e-008
6.1149e-008
6.11636e-008
6.11806e-008
6.11981e-008
6.12152e-008
6.12323e-008
6.12495e-008
6.1266e-008
6.12812e-008
6.12947e-008
6.13082e-008
6.13233e-008
6.13402e-008
6.1357e-008
6.13754e-008
6.13951e-008
6.1415e-008
6.14315e-008
6.14474e-008
6.14636e-008
6.14799e-008
6.14963e-008
6.15128e-008
6.15279e-008
6.15438e-008
6.15586e-008
6.15739e-008
6.15887e-008
6.16031e-008
6.16183e-008
6.16318e-008
6.16466e-008
6.166e-008
6.1674e-008
6.16871e-008
6.1701e-008
6.17133e-008
6.17253e-008
6.17415e-008
6.17498e-008
6.17682e-008
6.17743e-008
6.17888e-008
6.17971e-008
6.18066e-008
6.18199e-008
6.18322e-008
6.18468e-008
6.18494e-008
6.18587e-008
6.18689e-008
6.18806e-008
6.18834e-008
6.18927e-008
6.19033e-008
6.19041e-008
6.19111e-008
6.19242e-008
6.19322e-008
6.19356e-008
6.19411e-008
6.19513e-008
6.19632e-008
6.19685e-008
6.19761e-008
6.19796e-008
6.19843e-008
6.1988e-008
6.19916e-008
6.19939e-008
6.19955e-008
6.19965e-008
6.19959e-008
6.19961e-008
6.1993e-008
6.19909e-008
6.19852e-008
6.19801e-008
6.197e-008
6.19629e-008
6.19516e-008
6.19441e-008
6.19335e-008
6.19235e-008
6.19115e-008
6.19007e-008
6.18885e-008
6.18753e-008
6.18589e-008
6.18424e-008
6.18229e-008
6.1798e-008
6.16778e-008
6.1522e-008
6.17806e-008
6.18874e-008
6.06852e-008
6.23673e-008
6.22096e-008
5.37779e-008
1.15563e-007
2.39561e-006
0.000170077
0.00733585
0.0908065
0.438051
3.31455e-008
3.3163e-008
3.31699e-008
3.31711e-008
3.3177e-008
3.31904e-008
3.32042e-008
3.32165e-008
3.32265e-008
3.32329e-008
3.3239e-008
3.32499e-008
3.32637e-008
3.32677e-008
3.32743e-008
3.32898e-008
3.33133e-008
3.33292e-008
3.33366e-008
3.33481e-008
3.33634e-008
3.33841e-008
3.3397e-008
3.34066e-008
3.34188e-008
3.34337e-008
3.34405e-008
3.34431e-008
3.34505e-008
3.34673e-008
3.34834e-008
3.35008e-008
3.35109e-008
3.3521e-008
3.35364e-008
3.35515e-008
3.35648e-008
3.35773e-008
3.35897e-008
3.36021e-008
3.3614e-008
3.36251e-008
3.36358e-008
3.36473e-008
3.36595e-008
3.36734e-008
3.36885e-008
3.37035e-008
3.37134e-008
3.37217e-008
3.37316e-008
3.37449e-008
3.37581e-008
3.37704e-008
3.37823e-008
3.3794e-008
3.38049e-008
3.38163e-008
3.38271e-008
3.38382e-008
3.38487e-008
3.38595e-008
3.38701e-008
3.38806e-008
3.38909e-008
3.39012e-008
3.39111e-008
3.39211e-008
3.39307e-008
3.39408e-008
3.39493e-008
3.39608e-008
3.39674e-008
3.39792e-008
3.39841e-008
3.39937e-008
3.39978e-008
3.40032e-008
3.40117e-008
3.40207e-008
3.40301e-008
3.4034e-008
3.40425e-008
3.40491e-008
3.40602e-008
3.40637e-008
3.40682e-008
3.40782e-008
3.40835e-008
3.40909e-008
3.40952e-008
3.41002e-008
3.4107e-008
3.41167e-008
3.41238e-008
3.41286e-008
3.41299e-008
3.41328e-008
3.41347e-008
3.41386e-008
3.41398e-008
3.41424e-008
3.41432e-008
3.41443e-008
3.4145e-008
3.41445e-008
3.41452e-008
3.41429e-008
3.41418e-008
3.41386e-008
3.41362e-008
3.4131e-008
3.41273e-008
3.4122e-008
3.41171e-008
3.41112e-008