/*--------------------------------*- C++ -*----------------------------------*\
| =========                 |                                                 |
| \\      /  F ield         | OpenFOAM: The Open Source CFD Toolbox           |
|  \\    /   O peration     | Version:  5.x                                   |
|   \\  /    A nd           | Web:      www.OpenFOAM.org                      |
|    \\/     M anipulation  |                                                 |
\*---------------------------------------------------------------------------*/
/*   Windows 32 and 64 bit porting by blueCAPE: http://www.bluecape.com.pt   *\
|  Based on Windows porting (2.0.x v4) by Symscape: http://www.symscape.com   |
\*---------------------------------------------------------------------------*/
FoamFile
{
    version     2.0;
    format      ascii;
    class       volScalarField;
    location    "340";
    object      nut;
}
// * * * * * * * * * * * * * * * * * * * * * * * * * * * * * * * * * * * * * //

dimensions      [0 2 -1 0 0 0 0];

internalField   nonuniform List<scalar> 
43900
(
5.716e-005
5.80007e-005
5.80694e-005
5.80643e-005
5.80595e-005
5.80585e-005
5.80589e-005
5.80589e-005
5.8059e-005
5.80593e-005
5.80593e-005
5.80596e-005
5.80598e-005
5.80597e-005
5.80599e-005
5.80601e-005
5.80598e-005
5.80599e-005
5.80601e-005
5.80601e-005
5.80603e-005
5.80603e-005
5.80603e-005
5.80603e-005
5.80601e-005
5.80601e-005
5.80604e-005
5.80606e-005
5.80606e-005
0.000591726
7.3943e-006
4.30793e-006
4.16129e-006
4.57974e-006
4.60599e-006
4.60905e-006
4.60384e-006
4.60373e-006
4.6044e-006
4.60451e-006
4.60531e-006
4.60574e-006
4.60568e-006
4.60625e-006
4.60646e-006
4.606e-006
4.60626e-006
4.60677e-006
4.60682e-006
4.60709e-006
4.60713e-006
4.60721e-006
4.60727e-006
4.60693e-006
4.6071e-006
4.6077e-006
4.60791e-006
4.60787e-006
0.153488
0.0456394
0.00523011
0.000108903
1.31891e-006
6.44604e-007
6.01865e-007
7.14152e-007
7.2516e-007
7.23495e-007
7.21802e-007
7.21858e-007
7.22344e-007
7.22622e-007
7.22773e-007
7.22803e-007
7.22918e-007
7.23175e-007
7.2324e-007
7.23291e-007
7.23381e-007
7.23419e-007
7.23547e-007
7.23658e-007
7.23731e-007
7.23855e-007
7.23903e-007
7.23826e-007
7.2388e-007
0.47594
0.291833
0.134072
0.0387271
0.00466064
0.000180909
4.2507e-006
2.56918e-007
1.7413e-007
1.93737e-007
2.13801e-007
2.1547e-007
2.12554e-007
2.11775e-007
2.12264e-007
2.12418e-007
2.12345e-007
2.12413e-007
2.12501e-007
2.12554e-007
2.12583e-007
2.12627e-007
2.12705e-007
2.12733e-007
2.12744e-007
2.12782e-007
2.12793e-007
2.12836e-007
2.12898e-007
0.757117
0.58179
0.414325
0.249338
0.10706
0.026825
0.00272545
0.000132077
3.1121e-006
2.14551e-007
9.05545e-008
8.36501e-008
1.02267e-007
1.06114e-007
1.03182e-007
1.02739e-007
1.03726e-007
1.03757e-007
1.03464e-007
1.03509e-007
1.03529e-007
1.03519e-007
1.03549e-007
1.0358e-007
1.03601e-007
1.03623e-007
1.03637e-007
1.03661e-007
1.0367e-007
0.966792
0.798756
0.642478
0.49073
0.338892
0.188238
0.0685413
0.0125632
0.000951787
4.77959e-005
1.44173e-006
1.55311e-007
6.39045e-008
6.08101e-008
7.22523e-008
7.24271e-008
6.89062e-008
6.9408e-008
7.06054e-008
7.03371e-008
7.03178e-008
7.04611e-008
7.0477e-008
7.0472e-008
7.05174e-008
7.05462e-008
7.05449e-008
7.05518e-008
7.05703e-008
1.12563
0.963335
0.81505
0.674517
0.536717
0.397655
0.254565
0.113145
0.0293286
0.00327285
0.000201596
1.06212e-005
4.00785e-007
8.35589e-008
4.95686e-008
5.33838e-008
6.26111e-008
5.924e-008
5.70101e-008
5.81917e-008
5.82013e-008
5.78224e-008
5.7812e-008
5.78157e-008
5.77484e-008
5.77694e-008
5.78189e-008
5.78342e-008
5.78326e-008
1.24353
1.08573
0.943164
0.810258
0.682382
0.555746
0.427651
0.297875
0.162391
0.0533388
0.00833543
0.000626694
3.81461e-005
2.08977e-006
1.35831e-007
5.6428e-008
4.29393e-008
5.10488e-008
5.34362e-008
5.04108e-008
5.09422e-008
5.20416e-008
5.20092e-008
5.207e-008
5.21604e-008
5.20286e-008
5.19335e-008
5.20052e-008
5.20656e-008
1.3378
1.18385
1.04571
0.918331
0.797509
0.679732
0.56218
0.442744
0.319533
0.192567
0.0723348
0.0138538
0.00124296
8.4573e-005
5.49268e-006
3.31244e-007
7.36708e-008
4.7243e-008
4.60583e-008
5.23787e-008
4.95367e-008
4.81184e-008
4.86077e-008
4.85812e-008
4.86833e-008
4.90292e-008
4.9061e-008
4.88669e-008
4.87951e-008
1.40197
1.25374
1.12088
0.999435
0.885473
0.775663
0.667229
0.557909
0.44592
0.330134
0.210772
0.0856311
0.0185259
0.00190332
0.000142977
1.03428e-005
7.33509e-007
8.4044e-008
5.02324e-008
4.14104e-008
4.74842e-008
4.79829e-008
4.6489e-008
4.68195e-008
4.67896e-008
4.6499e-008
4.66219e-008
4.70097e-008
4.6998e-008
1.4459
1.30055
1.1727
1.05651
0.94863
0.845867
0.745516
0.645318
0.543452
0.438583
0.329987
0.21806
0.0924835
0.0213946
0.00242027
0.000199475
1.58693e-005
1.24393e-006
1.23913e-007
5.82916e-008
4.24673e-008
4.43744e-008
4.70783e-008
4.53083e-008
4.52823e-008
4.5507e-008
4.53687e-008
4.53056e-008
4.55239e-008
1.48456
1.34224
1.21694
1.10424
1.00036
0.902473
0.808005
0.714743
0.620851
0.524891
0.425858
0.323294
0.217712
0.0963547
0.0231023
0.0028023
0.000251252
2.17648e-005
1.88224e-006
1.90888e-007
5.83291e-008
4.52082e-008
4.32846e-008
4.70912e-008
4.61696e-008
4.51552e-008
4.51796e-008
4.50693e-008
4.46943e-008
1.51201
1.3732
1.25074
1.14177
1.04173
0.948129
0.858605
0.771054
0.683694
0.595065
0.504048
0.409882
0.31219
0.210915
0.095002
0.023079
0.00296445
0.000290403
2.75636e-005
2.63428e-006
2.72742e-007
6.24287e-008
4.71933e-008
4.12545e-008
4.45943e-008
4.56721e-008
4.51551e-008
4.50998e-008
4.50064e-008
1.53058
1.39596
1.27676
1.17025
1.07443
0.98478
0.899663
0.817082
0.735319
0.652938
0.568779
0.481968
0.391899
0.298198
0.200672
0.0884203
0.0212763
0.00286222
0.000306506
3.19281e-005
3.34591e-006
3.67106e-007
7.40456e-008
5.06317e-008
4.10741e-008
4.22267e-008
4.44751e-008
4.42719e-008
4.44695e-008
1.54201
1.41105
1.29617
1.19282
1.09934
1.01415
0.933049
0.854894
0.778039
0.701086
0.622881
0.542507
0.459277
0.372716
0.282541
0.188813
0.0785308
0.0184278
0.00258488
0.000302176
3.45217e-005
3.96128e-006
4.73383e-007
9.06953e-008
4.97544e-008
4.28115e-008
4.14247e-008
4.32783e-008
4.31685e-008
1.54773
1.42049
1.30905
1.21006
1.11959
1.03685
0.960149
0.886087
0.813683
0.741585
0.668659
0.593983
0.516841
0.436704
0.353221
0.266244
0.17613
0.0700694
0.0160361
0.00235486
0.000299749
3.74852e-005
4.70904e-006
6.14059e-007
1.09785e-007
4.97925e-008
4.38718e-008
3.99796e-008
4.11921e-008
1.54886
1.42542
1.31746
1.22177
1.13565
1.05561
0.981677
0.911773
0.84349
0.775855
0.707758
0.638281
0.56669
0.492425
0.415084
0.334406
0.250256
0.162347
0.0620266
0.0140058
0.00217162
0.000300665
4.09722e-005
5.59577e-006
7.85092e-007
1.35725e-007
5.40119e-008
4.56931e-008
4.02306e-008
1.54622
1.42665
1.32222
1.22985
1.14695
1.07129
1.00005
0.933264
0.868626
0.804915
0.741084
0.676229
0.609612
0.540649
0.468898
0.394041
0.315846
0.234074
0.148223
0.0545015
0.0122551
0.00201073
0.000301029
4.43752e-005
6.55085e-006
9.86399e-007
1.73031e-007
6.13246e-008
4.5908e-008
1.54053
1.42489
1.32403
1.23498
1.15527
1.08277
1.01541
0.951581
0.890873
0.830756
0.770758
0.710012
0.647799
0.583538
0.516771
0.447153
0.374419
0.298345
0.218628
0.134497
0.047778
0.0108099
0.00188381
0.00030481
4.86269e-005
7.75444e-006
1.25481e-006
2.27689e-007
7.04066e-008
1.53232
1.42068
1.32343
1.23771
1.16113
1.09166
1.0275
0.966542
0.90839
0.852089
0.795875
0.739109
0.681096
0.621266
0.559163
0.494433
0.426801
0.356047
0.281947
0.204136
0.121612
0.0420217
0.0096728
0.00179543
0.000313425
5.396e-005
9.26784e-006
1.60685e-006
2.97492e-007
1.52206
1.41449
1.32088
1.23851
1.1651
1.0987
1.03761
0.980396
0.925227
0.871906
0.818916
0.765612
0.711306
0.655431
0.597527
0.537228
0.474248
0.40836
0.339365
0.267033
0.190937
0.109894
0.037219
0.00879039
0.00173838
0.000325985
6.0271e-005
1.11007e-005
2.0195e-006
1.5101
1.40664
1.31673
1.23772
1.16742
1.10397
1.0457
0.991192
0.938973
0.888354
0.838773
0.788848
0.738091
0.685954
0.631989
0.575832
0.517192
0.455838
0.391579
0.324235
0.253571
0.179108
0.0991804
0.0331898
0.00809868
0.00170414
0.000342347
6.77009e-005
1.30356e-005
1.49673
1.39744
1.31124
1.23561
1.16846
1.10797
1.05261
1.00104
0.952133
0.904501
0.857719
0.81077
0.763166
0.714376
0.66396
0.611556
0.55687
0.499667
0.439754
0.376967
0.311143
0.242064
0.169353
0.0875534
0.0292734
0.00743401
0.00166507
0.000357502
7.38939e-005
1.48216
1.38707
1.30462
1.23238
1.16834
1.11077
1.05817
1.00922
0.962762
0.917643
0.873516
0.829709
0.78533
0.739879
0.692936
0.644153
0.593244
0.539976
0.484157
0.425631
0.364259
0.2999
0.23238
0.162154
0.0774754
0.0260159
0.00688953
0.00164077
0.000367648
1.46654
1.37569
1.29701
1.22818
1.16727
1.11261
1.06279
1.01656
0.972875
0.930856
0.889498
0.848507
0.806786
0.764192
0.720303
0.674767
0.627291
0.577634
0.525597
0.471017
0.413758
0.353699
0.290733
0.224899
0.156564
0.0715204
0.0242052
0.00667063
0.00163929
1.45001
1.36342
1.28854
1.22313
1.16534
1.11358
1.0665
1.02292
0.981823
0.942348
0.903474
0.864896
0.826105
0.786479
0.745639
0.703262
0.659075
0.612846
0.56438
0.513514
0.46011
0.404054
0.345249
0.283649
0.219304
0.152003
0.0685617
0.0235432
0.00659145
1.43265
1.35035
1.27929
1.2173
1.16262
1.11375
1.06937
1.02835
0.989718
0.952606
0.916242
0.880194
0.844099
0.807221
0.76925
0.729867
0.688801
0.645824
0.600741
0.553388
0.503626
0.451336
0.396421
0.338806
0.278444
0.215199
0.148634
0.0672291
0.0231262
1.41455
1.33656
1.26931
1.21075
1.15919
1.11319
1.07151
1.03306
0.996941
0.962378
0.928745
0.8952
0.861603
0.827178
0.791804
0.755163
0.716983
0.677032
0.635111
0.591051
0.544708
0.495956
0.444692
0.390826
0.334281
0.274945
0.212583
0.147254
0.0661569
1.39577
1.32209
1.25868
1.20355
1.1551
1.11195
1.07292
1.03699
1.00329
0.97105
0.939637
0.908383
0.877037
0.845296
0.812624
0.778741
0.743401
0.706386
0.667507
0.626597
0.58351
0.538119
0.490314
0.439999
0.387084
0.331473
0.273053
0.211621
0.145836
1.37636
1.30699
1.24741
1.19571
1.15037
1.11006
1.07368
1.04023
1.00891
0.978983
0.949842
0.920933
0.89198
0.862669
0.832457
0.801134
0.768455
0.734208
0.698203
0.660273
0.62027
0.578062
0.533532
0.486578
0.437104
0.385019
0.330231
0.272592
0.212257
1.35635
1.29129
1.23555
1.18727
1.14502
1.10755
1.07379
1.04282
1.01388
0.98629
0.959517
0.933127
0.906437
0.879436
0.851487
0.822549
0.792369
0.760729
0.727438
0.692325
0.655238
0.61604
0.574609
0.530834
0.484615
0.435859
0.384477
0.330373
0.273415
1.33576
1.275
1.22308
1.17822
1.13905
1.1044
1.07326
1.04475
1.01814
0.992811
0.968224
0.943916
0.919411
0.894516
0.869064
0.842612
0.81495
0.785884
0.755236
0.722841
0.688552
0.652231
0.613751
0.573
0.52987
0.484265
0.436094
0.385267
0.331632
1.31459
1.25811
1.21
1.16854
1.13245
1.10061
1.07207
1.04601
1.02173
0.99864
0.976242
0.954083
0.931741
0.909146
0.885968
0.861846
0.836575
0.809967
0.781849
0.752059
0.720447
0.686873
0.651209
0.613334
0.573138
0.530519
0.48538
0.437629
0.387149
1.29281
1.24058
1.19625
1.15819
1.12516
1.09613
1.07019
1.04657
1.02462
1.0038
0.983633
0.963747
0.943846
0.923414
0.90252
0.880508
0.857473
0.833203
0.807507
0.780215
0.751172
0.720231
0.687258
0.652127
0.614722
0.574933
0.53266
0.487805
0.44027
1.27037
1.22236
1.18179
1.14709
1.11712
1.09089
1.06755
1.04638
1.02677
1.0082
0.990244
0.972531
0.954751
0.936501
0.917635
0.898045
0.877402
0.855531
0.832266
0.807446
0.780919
0.752539
0.722169
0.689678
0.654942
0.617849
0.578289
0.536163
0.491377
1.24722
1.20337
1.16652
1.13517
1.10824
1.0848
1.06406
1.04534
1.02808
1.01179
0.996052
0.980516
0.964843
0.948666
0.932135
0.914914
0.896643
0.877166
0.856323
0.833959
0.809921
0.784061
0.756236
0.72631
0.694152
0.659641
0.622664
0.583114
0.540899
1.22329
1.18354
1.15037
1.12232
1.0984
1.07775
1.05961
1.04336
1.02846
1.01447
1.00101
0.987742
0.974392
0.960741
0.946438
0.931499
0.915471
0.898331
0.879891
0.859979
0.838428
0.81508
0.789781
0.762383
0.732746
0.700739
0.666238
0.629133
0.589326
1.19855
1.16281
1.13325
1.10847
1.08753
1.06963
1.05409
1.04031
1.02779
1.01614
1.00497
0.994008
0.982983
0.971702
0.959724
0.947123
0.933538
0.918876
0.90295
0.88558
0.866593
0.84582
0.823094
0.798253
0.771141
0.741611
0.709528
0.674769
0.637232
1.17298
1.14116
1.11514
1.09356
1.07556
1.06039
1.04742
1.0361
1.02598
1.01666
1.00783
0.999182
0.990471
0.981439
0.971753
0.961605
0.950721
0.938722
0.925462
0.910777
0.894493
0.876429
0.856402
0.834228
0.809729
0.782734
0.753084
0.720638
0.685284
1.1467
1.11869
1.09611
1.07765
1.06252
1.05004
1.03961
1.03074
1.02299
1.01602
1.00952
1.00322
0.99689
0.990317
0.98331
0.975641
0.967301
0.957923
0.947391
0.935512
0.922089
0.906917
0.889785
0.870479
0.848785
0.824493
0.797406
0.76735
0.734184
1.11993
1.09559
1.07634
1.06092
1.0486
1.03875
1.03082
1.02434
1.01894
1.01428
1.01009
1.00611
1.00215
0.998019
0.993592
0.98841
0.982804
0.976094
0.968389
0.959456
0.949074
0.937013
0.923032
0.906877
0.888286
0.866995
0.842747
0.81531
0.784491
1.09307
1.07225
1.05621
1.04374
1.03415
1.02687
1.02137
1.01724
1.01411
1.01169
1.00971
1.00795
1.00624
1.0044
1.00224
0.999458
0.996317
0.992559
0.987816
0.981951
0.974764
0.966022
0.95546
0.942782
0.927672
0.909795
0.888813
0.864401
0.836283
1.06675
1.04928
1.03633
1.02671
1.01977
1.01498
1.01183
1.00994
1.00896
1.0086
1.00864
1.00888
1.00917
1.00938
1.00938
1.00913
1.00816
1.00682
1.00481
1.00193
0.99795
0.992636
0.985697
0.976802
0.965575
0.951596
0.934423
0.91361
0.88875
1.04176
1.02748
1.0175
1.01062
1.00625
1.00384
1.00291
1.00307
1.00399
1.00539
1.00707
1.00888
1.01069
1.01243
1.01403
1.01542
1.0164
1.01724
1.01768
1.01754
1.01662
1.01469
1.01145
1.00656
0.99957
0.989985
0.977231
0.960716
0.939852
1.0191
1.0078
1.00065
0.996407
0.994465
0.994261
0.995304
0.997177
0.999547
1.00216
1.00483
1.00746
1.01
1.01242
1.01476
1.01699
1.01909
1.02145
1.02389
1.02602
1.0278
1.029
1.02937
1.02855
1.02608
1.02133
1.01361
1.00218
0.986208
0.999748
0.99124
0.986733
0.98494
0.985199
0.986889
0.98946
0.992458
0.995533
0.998447
1.00107
1.00338
1.00541
1.00729
1.00911
1.011
1.01364
1.01676
1.02013
1.0237
1.02755
1.03144
1.0351
1.03824
1.04049
1.04095
1.03873
1.03325
1.02327
0.984596
0.978615
0.9765
0.976857
0.978922
0.981961
0.985332
0.988515
0.991147
0.993025
0.994103
0.994501
0.994387
0.994077
0.994233
0.995423
0.997262
0.999361
1.00229
1.0061
1.01136
1.01726
1.02377
1.03064
1.03753
1.04345
1.04678
1.0484
1.04581
0.974172
0.970396
0.970297
0.972334
0.975578
0.979133
0.982226
0.984263
0.984896
0.983991
0.981624
0.978196
0.974677
0.971506
0.968704
0.96638
0.964928
0.964652
0.966005
0.969365
0.974719
0.981817
0.990518
1.0006
1.0117
1.02311
1.03404
1.04229
1.04669
0.968508
0.966532
0.967928
0.970976
0.974526
0.977477
0.978908
0.978153
0.974959
0.969318
0.962148
0.95401
0.945059
0.935661
0.926937
0.9194
0.913491
0.909893
0.908824
0.910451
0.914887
0.922082
0.931951
0.944351
0.959015
0.975468
0.992957
1.01077
1.02339
0.967071
0.966415
0.968661
0.971891
0.97469
0.975736
0.973993
0.968702
0.96016
0.948955
0.934577
0.918378
0.901409
0.884703
0.86915
0.85558
0.844506
0.836447
0.831549
0.830077
0.832213
0.838029
0.847535
0.860722
0.877502
0.89773
0.920908
0.946867
0.972307
0.968864
0.969016
0.97141
0.973932
0.974889
0.972759
0.966513
0.955791
0.940383
0.920633
0.897785
0.873149
0.848129
0.823774
0.801051
0.780777
0.763545
0.749778
0.73976
0.733733
0.731898
0.734416
0.741363
0.752904
0.769178
0.790555
0.817008
0.849075
0.887146
0.972665
0.973136
0.97502
0.976036
0.974226
0.968098
0.956513
0.93883
0.915508
0.887693
0.856783
0.824181
0.791383
0.759638
0.729939
0.703049
0.679509
0.659687
0.643826
0.632123
0.62477
0.621959
0.623721
0.630395
0.642264
0.66038
0.685455
0.718663
0.765172
0.977301
0.97769
0.978557
0.977511
0.972472
0.961766
0.944154
0.919727
0.889321
0.85422
0.816153
0.776784
0.737641
0.699956
0.664647
0.632355
0.603491
0.578298
0.556912
0.539427
0.525946
0.51661
0.511083
0.510122
0.514145
0.52422
0.541717
0.56724
0.612301
0.981863
0.9819
0.981491
0.978169
0.969699
0.954364
0.931422
0.901167
0.864796
0.823985
0.780642
0.736541
0.693177
0.651687
0.612851
0.577151
0.544843
0.516021
0.490681
0.468779
0.450271
0.43515
0.422964
0.414316
0.409162
0.408802
0.414803
0.425572
0.458776
0.985799
0.985365
0.983667
0.9781
0.966507
0.947298
0.920024
0.885339
0.844763
0.800235
0.753774
0.707162
0.661811
0.618727
0.578545
0.541607
0.508036
0.477811
0.450823
0.42692
0.405931
0.387743
0.372242
0.358955
0.347274
0.339083
0.333993
0.329279
0.341404
0.988876
0.98799
0.985168
0.977792
0.963755
0.941706
0.911464
0.873995
0.831061
0.784755
0.737124
0.689896
0.644378
0.601452
0.561639
0.52518
0.492123
0.462391
0.435828
0.412247
0.391434
0.373222
0.357441
0.344283
0.332089
0.322876
0.312544
0.303204
0.295555
0.991085
0.989865
0.986272
0.977695
0.962156
0.938476
0.906709
0.868037
0.824365
0.777841
0.730482
0.68394
0.639424
0.597726
0.559292
0.524313
0.492809
0.464692
0.439812
0.418
0.399063
0.382871
0.369173
0.358291
0.349003
0.344607
0.337258
0.339445
0.311851
0.992544
0.991172
0.987287
0.978246
0.962207
0.938105
0.906135
0.867582
0.824397
0.778718
0.73251
0.687358
0.644406
0.604396
0.567745
0.534632
0.505081
0.479024
0.45634
0.436898
0.42056
0.407261
0.396811
0.389671
0.384481
0.385964
0.384107
0.399623
0.360335
0.99344
0.99213
0.988483
0.979751
0.964194
0.940766
0.909688
0.872244
0.830359
0.786135
0.741492
0.697983
0.656732
0.618476
0.583637
0.552413
0.524854
0.500922
0.480538
0.463615
0.450074
0.439925
0.433083
0.430144
0.429944
0.437656
0.442968
0.467133
0.429656
5.80605e-005
5.80603e-005
5.80603e-005
5.80608e-005
5.80612e-005
5.80611e-005
5.80605e-005
5.80603e-005
5.80608e-005
5.80614e-005
5.80616e-005
5.80609e-005
5.80606e-005
5.80613e-005
5.80619e-005
5.80613e-005
5.80603e-005
5.806e-005
5.80608e-005
5.80612e-005
5.80606e-005
5.80595e-005
5.80591e-005
5.80598e-005
5.80607e-005
5.80609e-005
5.8061e-005
5.80613e-005
5.80608e-005
5.80599e-005
5.80593e-005
5.80594e-005
5.80606e-005
5.80609e-005
5.80608e-005
5.80608e-005
5.80608e-005
5.80608e-005
5.80608e-005
5.80608e-005
5.80608e-005
5.80608e-005
5.80608e-005
5.80609e-005
5.80609e-005
5.80609e-005
5.80609e-005
5.80609e-005
5.80609e-005
5.80609e-005
5.80609e-005
5.80609e-005
5.8061e-005
5.8061e-005
5.8061e-005
5.8061e-005
5.80611e-005
5.80611e-005
5.80611e-005
5.80611e-005
5.80612e-005
5.80612e-005
5.80612e-005
5.80612e-005
5.80612e-005
5.80613e-005
5.80613e-005
5.80613e-005
5.80613e-005
5.80614e-005
5.80614e-005
5.80614e-005
5.80615e-005
5.80614e-005
5.80615e-005
5.80615e-005
5.80615e-005
5.80616e-005
5.80616e-005
5.80616e-005
5.80617e-005
5.80619e-005
5.80618e-005
5.80617e-005
5.80617e-005
5.80618e-005
5.80616e-005
5.80615e-005
5.80618e-005
5.80619e-005
5.80618e-005
5.80618e-005
5.80618e-005
5.80618e-005
5.80618e-005
5.80618e-005
5.80618e-005
5.80618e-005
5.80619e-005
5.80619e-005
5.80619e-005
5.80619e-005
5.80619e-005
5.80619e-005
5.80619e-005
5.80619e-005
5.80619e-005
5.80619e-005
5.80619e-005
5.80619e-005
5.80619e-005
5.80619e-005
5.80619e-005
5.80619e-005
5.80619e-005
5.80619e-005
5.80619e-005
5.80619e-005
5.80619e-005
5.80619e-005
5.80619e-005
5.80619e-005
5.80619e-005
5.80619e-005
5.80619e-005
5.80619e-005
5.80619e-005
5.8062e-005
5.8062e-005
5.8062e-005
5.80621e-005
5.80622e-005
5.80622e-005
5.80625e-005
5.80623e-005
5.80627e-005
5.80625e-005
5.80634e-005
5.93212e-005
4.60776e-006
4.60744e-006
4.60764e-006
4.60871e-006
4.60945e-006
4.60879e-006
4.60769e-006
4.60762e-006
4.60883e-006
4.61013e-006
4.60993e-006
4.6085e-006
4.60816e-006
4.60999e-006
4.61102e-006
4.60962e-006
4.60746e-006
4.60691e-006
4.6086e-006
4.6091e-006
4.60756e-006
4.6055e-006
4.60508e-006
4.60676e-006
4.60845e-006
4.60883e-006
4.60912e-006
4.60939e-006
4.60812e-006
4.60641e-006
4.60554e-006
4.60611e-006
4.60844e-006
4.60886e-006
4.6088e-006
4.60876e-006
4.60873e-006
4.60872e-006
4.60871e-006
4.60872e-006
4.60874e-006
4.60878e-006
4.60888e-006
4.60898e-006
4.60906e-006
4.6091e-006
4.60912e-006
4.60912e-006
4.60915e-006
4.60916e-006
4.6092e-006
4.60923e-006
4.60928e-006
4.60934e-006
4.60939e-006
4.60943e-006
4.60952e-006
4.60956e-006
4.60965e-006
4.60969e-006
4.60975e-006
4.60982e-006
4.60985e-006
4.60995e-006
4.60997e-006
4.61006e-006
4.61008e-006
4.61022e-006
4.61019e-006
4.61028e-006
4.61034e-006
4.6103e-006
4.61057e-006
4.61042e-006
4.61062e-006
4.61057e-006
4.61063e-006
4.61081e-006
4.61083e-006
4.61071e-006
4.61106e-006
4.61133e-006
4.61126e-006
4.61117e-006
4.61112e-006
4.6112e-006
4.61074e-006
4.6107e-006
4.61118e-006
4.61137e-006
4.61138e-006
4.61133e-006
4.6113e-006
4.6113e-006
4.61134e-006
4.61134e-006
4.61142e-006
4.6114e-006
4.61144e-006
4.61145e-006
4.61147e-006
4.61148e-006
4.61149e-006
4.6115e-006
4.61149e-006
4.6115e-006
4.61147e-006
4.61148e-006
4.61146e-006
4.61147e-006
4.61146e-006
4.61146e-006
4.61145e-006
4.61146e-006
4.61145e-006
4.61145e-006
4.61144e-006
4.61143e-006
4.61143e-006
4.61142e-006
4.61142e-006
4.6114e-006
4.6114e-006
4.61139e-006
4.6114e-006
4.61141e-006
4.61144e-006
4.61152e-006
4.61147e-006
4.61162e-006
4.61168e-006
4.61205e-006
4.61192e-006
4.6127e-006
4.61221e-006
4.61301e-006
4.61371e-006
4.61768e-006
5.09677e-006
7.23961e-007
7.2403e-007
7.24228e-007
7.24442e-007
7.24259e-007
7.23878e-007
7.23882e-007
7.24344e-007
7.24794e-007
7.24699e-007
7.2416e-007
7.23946e-007
7.24393e-007
7.24961e-007
7.249e-007
7.24366e-007
7.24058e-007
7.24181e-007
7.24333e-007
7.24126e-007
7.23697e-007
7.23756e-007
7.24071e-007
7.2458e-007
7.24578e-007
7.24594e-007
7.24657e-007
7.24517e-007
7.24081e-007
7.24054e-007
7.24201e-007
7.24776e-007
7.24968e-007
7.24848e-007
7.24876e-007
7.24907e-007
7.24929e-007
7.24948e-007
7.24969e-007
7.24996e-007
7.25029e-007
7.25069e-007
7.25116e-007
7.25158e-007
7.25192e-007
7.25217e-007
7.25236e-007
7.25251e-007
7.25273e-007
7.25296e-007
7.25321e-007
7.25346e-007
7.25376e-007
7.25406e-007
7.25435e-007
7.25467e-007
7.25502e-007
7.25533e-007
7.25568e-007
7.25598e-007
7.25632e-007
7.25663e-007
7.25695e-007
7.25728e-007
7.2576e-007
7.25791e-007
7.25827e-007
7.25851e-007
7.25887e-007
7.25922e-007
7.25946e-007
7.25986e-007
7.26016e-007
7.26038e-007
7.26076e-007
7.26118e-007
7.26088e-007
7.26131e-007
7.26136e-007
7.26057e-007
7.26132e-007
7.26139e-007
7.26183e-007
7.26258e-007
7.26305e-007
7.26252e-007
7.26153e-007
7.26215e-007
7.26229e-007
7.26284e-007
7.26365e-007
7.26374e-007
7.26377e-007
7.26389e-007
7.264e-007
7.264e-007
7.26413e-007
7.26407e-007
7.26415e-007
7.26416e-007
7.26417e-007
7.26418e-007
7.26417e-007
7.26417e-007
7.26412e-007
7.2641e-007
7.26399e-007
7.26395e-007
7.26381e-007
7.26368e-007
7.26353e-007
7.26339e-007
7.26322e-007
7.26302e-007
7.26288e-007
7.26262e-007
7.2625e-007
7.26222e-007
7.26209e-007
7.26184e-007
7.26164e-007
7.26134e-007
7.26108e-007
7.26081e-007
7.26055e-007
7.2602e-007
7.2602e-007
7.25964e-007
7.25958e-007
7.2604e-007
7.2589e-007
7.26034e-007
7.26041e-007
7.25948e-007
7.25814e-007
7.30456e-007
7.02681e-007
6.41672e-007
1.49945e-006
2.12911e-007
2.12942e-007
2.1301e-007
2.13008e-007
2.12932e-007
2.12954e-007
2.13115e-007
2.13258e-007
2.13218e-007
2.13063e-007
2.12999e-007
2.13139e-007
2.13343e-007
2.13383e-007
2.1327e-007
2.13097e-007
2.13109e-007
2.13184e-007
2.13218e-007
2.13214e-007
2.132e-007
2.13236e-007
2.13296e-007
2.13347e-007
2.13387e-007
2.13437e-007
2.13459e-007
2.13425e-007
2.13397e-007
2.13414e-007
2.13422e-007
2.13547e-007
2.1354e-007
2.13586e-007
2.13615e-007
2.13635e-007
2.13653e-007
2.13671e-007
2.13691e-007
2.13712e-007
2.13735e-007
2.1376e-007
2.13783e-007
2.13802e-007
2.1382e-007
2.13841e-007
2.13861e-007
2.13884e-007
2.13904e-007
2.13924e-007
2.13944e-007
2.13965e-007
2.13987e-007
2.14009e-007
2.1403e-007
2.14054e-007
2.14074e-007
2.14098e-007
2.14119e-007
2.14142e-007
2.14164e-007
2.14184e-007
2.14208e-007
2.14226e-007
2.14249e-007
2.14266e-007
2.14292e-007
2.14303e-007
2.1433e-007
2.14344e-007
2.14357e-007
2.14389e-007
2.14392e-007
2.14416e-007
2.1442e-007
2.14444e-007
2.1443e-007
2.14437e-007
2.14453e-007
2.14444e-007
2.14473e-007
2.14466e-007
2.14491e-007
2.14524e-007
2.14565e-007
2.14546e-007
2.14528e-007
2.14547e-007
2.14553e-007
2.14581e-007
2.14617e-007
2.14632e-007
2.14653e-007
2.14668e-007
2.14675e-007
2.14679e-007
2.14681e-007
2.14683e-007
2.14685e-007
2.14687e-007
2.14688e-007
2.14689e-007
2.14689e-007
2.14689e-007
2.14688e-007
2.14686e-007
2.14683e-007
2.14679e-007
2.14674e-007
2.14665e-007
2.14656e-007
2.14643e-007
2.14631e-007
2.14615e-007
2.14605e-007
2.14588e-007
2.14577e-007
2.14558e-007
2.14545e-007
2.14526e-007
2.14508e-007
2.14484e-007
2.1446e-007
2.14435e-007
2.14407e-007
2.14365e-007
2.14335e-007
2.1431e-007
2.14265e-007
2.14175e-007
2.14348e-007
2.14215e-007
2.13763e-007
2.19709e-007
2.16554e-007
1.69935e-007
5.11393e-007
0.000110483
0.00803544
1.03689e-007
1.03732e-007
1.03755e-007
1.03753e-007
1.03765e-007
1.03815e-007
1.03855e-007
1.03849e-007
1.03819e-007
1.03821e-007
1.03869e-007
1.03928e-007
1.03944e-007
1.0392e-007
1.03875e-007
1.03875e-007
1.03916e-007
1.03969e-007
1.04018e-007
1.04025e-007
1.04044e-007
1.04049e-007
1.04076e-007
1.04101e-007
1.0414e-007
1.04154e-007
1.04173e-007
1.04175e-007
1.04168e-007
1.04154e-007
1.04185e-007
1.04237e-007
1.04276e-007
1.043e-007
1.04317e-007
1.04335e-007
1.04353e-007
1.0437e-007
1.04387e-007
1.04405e-007
1.04423e-007
1.0444e-007
1.04454e-007
1.04466e-007
1.04481e-007
1.045e-007
1.04517e-007
1.04537e-007
1.04554e-007
1.04574e-007
1.04593e-007
1.04612e-007
1.0463e-007
1.04648e-007
1.04666e-007
1.04684e-007
1.047e-007
1.04718e-007
1.04734e-007
1.04751e-007
1.04768e-007
1.04783e-007
1.04801e-007
1.04814e-007
1.04831e-007
1.04845e-007
1.04861e-007
1.04873e-007
1.0489e-007
1.04901e-007
1.04912e-007
1.04932e-007
1.04937e-007
1.04956e-007
1.04961e-007
1.04974e-007
1.04983e-007
1.04987e-007
1.05002e-007
1.05004e-007
1.05021e-007
1.05026e-007
1.05035e-007
1.05056e-007
1.05067e-007
1.05071e-007
1.05071e-007
1.05086e-007
1.05094e-007
1.05102e-007
1.05121e-007
1.0514e-007
1.05153e-007
1.05159e-007
1.05161e-007
1.0517e-007
1.05173e-007
1.05182e-007
1.05185e-007
1.0519e-007
1.05192e-007
1.05194e-007
1.05195e-007
1.05195e-007
1.05196e-007
1.05194e-007
1.05193e-007
1.05188e-007
1.05185e-007
1.05176e-007
1.0517e-007
1.05155e-007
1.05145e-007
1.05128e-007
1.05119e-007
1.05104e-007
1.05092e-007
1.05076e-007
1.05064e-007
1.0505e-007
1.05035e-007
1.05017e-007
1.04999e-007
1.0498e-007
1.0496e-007
1.04972e-007
1.05029e-007
1.04844e-007
1.0467e-007
1.05438e-007
1.04199e-007
1.04637e-007
1.07989e-007
7.55294e-008
9.28702e-008
1.01873e-006
0.000141305
0.0082107
0.0814393
7.05957e-008
7.06152e-008
7.06314e-008
7.06398e-008
7.06489e-008
7.06636e-008
7.06822e-008
7.06948e-008
7.07109e-008
7.07252e-008
7.07401e-008
7.07531e-008
7.07765e-008
7.07771e-008
7.07752e-008
7.07968e-008
7.08282e-008
7.08806e-008
7.09182e-008
7.09208e-008
7.09185e-008
7.09249e-008
7.09575e-008
7.10014e-008
7.10309e-008
7.10397e-008
7.1043e-008
7.10351e-008
7.10206e-008
7.10281e-008
7.10623e-008
7.11073e-008
7.11465e-008
7.11586e-008
7.11725e-008
7.11896e-008
7.1207e-008
7.12243e-008
7.12415e-008
7.12588e-008
7.12751e-008
7.12895e-008
7.13018e-008
7.13146e-008
7.13294e-008
7.13458e-008
7.1363e-008
7.13837e-008
7.14055e-008
7.14253e-008
7.14407e-008
7.1456e-008
7.14722e-008
7.14885e-008
7.1505e-008
7.15214e-008
7.15365e-008
7.15522e-008
7.15668e-008
7.15819e-008
7.15967e-008
7.16109e-008
7.1626e-008
7.16394e-008
7.1654e-008
7.16674e-008
7.1681e-008
7.16945e-008
7.17079e-008
7.17202e-008
7.17326e-008
7.17479e-008
7.17568e-008
7.17751e-008
7.17816e-008
7.17946e-008
7.18031e-008
7.18124e-008
7.18242e-008
7.18385e-008
7.18536e-008
7.18553e-008
7.18648e-008
7.18742e-008
7.18862e-008
7.18902e-008
7.19021e-008
7.19145e-008
7.1915e-008
7.1924e-008
7.19361e-008
7.19425e-008
7.19452e-008
7.19518e-008
7.19643e-008
7.19762e-008
7.19809e-008
7.19871e-008
7.19902e-008
7.19938e-008
7.19976e-008
7.20006e-008
7.20029e-008
7.20042e-008
7.20049e-008
7.20041e-008
7.20039e-008
7.20004e-008
7.19976e-008
7.19918e-008
7.1986e-008
7.19757e-008
7.1968e-008
7.1957e-008
7.19484e-008
7.19377e-008
7.19266e-008
7.19145e-008
7.1903e-008
7.18905e-008
7.18769e-008
7.18607e-008
7.18437e-008
7.18246e-008
7.17964e-008
7.16062e-008
7.13557e-008
7.18255e-008
7.20304e-008
6.99742e-008
7.29054e-008
7.24645e-008
6.2537e-008
1.9031e-007
5.60766e-006
0.000366092
0.0120104
0.0981741
0.305034
5.78517e-008
5.78831e-008
5.78894e-008
5.78879e-008
5.78986e-008
5.79234e-008
5.79427e-008
5.79556e-008
5.79696e-008
5.79799e-008
5.79907e-008
5.80071e-008
5.80184e-008
5.80197e-008
5.8033e-008
5.80616e-008
5.81056e-008
5.8123e-008
5.81222e-008
5.81418e-008
5.81754e-008
5.82127e-008
5.82254e-008
5.82295e-008
5.82409e-008
5.82648e-008
5.82721e-008
5.82759e-008
5.8293e-008
5.83217e-008
5.83408e-008
5.83582e-008
5.8364e-008
5.83768e-008
5.84024e-008
5.84257e-008
5.84449e-008
5.84625e-008
5.84797e-008
5.84966e-008
5.85126e-008
5.85273e-008
5.85417e-008
5.85578e-008
5.85751e-008
5.85958e-008
5.8619e-008
5.86391e-008
5.86488e-008
5.86572e-008
5.86712e-008
5.86914e-008
5.87105e-008
5.87279e-008
5.87443e-008
5.87605e-008
5.87753e-008
5.87911e-008
5.88056e-008
5.88211e-008
5.88354e-008
5.88505e-008
5.88651e-008
5.88798e-008
5.88938e-008
5.89083e-008
5.89221e-008
5.89358e-008
5.89493e-008
5.89633e-008
5.89749e-008
5.89916e-008
5.9e-008
5.90173e-008
5.90235e-008
5.90374e-008
5.90415e-008
5.90493e-008
5.90627e-008
5.90735e-008
5.90872e-008
5.90937e-008
5.91067e-008
5.91136e-008
5.91312e-008
5.9137e-008
5.91418e-008
5.91552e-008
5.91637e-008
5.91725e-008
5.91756e-008
5.91828e-008
5.91943e-008
5.921e-008
5.9218e-008
5.92241e-008
5.92243e-008
5.92293e-008
5.9232e-008
5.92381e-008
5.92394e-008
5.92426e-008
5.92435e-008
5.92443e-008
5.92457e-008
5.9244e-008
5.92454e-008
5.92408e-008
5.92392e-008
5.92333e-008
5.92301e-008
5.92216e-008
5.92163e-008
5.92079e-008
5.92008e-008
5.91912e-008
5.91813e-008
5.91701e-008
5.91587e-008
5.91471e-008
5.91336e-008
5.91191e-008
5.91034e-008
5.90877e-008
5.9089e-008
5.94904e-008
5.97951e-008
5.87775e-008
5.8585e-008
6.17263e-008
5.73582e-008
5.74356e-008
2.49228e-007
1.54087e-005
0.000806407
0.0198141
0.128869
0.359927
0.617982
5.2055e-008
5.20468e-008
5.20587e-008
5.20756e-008
5.2082e-008
5.20989e-008
5.21356e-008
5.21515e-008
5.21422e-008
5.21266e-008
5.21386e-008
5.21823e-008
5.22107e-008
5.22194e-008
5.22102e-008