/*--------------------------------*- C++ -*----------------------------------*\
| =========                 |                                                 |
| \\      /  F ield         | OpenFOAM: The Open Source CFD Toolbox           |
|  \\    /   O peration     | Version:  5.x                                   |
|   \\  /    A nd           | Web:      www.OpenFOAM.org                      |
|    \\/     M anipulation  |                                                 |
\*---------------------------------------------------------------------------*/
/*   Windows 32 and 64 bit porting by blueCAPE: http://www.bluecape.com.pt   *\
|  Based on Windows porting (2.0.x v4) by Symscape: http://www.symscape.com   |
\*---------------------------------------------------------------------------*/
FoamFile
{
    version     2.0;
    format      ascii;
    class       volScalarField;
    location    "340";
    object      p;
}
// * * * * * * * * * * * * * * * * * * * * * * * * * * * * * * * * * * * * * //

dimensions      [0 2 -2 0 0 0 0];

internalField   nonuniform List<scalar> 
43900
(
0.338801
0.338453
0.338411
0.338283
0.33808
0.337855
0.337651
0.337319
0.337077
0.336752
0.336428
0.336098
0.335752
0.33539
0.335021
0.334642
0.334252
0.333855
0.333449
0.333035
0.332615
0.332187
0.331753
0.331314
0.330868
0.330418
0.329963
0.329502
0.329039
0.3368
0.344885
0.338744
0.342037
0.339523
0.340277
0.339365
0.339186
0.338736
0.338304
0.337901
0.337466
0.337031
0.336603
0.33617
0.335732
0.335292
0.334849
0.3344
0.333951
0.333496
0.333035
0.332574
0.332106
0.331634
0.331158
0.330676
0.330192
0.329703
0.329963
0.351754
0.340661
0.346908
0.341826
0.344393
0.342003
0.342341
0.341248
0.340832
0.340241
0.339677
0.339137
0.338603
0.338074
0.33755
0.33703
0.336515
0.336005
0.335494
0.334982
0.334477
0.333968
0.333457
0.332948
0.332436
0.331923
0.331409
0.330888
0.325178
0.352835
0.346109
0.345904
0.345548
0.345127
0.344041
0.343997
0.343205
0.342828
0.342263
0.341744
0.341221
0.340696
0.340169
0.339642
0.339115
0.338588
0.338057
0.337526
0.336999
0.336466
0.335933
0.335404
0.334869
0.334333
0.333799
0.333258
0.33272
0.327819
0.351646
0.346639
0.346029
0.346006
0.345577
0.345384
0.345151
0.344623
0.344315
0.343883
0.343461
0.343035
0.342592
0.342136
0.341667
0.34119
0.340702
0.340205
0.339704
0.339187
0.338666
0.338143
0.337605
0.337062
0.336515
0.33596
0.335401
0.334834
0.332861
0.350923
0.347891
0.347581
0.347505
0.347094
0.346818
0.346566
0.346345
0.346072
0.345697
0.345349
0.344975
0.344582
0.344175
0.343757
0.34332
0.34287
0.342409
0.341931
0.341445
0.340946
0.340427
0.339902
0.339372
0.338822
0.338258
0.33769
0.337111
0.339048
0.353003
0.351187
0.350651
0.350601
0.350456
0.350122
0.349666
0.349341
0.349106
0.348772
0.34841
0.348042
0.347652
0.347247
0.346831
0.346402
0.345958
0.345495
0.345018
0.344529
0.344021
0.343509
0.342979
0.342426
0.341868
0.3413
0.340724
0.340132
0.345974
0.357181
0.356037
0.355424
0.355244
0.355103
0.354887
0.354535
0.354071
0.353626
0.353285
0.352917
0.352501
0.352076
0.351635
0.351178
0.350702
0.350213
0.349712
0.349188
0.348652
0.348101
0.347532
0.346944
0.346346
0.345737
0.345103
0.344447
0.34378
0.35387
0.362852
0.362153
0.361519
0.361237
0.361026
0.360774
0.360465
0.36007
0.359551
0.359029
0.358607
0.358164
0.357677
0.357175
0.35666
0.35613
0.355573
0.354996
0.354412
0.353804
0.353174
0.352532
0.351875
0.351199
0.350501
0.349792
0.349084
0.348347
0.363041
0.369938
0.369534
0.368891
0.368528
0.368246
0.367935
0.36758
0.367179
0.366709
0.366128
0.365505
0.364971
0.364433
0.363865
0.363279
0.362675
0.362052
0.361399
0.360721
0.360031
0.359322
0.358593
0.35784
0.357072
0.35629
0.355479
0.354655
0.353811
0.372468
0.378413
0.378121
0.37745
0.377021
0.376674
0.376301
0.375883
0.375419
0.374908
0.37433
0.373655
0.372916
0.372254
0.371596
0.37092
0.370228
0.369505
0.368758
0.367984
0.367188
0.366366
0.365527
0.364667
0.363778
0.362864
0.361936
0.360995
0.360026
0.382563
0.387998
0.387756
0.387052
0.386565
0.386161
0.385731
0.385251
0.384722
0.384141
0.383503
0.382797
0.382005
0.381146
0.380332
0.379535
0.378725
0.377894
0.377029
0.37614
0.375216
0.374263
0.373304
0.372298
0.371263
0.370231
0.369144
0.368031
0.366909
0.393811
0.398555
0.398344
0.397618
0.39708
0.39662
0.396134
0.395597
0.395005
0.394356
0.393645
0.392867
0.392012
0.391065
0.390049
0.38907
0.388107
0.38713
0.386123
0.385083
0.38402
0.382936
0.381804
0.380641
0.379469
0.378252
0.377024
0.375787
0.374495
0.405808
0.410037
0.40983
0.409077
0.408487
0.40797
0.407425
0.406826
0.406168
0.405446
0.404656
0.403792
0.40285
0.40182
0.400689
0.399493
0.398331
0.397179
0.396018
0.394817
0.393591
0.392326
0.391041
0.389734
0.388358
0.386973
0.385546
0.384086
0.382613
0.418516
0.422371
0.422151
0.421366
0.420725
0.420153
0.419549
0.418887
0.41816
0.417365
0.416493
0.415539
0.4145
0.413371
0.412143
0.410806
0.409408
0.40803
0.406656
0.40527
0.403831
0.402369
0.400866
0.399311
0.397746
0.396103
0.394459
0.392799
0.391044
0.43182
0.435424
0.435182
0.43436
0.433667
0.433037
0.432371
0.431642
0.430842
0.429965
0.429005
0.427952
0.426804
0.425555
0.424203
0.422737
0.421156
0.419507
0.417864
0.41621
0.414548
0.412842
0.41109
0.409311
0.407477
0.405615
0.403713
0.40178
0.399852
0.445646
0.449093
0.448825
0.447961
0.447216
0.446529
0.445802
0.445005
0.444131
0.443173
0.442121
0.440969
0.439709
0.438339
0.436854
0.435251
0.43352
0.431664
0.429746
0.427825
0.425908
0.423971
0.422
0.41999
0.417912
0.415791
0.413659
0.41148
0.409241
0.459903
0.463266
0.462972
0.462066
0.461271
0.46053
0.459744
0.458882
0.457936
0.4569
0.455761
0.454513
0.453149
0.451663
0.450051
0.448313
0.446442
0.444432
0.442295
0.440101
0.437887
0.435677
0.433434
0.431122
0.428781
0.426367
0.423883
0.421396
0.418833
0.474469
0.477811
0.477492
0.47654
0.475695
0.4749
0.474053
0.473125
0.472104
0.470982
0.46975
0.468397
0.466917
0.465304
0.463552
0.461658
0.459621
0.457435
0.455094
0.452618
0.450059
0.447482
0.444896
0.442244
0.439529
0.436802
0.434018
0.43117
0.428305
0.489234
0.49261
0.492268
0.491269
0.490373
0.489523
0.488616
0.487616
0.486517
0.485308
0.483979
0.482518
0.480917
0.479169
0.477269
0.475211
0.472995
0.470616
0.468069
0.465351
0.462482
0.459544
0.456576
0.453586
0.450554
0.447463
0.444342
0.441137
0.43789
0.504097
0.50755
0.507189
0.506141
0.505196
0.504295
0.503331
0.502267
0.501093
0.499799
0.498373
0.496805
0.495085
0.493206
0.491162
0.488946
0.486557
0.483992
0.481249
0.478324
0.475212
0.471954
0.468604
0.465204
0.461788
0.458305
0.454737
0.451108
0.447419
0.518949
0.522518
0.522139
0.521044
0.52005
0.519098
0.518073
0.51694
0.515686
0.514304
0.512781
0.511105
0.509263
0.507249
0.505056
0.502677
0.500109
0.497349
0.494396
0.491248
0.4879
0.484351
0.480635
0.476806
0.472914
0.468982
0.464966
0.460911
0.45684
0.533687
0.537403
0.537008
0.535865
0.534823
0.53382
0.532737
0.531537
0.530207
0.528737
0.527111
0.525318
0.523348
0.521192
0.518843
0.516293
0.513538
0.510575
0.507402
0.504019
0.500425
0.496615
0.492581
0.488371
0.484049
0.479655
0.475221
0.470717
0.466146
0.548224
0.552113
0.551706
0.550514
0.549426
0.548372
0.547229
0.545958
0.544544
0.542978
0.541246
0.539335
0.537234
0.534932
0.532421
0.529693
0.526745
0.523571
0.520172
0.516544
0.512691
0.508613
0.504306
0.499763
0.49502
0.49016
0.485196
0.48017
0.475062
0.562465
0.566551
0.566133
0.564892
0.563756
0.56265
0.561445
0.5601
0.558604
0.556942
0.555101
0.553065
0.550822
0.548362
0.545676
0.542758
0.539602
0.536203
0.53256
0.52867
0.524535
0.520158
0.51554
0.510681
0.505569
0.500247
0.494777
0.489197
0.483556
0.576345
0.580649
0.580221
0.578931
0.577748
0.576591
0.575323
0.573904
0.572319
0.570553
0.568592
0.566419
0.564025
0.561397
0.558526
0.555405
0.552027
0.548387
0.544484
0.540315
0.535882
0.531187
0.526235
0.52103
0.515572
0.509855
0.503925
0.497821
0.491574
0.589794
0.594335
0.593897
0.592559
0.591329
0.590119
0.588787
0.587288
0.585608
0.583733
0.581646
0.579332
0.576779
0.573973
0.570904
0.567563
0.563946
0.560046
0.555863
0.551394
0.546641
0.541606
0.536294
0.530712
0.524866
0.518755
0.512387
0.505792
0.498964
0.602755
0.607551
0.607105
0.605718
0.604442
0.603178
0.601778
0.600197
0.598419
0.59643
0.594212
0.591748
0.589022
0.586022
0.582737
0.579161
0.575284
0.571104
0.566616
0.56182
0.556717
0.551311
0.545606
0.53961
0.533332
0.526778
0.519957
0.512877
0.505564
0.615184
0.62025
0.619796
0.618362
0.617041
0.615725
0.614257
0.612592
0.610713
0.608604
0.606245
0.603617
0.600707
0.597501
0.593987
0.590156
0.586
0.581514
0.576694
0.571541
0.566057
0.560244
0.55411
0.547662
0.540912
0.533871
0.526552
0.518959
0.511157
0.62704
0.632391
0.631929
0.630449
0.629085
0.627716
0.626179
0.624427
0.622442
0.620207
0.617701
0.614905
0.611803
0.60838
0.604621
0.600517
0.596059
0.591242
0.586062
0.58052
0.574618
0.56836
0.561754
0.554812
0.547545
0.539969
0.532102
0.52396
0.515564
0.638293
0.64394
0.64347
0.641946
0.640541
0.639121
0.637516
0.635675
0.633583
0.63122
0.628563
0.625592
0.622287
0.618631
0.614611
0.610214
0.605433
0.600259
0.594691
0.588726
0.582368
0.575622
0.568498
0.561008
0.553168
0.544997
0.536517
0.52775
0.51872
0.648922
0.654872
0.654393
0.652829
0.651387
0.649919
0.648246
0.64632
0.64412
0.641627
0.638815
0.635661
0.632143
0.628244
0.62395
0.619245
0.614119
0.608563
0.602574
0.596151
0.589296
0.582015
0.574321
0.566227
0.557751
0.548917
0.539751
0.530281
0.520537
0.658911
0.665167
0.664678
0.663077
0.661603
0.660089
0.658352
0.65634
0.654033
0.651408
0.648438
0.645097
0.641363
0.637215
0.632635
0.627607
0.622116
0.616153
0.609713
0.602795
0.595401
0.587539
0.579219
0.57046
0.561283
0.551715
0.541787
0.531534
0.520993
0.668253
0.674812
0.674311
0.672678
0.671178
0.669623
0.667824
0.665728
0.663316
0.66056
0.657432
0.653903
0.649948
0.645543
0.640666
0.635298
0.629423
0.62303
0.616112
0.608665
0.600691
0.592197
0.583196
0.573709
0.56376
0.553381
0.542611
0.53149
0.520066
0.676945
0.6838
0.683285
0.681627
0.680106
0.678515
0.676658
0.674484
0.67197
0.669087
0.665803
0.662086
0.657908
0.653238
0.648054
0.642335
0.636061
0.629216
0.62179
0.613778
0.60518
0.596004
0.586263
0.57598
0.565184
0.553911
0.542208
0.530125
0.51772
0.684992
0.692132
0.6916
0.689923
0.688388
0.686766
0.684857
0.682609
0.679997
0.67699
0.673551
0.669647
0.665243
0.660308
0.654814
0.648735
0.642047
0.634729
0.626769
0.618156
0.608892
0.59898
0.588437
0.577285
0.565559
0.553302
0.540568
0.527419
0.513925
0.692403
0.699815
0.699262
0.697574
0.696033
0.694386
0.692429
0.690111
0.687406
0.684278
0.680688
0.676597
0.671969
0.666768
0.66096
0.654512
0.647396
0.639587
0.631066
0.621821
0.611846
0.601146
0.589734
0.577637
0.564893
0.551553
0.53768
0.523351
0.508651
0.69919
0.706861
0.706284
0.704592
0.703053
0.701386
0.699387
0.697006
0.694212
0.690969
0.687233
0.682961
0.678112
0.672644
0.666516
0.659692
0.652137
0.64382
0.634715
0.624803
0.614074
0.602529
0.590179
0.577053
0.563193
0.548659
0.533527
0.517889
0.501853
0.705367
0.713291
0.712686
0.710999
0.709469
0.707788
0.705752
0.703312
0.700436
0.697083
0.693205
0.688756
0.683689
0.677955
0.671508
0.664306
0.656305
0.647466
0.637754
0.627142
0.615614
0.603163
0.589801
0.575553
0.560468
0.544615
0.528086
0.510994
0.493472
0.710949
0.719132
0.718492
0.716816
0.715302
0.713613
0.711545
0.709051
0.706099
0.702641
0.698626
0.694004
0.688722
0.682726
0.675964
0.668383
0.659931
0.650559
0.640221
0.62888
0.616509
0.603094
0.588639
0.573169
0.556735
0.539419
0.521332
0.502613
0.48343
0.715948
0.724412
0.72373
0.722071
0.720579
0.718885
0.71679
0.714249
0.711225
0.707668
0.703523
0.698734
0.693245
0.686995
0.679922
0.671965
0.663061
0.65315
0.642172
0.630077
0.616824
0.602384
0.586752
0.569948
0.552027
0.533081
0.513244
0.492692
0.471639
0.720377
0.729167
0.728428
0.72679
0.725326
0.723631
0.721513
0.718928
0.715838
0.712189
0.707921
0.702975
0.697288
0.690794
0.683421
0.675099
0.665753
0.655306
0.643685
0.630819
0.616648
0.601127
0.584233
0.565977
0.546412
0.525641
0.503826
0.481189
0.458006
0.72425
0.733428
0.732614
0.730999
0.729566
0.727873
0.725735
0.723113
0.719963
0.716229
0.711848
0.706756
0.700885
0.694162
0.686509
0.677842
0.668073
0.657108
0.644853
0.631215
0.616107
0.599459
0.581224
0.561395
0.540016
0.517198
0.493133
0.468101
0.442465
0.727587
0.737228
0.736312
0.73472
0.73332
0.731631
0.729478
0.726824
0.723623
0.719814
0.715333
0.710113
0.70408
0.697156
0.689253
0.680275
0.670118
0.65867
0.645812
0.631419
0.615375
0.597574
0.577933
0.556415
0.533044
0.507931
0.481297
0.453492
0.424997
0.730415
0.740591
0.739538
0.737972
0.736609
0.734927
0.732764
0.730087
0.726846
0.722978
0.718419
0.713096
0.706936
0.699851
0.691746
0.68251
0.672022
0.660148
0.646739
0.631637
0.614687
0.595735
0.574649
0.551344
0.525807
0.498133
0.468561
0.437523
0.405657
0.732774
0.743537
0.74231
0.740775
0.739453
0.737784
0.735621
0.732934
0.729672
0.72577
0.721164
0.71578
0.709541
0.702353
0.694108
0.684685
0.673946
0.661731
0.647856
0.632126
0.614337
0.594278
0.571749
0.546592
0.518733
0.48822
0.455301
0.420478
0.384593
0.734719
0.746078
0.744643
0.743153
0.74188
0.740232
0.738085
0.735411
0.732156
0.728258
0.723651
0.718262
0.712006
0.704785
0.696485
0.686973
0.676088
0.663643
0.649422
0.633188
0.614676
0.593604
0.569684
0.542662
0.51236
0.478731
0.442021
0.40278
0.36208
0.736313
0.74823
0.746561
0.74514
0.743927
0.742316
0.740208
0.737578
0.734371
0.730527
0.725976
0.720648
0.714456
0.707298
0.699052
0.689569
0.678668
0.666135
0.651722
0.635143
0.616069
0.594132
0.568943
0.540114
0.507318
0.470343
0.429368
0.384919
0.338474
0.737622
0.750015
0.748098
0.746781
0.745642
0.744089
0.742052
0.739505
0.736393
0.732658
0.728234
0.723052
0.717024
0.71004
0.70197
0.692648
0.681875
0.669412
0.654977
0.638238
0.618803
0.596213
0.569958
0.539478
0.504256
0.463799
0.41814
0.367519
0.314173
0.738709
0.751466
0.749302
0.748128
0.747078
0.74561
0.743677
0.741254
0.738289
0.734726
0.730506
0.725555
0.719784
0.713076
0.705289
0.696246
0.685734
0.673493
0.659216
0.642526
0.622972
0.600002
0.572977
0.541129
0.50371
0.459796
0.409206
0.351407
0.28972
0.739622
0.752629
0.750227
0.749237
0.748289
0.746928
0.745131
0.742869
0.740096
0.736758
0.732796
0.728133
0.722676
0.716303
0.708867
0.700187
0.690038
0.678152
0.664195
0.647759
0.628341
0.605304
0.577886
0.545086
0.505909
0.458807
0.403345
0.33745
0.265824
0.740398
0.753556
0.750926
0.750155
0.749315
0.74808
0.746439
0.744363
0.741804
0.73871
0.735019
0.730655
0.72552
0.719494
0.712427
0.704137
0.694399
0.682934
0.669399
0.653363
0.634288
0.611467
0.584044
0.550773
0.510441
0.460686
0.400838
0.32622
0.243119
0.741063
0.754305
0.751457
0.750928
0.750192
0.74909
0.747611
0.745719
0.743367
0.7405
0.737057
0.732959
0.72811
0.722389
0.71565
0.707709
0.698344
0.687277
0.674162
0.658556
0.639903
0.617443
0.590266
0.556891
0.515959
0.464158
0.400655
0.317142
0.221198
0.741634
0.754929
0.751868
0.751591
0.750947
0.749974
0.748643
0.746914
0.744736
0.742056
0.738809
0.734916
0.73028
0.724783
0.718278
0.710588
0.701492
0.690714
0.677908
0.662628
0.644307
0.622142
0.595189
0.561761
0.520439
0.466869
0.400132
0.30761
0.196999
0.742052
0.755404
0.752135
0.752102
0.751527
0.750663
0.74945
0.747844
0.745795
0.743245
0.740128
0.736364
0.731856
0.726486
0.720109
0.71255
0.703588
0.692949
0.680286
0.665142
0.64694
0.624834
0.597846
0.56407
0.522097
0.466404
0.396029
0.292832
0.163204
0.742096
0.75552
0.752042
0.752217
0.75167
0.75087
0.749718
0.748173
0.746183
0.743692
0.740631
0.736918
0.732458
0.72713
0.720789
0.713257
0.704313
0.693678
0.680997
0.665799
0.64749
0.625168
0.597818
0.563279
0.520173
0.461604
0.386736
0.268416
0.113575
0.741859
0.75531
0.751635
0.751954
0.751392
0.750596
0.749432
0.747867
0.745853
0.743334
0.740245
0.736505
0.732015
0.726654
0.720274
0.712691
0.703681
0.692953
0.680144
0.664762
0.646187
0.623458
0.595517
0.559935
0.515378
0.45349
0.374021
0.237451
0.0501687
0.743642
0.757017
0.753307
0.753742
0.753248
0.752536
0.751447
0.749939
0.747952
0.745431
0.742307
0.738505
0.73393
0.728465
0.721967
0.714252
0.705095
0.694201
0.681198
0.66558
0.646704
0.623562
0.59505
0.558553
0.512693
0.44825
0.366023
0.220372
0.00927945
0.752739
0.766355
0.763068
0.763811
0.76388
0.76386
0.763562
0.762868
0.761644
0.759776
0.757165
0.75373
0.749385
0.744035
0.737558
0.729798
0.720547
0.709532
0.696393
0.680642
0.661643
0.638415
0.609796
0.573411
0.526984
0.463559
0.380999
0.265236
0.174778
0.328486
0.327843
0.327194
0.326535
0.325872
0.325202
0.324525
0.323843
0.323155
0.32246
0.321759
0.321053
0.32034
0.319622
0.318899
0.318169
0.317434
0.316697
0.315954
0.315205
0.314452
0.3137
0.312945
0.312186
0.311427
0.310669
0.309908
0.309142
0.308377
0.307612
0.306847
0.306084
0.305319
0.304552
0.303785
0.30302
0.302256
0.301494
0.300734
0.299975
0.299218
0.298463
0.297711
0.296962
0.296217
0.295474
0.294735
0.294
0.293268
0.29254
0.291816
0.291096
0.290381
0.28967
0.288965
0.288264
0.287569
0.286879
0.286195
0.285517
0.284845
0.284179
0.28352
0.282867
0.282222
0.281583
0.280951
0.280327
0.279711
0.279102
0.278502
0.277909
0.277325
0.27675
0.276184
0.275626
0.275078
0.27454
0.27401
0.273492
0.272985
0.272484
0.271995
0.271514
0.271042
0.27058
0.270129
0.269689
0.269258
0.268836
0.268425
0.268024
0.267634
0.267256
0.266888
0.266531
0.266185
0.26585
0.265526
0.265213
0.264911
0.26462
0.26434
0.264072
0.263814
0.263568
0.263332
0.263109
0.262896
0.262695
0.262505
0.262326
0.262158
0.262
0.261853
0.261716
0.261589
0.261471
0.261364
0.261265
0.261175
0.261093
0.26102
0.260955
0.260898
0.260848
0.260807
0.260773
0.260745
0.260726
0.260713
0.260706
0.26071
0.260714
0.260743
0.260757
0.26082
0.260831
0.260987
0.329121
0.328447
0.327762
0.327071
0.326376
0.325672
0.324963
0.324249
0.323529
0.322802
0.322071
0.321337
0.3206
0.319857
0.319112
0.318365
0.317615
0.316862
0.316105
0.315352
0.3146
0.313839
0.313071
0.312301
0.311529
0.31076
0.309996
0.309224
0.308449
0.307673
0.306888
0.306101
0.305319
0.304539
0.303764
0.302992
0.302219
0.301445
0.30067
0.299895
0.299121
0.298348
0.297577
0.29681
0.296047
0.295287
0.294529
0.293775
0.293023
0.292274
0.291529
0.290789
0.290052
0.289321
0.288595
0.287874
0.287158
0.286448
0.285744
0.285046
0.284354
0.283669
0.282991
0.282319
0.281654
0.280997
0.280347
0.279705
0.279071
0.278444
0.277828
0.277218
0.276619
0.276031
0.275452
0.274882
0.274324
0.273778
0.273239
0.272698
0.272161
0.271646
0.271143
0.270646
0.270158
0.26968
0.269208
0.268737
0.268281
0.267842
0.267418
0.267003
0.266601
0.26621
0.265831
0.265463
0.265107
0.264764
0.264432
0.264113
0.263806
0.263511
0.263228
0.262958
0.2627
0.262453
0.262219
0.261997
0.261787
0.26159
0.261405
0.261232
0.26107
0.26092
0.260781
0.260652
0.260533
0.260424
0.260325
0.260236
0.260156
0.260086
0.260025
0.259973
0.25993
0.259898
0.25987
0.259852
0.25984
0.259824
0.259825
0.259807
0.259824
0.259784
0.259832
0.259773
0.259823
0.259752
0.259711
0.330276
0.329564
0.328846
0.328127
0.327399
0.326668
0.325933
0.32519
0.324442
0.323694
0.322942
0.322184
0.321422
0.320657
0.319886
0.31911
0.318332
0.317554
0.316773
0.315976
0.315173
0.314369
0.313583
0.312795
0.311988
0.311166
0.310335
0.30951
0.308688
0.30786
0.307045
0.306243
0.30543
0.3046
0.303776
0.302956
0.302138
0.301322
0.300509
0.299699
0.298892
0.298087
0.297283
0.296478
0.295672
0.294865
0.294062
0.293263
0.292469
0.29168
0.290896
0.290118
0.289344
0.288576
0.287813
0.287056
0.286305
0.28556
0.284822
0.284091
0.283366
0.282649
0.28194
0.281239
0.280546
0.279861
0.279184
0.278516
0.277856
0.277204
0.276562
0.275927
0.2753
0.274679
0.274066
0.27346
0.272858
0.27226
0.271679
0.27111
0.270555
0.270009
0.269468
0.268941
0.268421
0.267914
0.267422
0.266944
0.266477
0.26602
0.265572
0.265138
0.264716
0.264305
0.26391
0.263531
0.263165
0.262811
0.26247
0.262142
0.261827
0.261526
0.261239
0.260965
0.260706
0.260459
0.260227
0.260008
0.259801
0.259608
0.259428
0.25926
0.259106
0.258965
0.258837
0.258721
0.258618
0.258528
0.258451
0.258387
0.258336
0.258298
0.258272
0.258257
0.258254
0.258261
0.258281
0.258309
0.258357
0.258409
0.258485
0.258539
0.258623
0.258717
0.258732
0.258929
0.258777
0.259236
0.2588
0.332084
0.331343
0.330601
0.329854
0.329098
0.328335
0.327567
0.326793
0.32601
0.325218
0.324414
0.323602
0.322784
0.321956
0.321125
0.320292
0.319448
0.318586
0.317721
0.316867
0.316023
0.315175
0.314288
0.313396
0.312527
0.311661
0.310794
0.309935
0.309091
0.308239
0.307361
0.306467
0.305575
0.3047
0.303815
0.302921
0.302028
0.301141
0.300256
0.299375
0.298497
0.297622
0.296752
0.295887
0.295026
0.29417
0.293317
0.292461
0.291603
0.290753
0.289913
0.289078
0.288249
0.287425
0.286607
0.285795
0.28499
0.284191
0.283399
0.282615
0.281838
0.281068
0.280305
0.279551
0.278804
0.278066
0.277336
0.276613
0.2759
0.275195
0.274499
0.273812
0.273133
0.272461
0.271796
0.271142
0.270491
0.269846
0.269219
0.26861
0.268015
0.267426
0.266853
0.266298
0.265764
0.265244
0.264738
0.264251
0.263779
0.263315
0.262863
0.262421
0.26199
0.261571
0.261161
0.260758
0.260368
0.259995
0.259639
0.259298
0.258974
0.258665
0.258372
0.258094
0.257831
0.257582
0.257348
0.257129
0.256923
0.256731
0.256552
0.256387
0.256235
0.256096
0.255972
0.255867
0.255781
0.255714
0.255667
0.255639
0.255631
0.255644
0.255677
0.255731
0.255804
0.255902
0.256012
0.256144
0.256297
0.25645
0.256614
0.25694
0.256881
0.257623
0.256899
0.258722
0.256796
0.260087
0.256272
0.334154
0.333365
0.332569
0.331756
0.330935
0.33011
0.329272
0.328423
0.327566
0.326698
0.325851
0.325
0.324126
0.323243
0.322338
0.321428
0.320531
0.31964
0.318732
0.317807
0.316864
0.315916
0.314985
0.314058
0.31311
0.31216
0.311237
0.310317
0.309358
0.308381
0.307407
0.306435
0.305465
0.304496
0.303537
0.302596
0.30166
0.300718
0.299774
0.298828
0.297882
0.296936
0.295991
0.29505
0.294113
0.29318
0.292254
0.291322
0.290388
0.289458
0.288533
0.287619
0.286714
0.285818
0.284929
0.284047
0.28317
0.282301
0.281438
0.280583
0.279735
0.278895
0.278063
0.27724
0.276426
0.275621
0.274826
0.274041
0.273267
0.272507
0.271755
0.271018
0.270293
0.269583
0.268889
0.26821
0.267553
0.266908
0.266274
0.265646
0.265018
0.264405
0.2638
0.263199
0.262612
0.262033
0.26147
0.260919
0.260376
0.259851
0.259344
0.258852
0.258382
0.257932
0.2575
0.25709
0.2567
0.256323
0.255964
0.255617
0.255285
0.254968
0.254665
0.254378
0.254105
0.253848
0.253605
0.253378
0.253166
0.252972
0.252795
0.252637
0.252498
0.252383
0.252289
0.252217
0.252164
0.252132
0.252122
0.252134
0.252167
0.252223
0.252302
0.252405
0.252531
0.25268
0.25288
0.25308
0.253326
0.253734
0.253743
0.25475
0.253956
0.256628
0.25376
0.259739
0.25256
0.264714
0.247918
0.336424
0.335615
0.334781
0.333937
0.333088
0.332218
0.33133
0.330439
0.32956
0.328666
0.327722
0.326757
0.325798
0.324839
0.323917
0.322974
0.321976
0.320975
0.319967
0.318956
0.317949
0.31693
0.3159
0.314856
0.313817
0.312781
0.311725
0.310652
0.309572
0.308518
0.307478
0.306431
0.305382
0.304325
0.303276
0.302236
0.301192
0.300147
0.299106
0.298068
0.297031
0.295995
0.294958
0.293921
0.292884
0.291846
0.290801
0.289763
0.288742
0.287725
0.286705
0.28571
0.284748
0.283791
0.282835
0.281882
0.280935
0.279994
0.279061
0.278135
0.277218
0.27631
0.275412
0.274524
0.273646
0.272779
0.271925
0.271083
0.270252
0.269436
0.268626
0.267832
0.267048
0.266273
0.265509
0.264747
0.263993
0.263244
0.262508
0.261796
0.261116
0.260448
0.2598
0.25918
0.258577
0.257993
0.257426
0.256869
0.25633
0.255809
0.255292
0.254791
0.254304
0.253821
0.253354
0.252897
0.252451
0.252024
0.251607
0.25122
0.25086
0.250518
0.25019
0.249877
0.24958
0.249295
0.249026
0.248773
0.248545
0.248338
0.248156
0.247995
0.247858
0.247742
0.24765
0.247578
0.247529
0.2475
0.247495
0.247514
0.24756
0.247629
0.247731
0.247867
0.248037
0.248235
0.248481
0.248825
0.248948
0.249774
0.249351
0.251271
0.249573
0.253302
0.249526
0.255679
0.247842
0.262132
0.231776
0.339409
0.338549
0.337681
0.336795
0.335873
0.33493
0.333999
0.333042
0.332028
0.33101
0.329985
0.328969
0.327951
0.326891
0.32579
0.324683
0.323594
0.322524
0.321449
0.320336
0.319207
0.318085
0.316968
0.315847
0.314707
0.313548
0.312371
0.311204
0.310082
0.308942
0.307764
0.306593
0.305426
0.30426
0.303086
0.301909
0.300733
0.299563
0.298396
0.297231
0.296069
0.294912
0.293763
0.292622
0.29149
0.290368
0.289259
0.288158
0.287067
0.285982
0.284908
0.283817
0.282705
0.281608
0.280531
0.279469
0.27842
0.277384
0.276361
0.27535
0.274351
0.273365
0.27239
0.271427
0.270477
0.269537
0.268606
0.267686
0.266777
0.265876
0.264991
0.264116
0.263254
0.262408
0.261578
0.260769
0.259982
0.259232
0.258488
0.257747
0.257022
0.256311
0.255609
0.254905
0.254221
0.253555
0.252896
0.252265
0.251657
0.251051
0.250478
0.249928
0.24939
0.248882
0.248389
0.247916
0.247466
0.247028
0.246607
0.246194
0.245785
0.245392
0.245018
0.244662
0.244329
0.244016
0.24373
0.243466
0.243222
0.243
0.242796
0.242614
0.242452
0.242313
0.242194
0.242099
0.242026
0.24198
0.241958
0.241965
0.242
0.242064
0.242154
0.242276
0.242433
0.242609
0.242751
0.243127
0.243034
0.243813
0.243274
0.244572
0.243597
0.245167
0.244366
0.245323
0.244519
0.251714
0.219372
0.342999
0.342082
0.341124
0.340131
0.339132
0.338123
0.33706
0.335977
0.334905
0.333814
0.332699
0.331552
0.330387
0.329224
0.328059
0.326892
0.325692
0.324444
0.323195
0.321965
0.320739
0.319488
0.318214
0.316935
0.315658
0.314391
0.313149
0.311897
0.310613
0.309316
0.308038
0.30676
0.305476
0.304201
0.302911
0.301597
0.300291
0.298995
0.297701
0.296412
0.29513
0.293856
0.292588
0.291326
0.290064
0.288806
0.287557
0.286321
0.285098
0.283882
0.282682
0.281485
0.280292
0.279116
0.277954
0.276798
0.275651
0.274516
0.273394
0.272286
0.27119
0.270108
0.269038
0.267982
0.266935
0.265902
0.264877
0.263868
0.262872
0.261887
0.260922
0.259971
0.259039
0.258126
0.257238
0.256368
0.255516
0.254684
0.253855
0.253044
0.252262
0.251487
0.250725
0.249989
0.249265
0.248552
0.247865
0.247181
0.246509
0.24587
0.245234
0.244607
0.244006
0.24342
0.242848
0.242299
0.24177
0.241259
0.240774
0.240305
0.239861
0.239435
0.239035
0.238658
0.2383
0.237972
0.237658
0.237369
0.237101
0.236852
0.236622
0.236415
0.236227
0.236063
0.235918
0.235799
0.2357
0.235624
0.235572
0.235538
0.235525
0.235529
0.235546
0.235573
0.235609
0.235692
0.235647
0.235885
0.23571
0.23612
0.235852
0.236359
0.23615
0.236393
0.237019
0.23653
0.236633
0.243609
0.213911
0.347442
0.346377
0.345303
0.344216
0.343092
0.341935
0.340767
0.339587
0.338369
0.337126
0.335868
0.334618
0.333359
0.332049
0.330705
0.329342
0.327981
0.326646
0.325284
0.323886
0.322471
0.321048
0.319656
0.318276
0.316849
0.315398
0.313934
0.31248
0.311013
0.309537
0.308074
0.306615
0.305157
0.303705
0.302277
0.300875
0.29948
0.298074
0.296661
0.295251
0.293845
0.292443
0.291045
0.289654
0.288276
0.286892
0.285505
0.28413
0.282765
0.281414
0.280072
0.278753
0.27745
0.276161
0.274892
0.273636
0.272394
0.271163
0.269944
0.268737
0.267541
0.266357
0.265187
0.26403
0.262893
0.261773
0.260675
0.259591
0.258523
0.257472
0.256435
0.255416
0.254414
0.253424
0.252444
0.25148
0.250524
0.249588
0.248679
0.247792
0.246919
0.246079
0.245257
0.244438
0.243651
0.242897
0.242154
0.241429
0.240734
0.240061
0.2394
0.238763
0.238146
0.23753
0.236934
0.236361
0.2358
0.235255
0.234719
0.234207
0.233712
0.233243
0.232788
0.232353
0.231943
0.231546
0.231177
0.230826
0.230499
0.230189
0.229905
0.229639
0.229399
0.229174
0.228974
0.228788
0.228625
0.228475
0.228339
0.228222
0.22811
0.228015
0.227933
0.227857
0.227782
0.227767
0.227653
0.227742
0.227582
0.227786
0.227576
0.227864
0.227863
0.227575
0.228066
0.227106
0.22576
0.232697
0.206657
0.352809
0.351628
0.350394
0.349134
0.347855
0.346551
0.345205
0.343826
0.342441
0.341045
0.339598
0.338105
0.336609
0.335111
0.333629
0.332149
0.330619
0.32904
0.327463
0.325909
0.324371
0.322789
0.321172
0.319543
0.317923
0.316335
0.314743
0.31314
0.311541
0.309935
0.308329
0.306735
0.305134
0.303512
0.301883
0.300265
0.298648
0.297039
0.295453
0.293885
0.292325
0.29077
0.289219
0.287666
0.286111
0.284578
0.283091
0.281622
0.280159
0.278709
0.277257
0.275819
0.274385
0.272951
0.271525
0.270128
0.268754
0.2674
0.266059
0.264735
0.263425
0.262132
0.260851
0.259581
0.258324
0.257087
0.255868
0.254673
0.253506
0.252361
0.251245
0.250155
0.24909
0.24805
0.247028
0.246032
0.24506
0.244088
0.24313
0.242191
0.241272
0.24036
0.23946
0.238578
0.237709
0.236862
0.23604
0.235236
0.234448
0.233693
0.232956
0.232242
0.231547
0.230882
0.230248
0.229625
0.22903
0.228459
0.227913
0.227379
0.226874
0.226386
0.225913
0.22546
0.22502
0.224609
0.224201
0.223821
0.223454
0.223109
0.222778
0.222472
0.222174
0.221898
0.221631
0.221386
0.221147
0.220926
0.220719
0.220517
0.220339
0.220164
0.220009
0.219872
0.219716
0.219652
0.219462
0.219498
0.219269
0.219378
0.219198
0.219179
0.219452
0.219089
0.219098
0.218361
0.216975
0.223079
0.200392
0.358846
0.357449
0.35605
0.354604
0.353108
0.351587
0.350069
0.348518
0.346905
0.345282
0.343675
0.342063
0.34041
0.338724
0.336995
0.335247
0.333516
0.331816
0.330065
0.328263
0.326453
0.32466
0.322876
0.321096
0.319287
0.317475
0.315679
0.313862
0.312023
0.310196
0.308359
0.306497
0.304706
0.30299
0.301242
0.299459
0.297669
0.295892
0.29413
0.292375
0.290631
0.288903
0.287193
0.285527
0.28387
0.282186
0.280479
0.278796
0.277126
0.27548
0.273864
0.272254
0.270693
0.269148
0.267634
0.266144
0.264656
0.263177
0.261721
0.260285
0.258871
0.257477
0.256104
0.254757
0.253426
0.252116
0.250823
0.249545
0.248281
0.247035
0.245806
0.244589
0.243386
0.242207
0.241056
0.239923
0.238829
0.237782
0.236751
0.235738
0.234769
0.233848
0.232931
0.232031
0.231166
0.230329
0.2295
0.228683
0.227897
0.227108
0.226337
0.225585
0.224847
0.224128
0.223424
0.222741
0.222076
0.221446
0.220818
0.220222
0.219648
0.219093
0.218562
0.218047
0.217563
0.217083
0.216639
0.2162
0.215783
0.215382
0.214998
0.214626
0.214275
0.213933
0.213608
0.213296
0.212999
0.212718
0.212445
0.212203
0.211956
0.211744
0.211532
0.211368
0.211163
0.211071
0.210879
0.210851
0.2107
0.210702
0.210632
0.210497
0.210627
0.210051
0.209654
0.209049
0.207948
0.213197
0.193308
0.365583
0.364011
0.362355
0.36067
0.359003
0.3573
0.35551
0.353746
0.352002
0.350172
0.348259
0.34635
0.344429