/*--------------------------------*- C++ -*----------------------------------*\
| =========                 |                                                 |
| \\      /  F ield         | OpenFOAM: The Open Source CFD Toolbox           |
|  \\    /   O peration     | Version:  5.x                                   |
|   \\  /    A nd           | Web:      www.OpenFOAM.org                      |
|    \\/     M anipulation  |                                                 |
\*---------------------------------------------------------------------------*/
/*   Windows 32 and 64 bit porting by blueCAPE: http://www.bluecape.com.pt   *\
|  Based on Windows porting (2.0.x v4) by Symscape: http://www.symscape.com   |
\*---------------------------------------------------------------------------*/
FoamFile
{
    version     2.0;
    format      ascii;
    class       surfaceScalarField;
    location    "340";
    object      phi;
}
// * * * * * * * * * * * * * * * * * * * * * * * * * * * * * * * * * * * * * //

dimensions      [0 3 -1 0 0 0 0];

internalField   nonuniform List<scalar> 
87341
(
0.365839
39.5572
0.529701
39.7592
0.496371
39.9564
0.601996
39.8174
0.63808
39.887
0.682488
39.8786
0.719406
39.8861
0.75753
39.8849
0.79487
39.8857
0.826614
39.8913
0.858481
39.8912
0.883814
39.8977
0.906232
39.9006
0.930179
39.8991
0.949353
39.9039
0.966142
39.9062
0.988028
39.9012
1.00904
39.902
1.02503
39.907
1.04052
39.9075
1.05373
39.9098
1.06638
39.9104
1.07882
39.9106
1.09134
39.9105
1.108
39.9064
1.12405
39.907
1.13427
39.9128
1.14104
39.9163
39.9159
1.1482
0.9696
38.5876
1.36116
39.3676
1.47181
39.8457
1.60816
39.6811
1.64678
39.8483
1.80419
39.7212
1.90278
39.7875
2.03076
39.7569
2.12297
39.7935
2.22315
39.7911
2.31564
39.7987
2.40684
39.8065
2.49045
39.817
2.56248
39.8271
2.63276
39.8336
2.70398
39.835
2.76206
39.8431
2.80908
39.855
2.86037
39.8558
2.91092
39.857
2.95997
39.8608
3.00772
39.8626
3.05092
39.8674
3.08872
39.8727
3.1144
39.8807
3.13331
39.8881
3.15783
39.8883
3.19435
39.8798
39.8797
3.23053
2.03783
36.5498
3.35697
38.0485
4.13913
39.0636
4.22619
39.594
4.38703
39.6875
4.32523
39.783
4.36228
39.7505
4.34127
39.7779
4.3691
39.7657
4.3944
39.7658
4.42658
39.7665
4.46931
39.7638
4.52048
39.7658
4.57096
39.7766
4.62389
39.7807
4.67668
39.7822
4.72991
39.7898
4.78946
39.7955
4.84533
39.7999
4.89561
39.8067
4.9494
39.807
5.00168
39.8104
5.0475
39.8216
5.09425
39.826
5.14978
39.8252
5.21562
39.8222
5.2845
39.8194
5.33667
39.8276
39.8435
5.37288
1.70176
34.848
3.50748
36.2428
4.9636
37.6074
5.85626
38.7013
6.16226
39.3815
6.25409
39.6912
6.2735
39.7311
6.30967
39.7418
6.33151
39.7438
6.35014
39.7472
6.36765
39.749
6.37928
39.7521
6.39016
39.755
6.41344
39.7533
6.44148
39.7526
6.46335
39.7604
6.48937
39.7638
6.52315
39.7617
6.56189
39.7612
6.6043
39.7643
6.64179
39.7695
6.67689
39.7753
6.72422
39.7742
6.78219
39.768
6.84138
39.766
6.88808
39.7755
6.92065
39.7868
6.9483
39.7999
39.7896
7.00222
1.09214
33.7559
2.46293
34.872
4.03986
36.0305
5.50895
37.2323
6.5844
38.3061
7.17672
39.0989
7.38865
39.5191
7.4357
39.6947
7.48023
39.6993
7.52344
39.704
7.56141
39.711
7.60558
39.708
7.65106
39.7095
7.68588
39.7185
7.725
39.7135
7.77142
39.714
7.81318
39.722
7.85177
39.7231
7.89039
39.7225
7.93361
39.7211
7.98622
39.7169
8.04775
39.7137
8.10844
39.7135
8.15066
39.7258
8.17788
39.7388
8.21177
39.7417
8.26725
39.7314
8.34417
39.723
39.7212
8.41252
0.859399
32.8965
1.87775
33.8536
3.05311
34.8552
4.38994
35.8954
5.75189
36.9441
6.8972
37.9536
7.63276
38.7836
7.99474
39.3328
8.13234
39.5617
8.22057
39.6157
8.31145
39.6201
8.39441
39.625
8.47289
39.631
8.55637
39.635
8.63433
39.6355
8.7112
39.6371
8.80018
39.6331
8.89308
39.6302
8.97241
39.6432
9.05036
39.6431
9.12916
39.6381
9.20106
39.6418
9.26644
39.6482
9.34104
39.6512
9.43345
39.6463
9.53245
39.6427
9.61796
39.6459
9.69384
39.6471
39.6546
9.76044
0.756252
32.1402
1.61362
32.9962
2.57461
33.8942
3.64311
34.8269
4.80866
35.7786
6.03209
36.7301
7.1547
37.661
7.99387
38.4936
8.46167
39.0939
8.66804
39.4094
8.78784
39.5003
8.90898
39.5039
9.02874
39.5112
9.14099
39.5227
9.25589
39.5206
9.37404
39.5189
9.48189
39.5252
9.5882
39.5239
9.71385
39.5176
9.83629
39.5207
9.93711
39.5373
10.0375
39.5414
10.1476
39.538
10.2611
39.5377
10.3679
39.5395
10.4685
39.5421
10.5645
39.5499
10.6544
39.5572
39.571
10.738
0.701975
31.4382
1.47369
32.2245
2.3185
33.0494
3.23873
33.9067
4.23187
34.7854
5.2891
35.6729
6.39538
36.5547
7.47879
37.4102
8.3613
38.2114
8.92713
38.8436
9.20032
39.2271
9.352
39.3522
9.50562
39.3576
9.6609
39.3675
9.80396
39.3776
9.9512
39.3717
10.1074
39.369
10.2508
39.3806
10.3842
39.3841
10.5202
39.3847
10.6759
39.3816
10.8347
39.3826
10.9787
39.394
11.1138
39.4026
11.2433
39.4101
11.3687
39.4166
11.5
39.4186
11.6372
39.4201
39.4196
11.7886
0.673342
30.7649
1.3975
31.5004
2.17658
32.2703
3.0126
33.0707
3.90508
33.8929
4.85056
34.7274
5.84163
35.5636
6.86247
36.3893
7.88381
37.19
8.78095
37.9464
9.41991
38.5882
9.75857
39.0136
9.95209
39.1641
10.1447
39.1748
10.3388
39.1835
10.5191
39.1914
10.6941
39.1939
10.879
39.1958
11.0487
39.2144
11.2182
39.2152
11.3828
39.217
11.5454
39.22
11.7122
39.2272
11.8812
39.2337
12.0472
39.2441
12.2092
39.2546
12.3637
39.2641
12.51
39.2738
39.2847
12.645
0.656982
30.1079
1.35654
30.8008
2.09842
31.5284
2.8843
32.2848
3.71439
33.0628
4.58715
33.8547
5.49883
34.6519
6.44249
35.4457
7.40656
36.226
8.37236
36.9806
9.26885
37.6917
9.95762
38.3248
10.3566
38.7651
10.5862
38.9452
10.8047
38.965
11.0203
38.9759
11.2337
38.9805
11.4361
38.9933
11.6505
39
11.8556
39.0101
12.0461
39.0265
12.2286
39.0375
12.4162
39.0395
12.6104
39.0395
12.8007
39.0538
12.9855
39.0698
13.1736
39.0759
13.3746
39.0729
39.0872
13.572
0.654687
29.4532
1.34375
30.1118
2.06783
30.8043
2.82766
31.525
3.6232
32.2673
4.45341
33.0244
5.31603
33.7893
6.20727
34.5544
7.12113
35.3121
8.04828
36.0535
8.97239
36.7676
9.85888
37.4383
10.5721
38.0518
11.014
38.5034
11.2774
38.7016
11.5244
38.7288
11.7645
38.7404
12.0156
38.7422
12.2522
38.7634
12.489
38.7733
12.7362
38.7793
12.9751
38.7986
13.2028
38.8118
13.4159
38.8265
13.6343
38.8354
13.8539
38.8501
14.0574
38.8724
14.236
38.8942
38.9009
14.4223
0.658847
28.7944
1.3463
29.4243
2.06401
30.0866
2.81222
30.7767
3.59064
31.4889
4.39819
32.2169
5.23302
32.9545
6.09234
33.6951
6.97209
34.4324
7.8663
35.1592
8.76574
35.8681
9.6544
36.5496
10.5151
37.1911
11.2376
37.7808
11.7047
38.2345
11.9986
38.4349
12.2662
38.4728
12.521
38.4874
12.7902
38.4942
13.0533
38.5101
13.2995
38.5331
13.5661
38.5321
13.8216
38.5562
14.0673
38.5808
14.2935
38.6092
14.5296
38.614
14.7814
38.6206
15.0371
38.6385
38.6784
15.2597
0.665358
28.129
1.35745
28.7322
2.07635
29.3677
2.82199
30.0311
3.59393
30.7169
4.39128
31.4196
5.21241
32.1333
6.05501
32.8525
6.91598
33.5714
7.79111
34.2841
8.67455
34.9847
9.55785
35.6663
10.4282
36.3208
11.2718
36.9372
12.0012
37.5052
12.483
37.9531
12.8024
38.1533
13.1003
38.1895
13.3853
38.2093
13.6699
38.2255
13.9574
38.2455
14.2125
38.2771
14.4793
38.2894
14.7526
38.3074
15.0366
38.3252
15.2844
38.3662
15.5056
38.3994
15.7308
38.4133
38.4213
15.9878
0.676243
27.4528
1.37671
28.0317
2.10174
28.6427
2.85121
29.2816
3.62433
29.9438
4.42018
30.6237
5.23744
31.3161
6.07415
32.0158
6.9278
32.7177
7.79518
33.4167
8.67216
34.1077
9.55328
34.7852
10.4309
35.4432
11.2938
36.0743
12.1303
36.6686
12.8649
37.2186
13.356
37.6622
13.6924
37.8532
14.0149
37.8867
14.3222
37.9182
14.6204
37.9474
14.9199
37.9775
15.2032
38.0062
15.4801
38.0305
15.7592
38.0462
16.0539
38.0715
16.3656
38.0877
16.6451
38.1339
38.1907
16.8757
0.688296
26.7645
1.39915
27.3209
2.13262
27.9092
2.88867
28.5256
3.66663
29.1659
4.46525
29.8251
5.28326
30.4981
6.11905
31.18
6.97046
31.8663
7.83485
32.5524
8.70895
33.2336
9.5887
33.9055
10.4688
34.5631
11.3419
35.2012
12.1976
35.8129
13.0266
36.3895
13.7615
36.9273
14.2509
37.3638
14.5959
37.5417
14.942
37.5722
15.2674
37.622
15.5871
37.6578
15.9283
37.665
16.2548
37.7039
16.5629
37.7382
16.8591
37.7752
17.1201
37.8267
17.4173
37.8367
37.8655
17.7425
0.702468
26.062
1.42629
26.5971
2.17137
27.1641
2.9375
27.7595
3.7243
28.3791
4.53069
29.0187
5.35513
29.6736
6.19612
30.339
7.05189
31.0106
7.92021
31.684
8.79846
32.3554
9.68344
33.0205
10.5712
33.6754
11.4567
34.3157
12.3332
34.9365
13.1909
35.5318
14.0245
36.0937
14.7691
36.6192
15.2692
37.0416
15.6295
37.2119
16.009
37.2425
16.3679
37.299
16.699
37.334
17.042
37.3609
17.3835
37.3966
17.711
37.4477
18.0407
37.497
18.3228
37.5547
37.5933
18.5949
0.717576
25.3444
1.45569
25.8589
2.21423
26.4056
2.99282
26.9809
3.79099
27.5809
4.60809
28.2016
5.44281
28.8389
6.2935
29.4883
7.1585
30.1456
8.03589
30.8066
8.92344
31.4678
9.81858
32.1254
10.7183
32.7757
11.6188
33.4152
12.5154
34.0398
13.402
34.6452
14.2698
35.2258
15.1138
35.7753
15.8633
36.292
16.3698
36.7053
16.745
36.8673
17.1396
36.9044
17.5089
36.9647
17.8419
37.0279
18.1691
37.0695
18.4784
37.1384
18.7945
37.1809
19.1298
37.2194
37.2799
19.4432
0.731647
24.6128
1.48328
25.1073
2.25467
25.6342
3.0454
26.1901
3.85481
26.7715
4.68218
27.3742
5.52656
27.9945
6.38646
28.6284
7.26023
29.2718
8.14611
29.9208
9.042
30.5719
9.94558
31.2218
10.8542
31.8671
11.7647
32.5046
12.6734
33.1311
13.5757
33.7429
14.4654
34.3361
15.3344
34.9063
16.1773
35.4491
16.9174
35.9652
17.4213
36.3634
17.7977
36.5279
18.1801
36.5823
18.5616
36.6464
18.925
36.7061
19.2954
36.7679
19.6453
36.8311
19.9597
36.9049
36.94
20.2997
0.74497
23.8678
1.5095
24.3428
2.29332
24.8504
3.09598
25.3875
3.91684
25.9506
4.75502
26.536
5.60956
27.14
6.47919
27.7588
7.36226
28.3887
8.2571
29.0259
9.16187
29.6671
10.0745
30.3092
10.9925
30.949
11.9134
31.5838
12.8339
32.2106
13.7505
32.8263
14.6587
33.428
15.5529
34.012
16.4272
34.5749
17.2779
35.1144
18.0152
35.6261
18.5282
36.015
18.9266
36.1838
19.322
36.251
19.7059
36.3223
20.0836
36.3902
20.4711
36.4436
20.8476
36.5285
36.5922
21.1953
0.757367
23.1104
1.53398
23.5662
2.32957
24.0548
3.14367
24.5734
3.97563
25.1186
4.82462
25.6871
5.68961
26.275
6.56951
26.8789
7.46284
27.4954
8.36786
28.1209
9.28287
28.7521
10.206
29.3861
11.1351
30.0199
12.068
30.651
13.002
31.2766
13.9341
31.8942
14.8611
32.5011
15.7787
33.0944
16.6822
33.6713
17.5676
34.2291
18.4263
34.7675
19.1554
35.2858
19.6656
35.6736
20.0745
35.8421
20.4897
35.9071
20.8781
36.0018
21.2534
36.0683
21.6135
36.1684
36.2766
21.9291
0.768251
22.3422
1.5555
22.7789
2.36146
23.2488
3.18565
23.7492
4.02742
24.2769
4.88593
24.8285
5.76015
25.4008
6.64896
25.9901
7.55108
26.5933
8.46491
27.2071
9.38873
27.8283
10.3208
28.454
11.2591
29.0816
12.2015
29.7085
13.1458
30.3323
14.0894
30.9506
15.0294
31.5611
15.9624
32.1614
16.8846
32.7492
17.7916
33.3221
18.6801
33.8789
19.5423
34.4236
20.2622
34.9538
20.7702
35.3341
21.1883
35.4889
21.5947
35.5954
21.9995
35.6635
22.4223
35.7456
35.8755
22.8234
0.777626
21.5646
1.57406
21.9825
2.38898
22.4339
3.2219
22.9163
4.0722
23.4266
4.93904
23.9617
5.82141
24.5184
6.71816
25.0933
7.62804
25.6834
8.54959
26.2855
9.48116
26.8967
10.421
27.5142
11.3674
28.1353
12.3182
28.7577
13.2714
29.379
14.2248
29.9972
15.1758
30.6101
16.1216
31.2155
17.0593
31.8115
17.9854
32.396
18.8971
32.9672
19.7956
33.5251
20.6728
34.0765
21.3939
34.6131
21.8959
34.9869
22.3419
35.1494
22.7299
35.2754
23.0904
35.3851
35.481
23.4849
0.785557
20.779
1.5897
21.1783
2.41214
21.6115
3.25239
22.076
4.10981
22.5692
4.98359
23.0879
5.87274
23.6292
6.7761
24.19
7.69241
24.7671
8.6203
25.3576
9.55821
25.9588
10.5045
26.5679
11.4573
27.1824
12.415
27.8
13.3755
28.4185
14.3368
29.0359
15.2966
29.6502
16.2527
30.2595
17.2023
30.8619
18.1428
31.4555
19.0714
32.0387
19.9863
32.6101
20.8931
33.1697
21.7784
33.7278
22.4795
34.2857
22.9549
34.6741
23.3864
34.8439
23.7792
34.9923
35.1353
24.1249
0.791853
19.9872
1.60215
20.368
2.43054
20.7831
3.27656
21.23
4.13958
21.7061
5.0188
22.2087
5.91325
22.7348
6.82181
23.2814
7.74324
23.8457
8.67616
24.4247
9.61906
25.0159
10.5703
25.6167
11.5281
26.2246
12.4907
26.8374
13.4563
27.4529
14.4229
28.0693
15.3885
28.6847
16.3508
29.2972
17.3076
29.9051
18.2564
30.5067
19.1946
31.1004
20.1198
31.6849
21.0302
32.2594
21.935
32.823
22.8263
33.3944
23.5222
33.9783
23.9766
34.3895
24.4073
34.5616
34.7265
24.8161
0.796899
19.1903
1.61203
19.5529
2.44509
19.95
3.29561
20.3795
4.16297
20.8388
5.04638
21.3253
5.94487
21.8363
6.85732
22.369
7.78245
22.9205
8.7189
23.4883
9.66522
24.0696
10.6198
24.6621
11.5809
25.2634
12.5469
25.8714
13.5159
26.4839
14.4861
27.0992
15.4555
27.7153
16.422
28.3307
17.3835
28.9436
18.3378
29.5524
19.2826
30.1556
20.2156
30.752
21.1347
31.3403
22.0376
31.9201
22.9401
32.4919
23.8387
33.0797
24.5351
33.6931
24.963
34.1337
34.3179
25.3716
0.800456
18.3898
1.61897
18.7344
2.45523
19.1138
3.30879
19.5259
4.17903
19.9685
5.06518
20.4392
5.96629
20.9352
6.88124
21.454
7.8088
21.993
8.74759
22.5495
9.69616
23.121
10.6529
23.7054
11.6161
24.3002
12.584
24.9034
13.5549
25.513
14.5269
26.1272
15.4981
26.7441
16.4666
27.3622
17.4303
27.9798
18.3872
28.5955
19.3351
29.2077
20.2718
29.8153
21.1952
30.4169
22.1033
31.012
22.9947
31.6004
23.8906
32.1838
24.7889
32.7947
25.4796
33.4431
33.8984
25.899
0.80267
17.5871
1.62321
17.9139
2.4613
18.2757
3.31655
18.6707
4.18835
19.0967
5.07596
19.5515
5.97844
20.0327
6.8947
20.5378
7.8235
21.0642
8.76347
21.6095
9.71312
22.1714
10.6709
22.7477
11.635
23.3361
12.6037
23.9347
13.5752
24.5415
14.5477
25.1547
15.5191
25.7726
16.4877
26.3936
17.4515
27.0161
18.4083
27.6386
19.3563
28.2598
20.2932
28.8783
21.2171
29.493
22.1261
30.103
23.0189
30.7077
23.8954
31.3072
24.7831
31.9071
25.6855
32.5406
33.2228
26.3612
0.803536
16.7836
1.62472
17.0927
2.4633
17.4371
3.31888
17.8151
4.19094
18.2247
5.07874
18.6637
5.98137
19.1301
6.89774
19.6214
7.82659
20.1353
8.76653
20.6696
9.71606
21.2219
10.6736
21.7902
11.6374
22.3723
12.6057
22.9664
13.5766
23.5705
14.5484
24.183
15.519
24.802
16.4865
25.4261
17.4489
26.0537
18.4042
26.6833
19.3503
27.3137
20.2853
27.9433
21.2073
28.5711
22.1144
29.1959
23.0053
29.8168
23.879
30.4335
24.7386
31.0475
25.617
31.6622
32.3351
26.5048
0.802924
15.9807
1.62327
16.2723
2.46083
16.5995
3.31526
16.9606
4.18609
17.3538
5.07263
17.7772
5.97398
18.2287
6.88909
18.7063
7.81674
19.2077
8.75556
19.7307
9.70404
20.2734
10.6606
20.8336
11.6234
21.4095
12.5906
21.9992
13.5603
22.6008
14.5307
23.2126
15.4995
23.8331
16.465
24.4606
17.425
25.0937
18.3774
25.7309
19.3202
26.3708
20.2515
27.012
21.1692
27.6533
22.0716
28.2935
22.957
28.9314
23.8243
29.5663
24.6739
30.1979
25.5092
30.8269
31.465
26.3792
0.800843
15.1798
1.61885
15.4543
2.45388
15.7645
3.30568
16.1088
4.17385
16.4857
5.05774
16.8933
5.95653
17.3299
6.8692
17.7936
7.79454
18.2823
8.73118
18.7941
9.67762
19.3269
10.6322
19.879
11.5931
20.4486
12.5585
21.0338
13.5264
21.6329
14.4946
22.2444
15.4612
22.8665
16.424
23.4978
17.3809
24.1369
18.3297
24.7821
19.2682
25.4323
20.1944
26.0859
21.1061
26.7416
22.0015
27.3981
22.8787
28.0542
23.7361
28.7089
24.5728
29.3612
25.3888
30.0109
30.6576
26.1963
0.797189
14.3826
1.61125
14.6403
2.44214
14.9336
3.28972
15.2613
4.15367
15.6217
5.03342
16.0136
5.92822
16.4351
6.83709
16.8847
7.75887
17.3605
8.69219
17.8608
9.63551
18.3836
10.5871
18.9274
11.5453
19.4904
12.5081
20.0711
13.4734
20.6676
14.4392
21.2786
15.4032
21.9025
16.3631
22.5379
17.3167
23.1833
18.2617
23.8372
19.1956
24.4983
20.1163
25.1652
21.0215
25.8364
21.9089
26.5107
22.7766
27.1865
23.6227
27.8627
24.4458
28.5382
25.2447
29.212
29.8831
26.0192
0.791866
13.5908
1.60028
13.8318
2.42531
14.1086
3.26694
14.4196
4.12497
14.7637
4.99893
15.1396
5.88815
15.5459
6.79171
15.9812
7.7085
16.4438
8.63722
16.932
9.57637
17.4445
10.5243
17.9795
11.4791
18.5356
12.4389
19.1113
13.4015
19.705
14.3647
20.3155
15.326
20.9412
16.2832
21.5807
17.2336
22.2328
18.1749
22.8959
19.1045
23.5688
20.0198
24.2499
20.9184
24.9378
21.798
25.6311
22.6561
26.3284
23.4907
27.0281
24.2999
27.729
25.0822
28.4296
29.1288
25.8366
0.784829
12.8059
1.58584
13.0308
2.40324
13.2912
3.23718
13.5857
4.08758
13.9133
4.9541
14.2731
5.83617
14.6639
6.73298
15.0844
7.64349
15.5332
8.56645
16.0091
9.5004
16.5105
10.4437
17.0362
11.3945
17.5848
12.3507
18.155
13.3102
18.7456
14.2705
19.3551
15.2293
19.9824
16.1838
20.6262
17.1315
21.2851
18.0696
21.9578
18.9954
22.643
19.9061
23.3392
20.7988
24.045
21.671
24.7589
22.5201
25.4793
23.3436
26.2047
24.1393
26.9333
24.9054
27.6635
28.3937
25.6404
0.776024
12.0299
1.56784
12.239
2.37579
12.4833
3.20023
12.7612
4.04124
13.0723
4.89861
13.4157
5.77191
13.7906
6.66043
14.1959
7.56323
14.6304
8.47915
15.0932
9.40677
15.5829
10.3444
16.0985
11.2903
16.6389
12.2422
17.203
13.1981
17.7897
14.1554
18.3978
15.1117
19.0262
16.064
19.6738
17.0096
20.3395
17.9454
21.022
18.8684
21.72
19.7754
22.4322
20.6634
23.157
21.5293
23.893
22.3702
24.6384
23.1833
25.3915
23.9662
26.1504
24.7164
26.9133
27.6779
25.4323
0.765407
11.2645
1.54618
11.4582
2.34285
11.6866
3.15596
11.9481
3.98577
12.2425
4.83223
12.5692
5.69504
12.9278
6.57362
13.3173
7.46716
13.7369
8.37458
14.1858
9.29454
14.6629
10.2255
15.1676
11.1656
15.6988
12.1128
16.2558
13.0649
16.8376
14.0192
17.4434
14.9732
18.0723
15.9237
18.7233
16.8678
19.3954
17.8022
20.0877
18.7234
20.7988
19.628
21.5276
20.5125
22.2725
21.3735
23.032
22.2076
23.8043
23.0116
24.5876
23.7825
25.3796
24.5176
26.1781
26.9807
25.2148
0.752948
10.5116
1.52084
10.6903
2.30439
10.903
3.10436
11.1482
3.92119
11.4257
4.75499
11.7354
5.60563
12.0771
6.47267
12.4502
7.35544
12.8541
8.25297
13.2882
9.16406
13.7519
10.0872
14.2444
11.0207
14.7653
11.9626
15.3139
12.9104
15.8898
13.8617
16.4922
14.8134
17.1205
15.7626
17.7741
16.7059
18.4521
17.6398
19.1538
18.5605
19.8781
19.4642
20.6239
20.3469
21.3898
21.2046
22.1743
22.0334
22.9755
22.8297
23.7913
23.5899
24.6194
24.3109
25.4571
26.3016
24.9901
0.738616
9.77295
1.49179
9.93717
2.2604
10.1344
3.04544
10.3631
3.84752
10.6236
4.66695
10.916
5.50375
11.2403
6.35765
11.5963
7.22813
11.9837
8.11438
12.402
9.01533
12.8509
9.92959
13.3302
10.8555
13.8394
11.791
14.3784
12.734
14.9469
13.6817
15.5445
14.6313
16.1709
15.5796
16.8258
16.523
17.5087
17.4576
18.2191
18.3794
18.9563
19.2839
19.7194
20.1667
20.507
21.0231
21.3179
21.8487
22.1499
22.639
23.001
23.39
23.8684
24.098
24.7491
25.6397
24.7598
0.722378
9.05058
1.45899
9.20056
2.21088
9.38252
2.97921
9.5948
3.76481
9.83798
4.56814
10.1127
5.38939
10.4191
6.22848
10.7572
7.08504
11.1271
7.95843
11.5286
8.84774
11.9616
9.75171
12.4262
10.6688
12.9223
11.5972
13.45
12.5347
14.0094
13.4787
14.6005
14.4263
15.2233
15.3741
15.8779
16.3185
16.5644
17.2552
17.2825
18.1796
18.0319
19.087
18.812
19.9722
19.6219
20.8298
20.4603
21.6545
21.3252
22.4411
22.2144
23.1847
23.1248
23.8809
24.0529
24.9946
24.526
0.704206
8.34637
1.42245
8.48232
2.15582
8.64915
2.90569
8.84493
3.67305
9.07063
4.45851
9.32721
5.26246
9.61515
6.08497
9.93473
6.92588
10.2862
7.78473
10.6697
8.66077
11.0856
9.55295
11.534
10.46
12.0153
11.3801
12.5299
12.3114
13.0781
13.2513
13.6606
14.1968
14.2778
15.1446
14.9301
16.0908
15.6182
17.0309
16.3423
17.9601
17.1027
18.8728
17.8993
19.7632
18.7315
20.625
19.5984
21.4519
20.4983
22.2376
21.4287
22.9761
22.3862
23.6622
23.3668
24.3654
24.2913
0.684098
7.66227
1.38216
7.78426
2.09525
7.93606
2.82486
8.11532
3.57214
8.32335
4.33788
8.56147
5.12261
8.83041
5.92663
9.13071
6.74995
9.46286
7.59233
9.82734
8.45323
10.2247
9.33187
10.6554
10.2271
11.1201
11.1375
11.6195
12.0613
12.1544
12.9961
12.7258
13.9391
13.3348
14.887
13.9822
15.8359
14.6693
16.7811
15.3971
17.7172
16.1666
18.6382
16.9783
19.5374
17.8324
20.4074
18.7284
21.2406
19.6651
22.0294
20.6399
22.7663
21.6493
23.4446
22.6884
23.7511
24.059
0.662094
7.00018
1.33819
7.10816
2.02917
7.24509
2.73662
7.40786
3.46184
7.59813
4.20578
7.81753
4.96916
8.06703
5.75244
8.34743
6.55585
8.65944
7.37937
9.00382
8.22274
9.38131
9.08541
9.79271
9.96657
10.2389
10.8651
10.721
11.7794
11.24
12.7076
11.7976
13.6472
12.3952
14.595
13.0344
15.5471
13.7172
16.4987
14.4455
17.4442
15.2211
18.3768
16.0456
19.289
16.9202
20.1721
17.8453
21.017
18.8201
21.8143
19.8427
22.5545
20.9091
23.2291
22.0138
23.149
23.8312
0.63829
6.36189
1.29063
6.45582
1.95756
6.57816
2.64079
6.72462
3.34174
6.89718
4.06152
7.09775
4.80101
7.32755
5.56087
7.58756
6.34155
7.87877
7.14327
8.20211
7.96603
8.55855
8.80962
8.94911
9.6736
9.37493
10.5572
9.83732
11.4595
10.3378
12.3788
10.8782
13.3132
11.4608
14.2596
12.088
15.2146
12.7623
16.1733
13.4867
17.13
14.2644
18.0775
15.0982
19.0071
15.9906
19.9091
16.9433
20.7724
17.9569
21.5851
19.0299
22.3355
20.1588
23.0122
21.337
22.5552
23.606
0.612827
5.74906
1.23955
5.8291
1.88035
5.93736
2.53707
6.0679
3.21125
6.223
3.90415
6.40485
4.61682
6.61488
5.35011
6.85427
6.10468
7.1242
6.88101
7.42578
7.67942
7.76014
8.50009
8.12844
9.34302
8.532
10.208
8.97236
11.0944
9.45136
12.0014
9.97125
12.9274
10.5348
13.8703
11.1451
14.8266
11.8059
15.7921
12.5213
16.7609
13.2956
17.7255
14.1335
18.6767
15.0394
19.6032
16.0168
20.4919
17.0681
21.3284
18.1934
22.0974
19.3898
22.7841
20.6503
21.9635
23.3757
0.585853
5.16321
1.18501
5.22994
1.79742
5.32495
2.42511
5.44021
3.06976
5.57835
3.73275
5.74186
4.41531
5.93233
5.11845
6.15112
5.84307
6.39958
6.58992
6.67893
7.35969
6.99037
8.15297
7.33516
8.97026
7.71471
9.8119
8.13071
10.678
8.58527
11.5683
9.08097
12.482
9.62106
13.4176
10.2096
14.3724
10.8511
15.3426
11.5511
16.3227
12.3155
17.3053
13.1509
18.2806
14.064
19.2364
15.0611
20.1574
16.1471
21.026
17.3248
21.823
18.5928
22.5289
19.9445
21.3663
23.1261
0.557471
4.60574
1.12702
4.66039
1.70864
4.74334
2.30468
4.84417
2.9169
4.96612
3.54683
5.11193
4.19581
5.28334
4.86507
5.48187
5.55572
5.70893
6.26884
5.96581
7.00548
6.25373
7.76672
6.57392
8.55359
6.92784
9.36704
7.31726
10.2079
7.74444
11.0766
8.21226
11.9732
8.72448
12.8968
9.28595
13.8456
9.90228
14.8166
10.5801
15.8053
11.3269
16.8045
12.1517
17.8046
13.0639
18.7924
14.0733
19.7509
15.1886
20.6594
16.4163
21.4937
17.7585
22.2283
19.2099
20.7552
22.8394
0.52771
4.07803
1.06558
4.12252
1.61408
4.19483
2.17594
4.28231
2.75299
4.38907
3.34684
4.51809
3.95899
4.67119
4.59086
4.85
5.24381
5.05597
5.91926
5.29036
6.61868
5.5543
7.34362
5.84899
8.09566
6.1758
8.87637
6.53655
9.68721
6.93361
10.5293
7.37017
11.4033
7.85052
12.3092
8.38001
13.2465
8.96502
14.2132
9.61333
15.2057
10.3344
16.2181
11.1393
17.2409
12.041
18.2611
13.0532
19.26
14.1896
20.214
15.4624
21.0939
16.8786
21.8666
18.4372
20.1221
22.4998
0.49655
3.58148
1.00085
3.61822
1.51425
3.68143
2.03983
3.75673
2.57943
3.84946
3.13475
3.96277
3.70744
4.09851
4.2991
4.25834
4.9114
4.44367
5.54611
4.65565
6.20511
4.8953
6.89042
5.16368
7.60411
5.4621
8.34824
5.79242
9.12469
6.15716
9.93509
6.55978
10.7809
7.00469
11.6635
7.49746
12.5832
8.04527
13.5394
8.65709
14.5297
9.34407
15.5494
10.1196
16.5906
10.9999
17.6404
12.0034
18.68
13.15
19.683
14.4594
20.6151
15.9465
21.4338
17.6185
19.4592
22.0966
0.464039
3.11744
0.933343
3.14892
1.41029
3.20449
1.89824
3.26878
2.39895
3.34875
2.9142
3.44752
3.44579
3.56692
3.99554
3.70859
4.5654
3.87381
5.1575
4.06355
5.7741
4.27871
6.41756
4.52022
7.09024
4.78943
7.79448
5.08817
8.53269
5.41895
9.30727
5.7852
10.1205
6.19143
10.9745
6.64347
11.8707
7.14909
12.8096
7.71822
13.7903
8.36334
14.81
9.09995
15.8625
9.94734
16.9368
10.9292
18.0146
12.0721
19.0676
13.4064
20.0568
14.9573
20.9282
16.7471
18.7596
21.6279
0.430433
2.68701
0.864075
2.71528
1.30412
2.76445
1.75405
2.81885
2.21547
2.88732
2.69026
2.97273
3.18034
3.07684
3.68774
3.20119
4.21469
3.34687
4.76355
3.51469
5.33681
3.70545
5.93702
3.92001
6.56691
4.15954
7.22931
4.42577
7.92703
4.72123
8.66293
5.0493
9.43986
5.4145
10.2605
5.82287
11.1271
6.28246
12.0416
6.80371
13.0049
7.40006
14.0161
8.08872
15.0716
8.89183
16.1627
9.83813
17.2735
10.9613
18.3751
12.3048
19.4256
13.9067
20.3561
15.8166
18.0156
21.1
0.396292
2.29071
0.794515
2.31706
1.19819
2.36077
1.61075
2.40629
2.03361
2.46447
2.4687
2.53764
2.91806
2.62748
3.38389
2.73535
3.86853
2.86222
4.37449
3.00873
4.90454
3.1754
5.46154
3.36301
6.04842
3.57265
6.66821
3.80598
7.32399
4.06545
8.01891
4.35438
8.75617
4.67724
9.539
5.04004
10.3706
5.45081
11.2542
5.92017
12.1922
6.462
13.1862
7.0948
14.2352
7.84278
15.3339
8.73949
16.4704
9.82475
17.6167
11.1585
18.732
12.7915
19.7286
14.82
17.2178
20.5264
0.362437
1.92828
0.726385
1.95311
1.09516
1.99199
1.47192
2.02954
1.85789
2.0785
2.25505
2.14048
2.66548
2.21705
3.09142
2.30941
3.53538
2.41826
4.00005
2.54406
4.4883
2.68715
5.00308
2.84823
5.54741
3.02833
6.12438
3.22901
6.73724
3.45259
7.38935
3.70227
8.08425
3.98234
8.82569
4.29861
9.61766
4.65884
10.4643
5.07348
11.37
5.55639
12.3381
6.12671
13.3711
6.80969
14.4674
7.64323
15.6212
8.67099
16.8067
9.97302
17.99
11.6082
19.0611
13.7488
16.3503
19.9286
0.329792
1.59848
0.661335
1.62156
0.997392
1.65593
1.34062
1.68631
1.69209
1.72703
2.05379
1.77878
2.42779
1.84305
2.81643
1.92077
3.22226
2.01244
3.64799
2.11833
4.09643
2.23871
4.57051
2.37414
5.07327
2.52558
5.60781
2.69447
6.17744
2.88296
6.78567
3.09404
7.43631
3.3317
8.13353
3.60139
8.88198
3.91039
9.68681
4.26864
10.5537
4.68953
11.4882
5.19218
12.4964
5.8015
13.5806
6.55905
14.7429
7.50862
15.9615
8.75443
17.2174
10.3523
18.3763
12.5899
15.385
19.3417
0.299175
1.29931
0.600656
1.32008
0.906626
1.34996
1.219
1.37394
1.53878
1.40724
1.86794
1.44962
2.20855
1.50244
2.56291
1.56641
2.93352
1.64183
3.323
1.72885
3.73406
1.82764
4.16953
1.93867
4.63231
2.06279
5.12548
2.2013
5.65232
2.35612
6.21642
2.52994
6.82177
2.72636
7.47287
2.95028
8.17495
3.20831
8.934
3.5096
9.75697
3.86655
10.6515
4.29765
11.6272
4.82582
12.6908
5.49544
13.8539
6.34552
15.1008
7.50754
16.4364
9.01666
17.7096
11.3167
14.27
18.8246
0.271143
1.02817
0.545119
1.04611
0.82384
1.07124
1.10818
1.0896
1.39925
1.11617
1.69895
1.14992
2.00929
1.19211
2.33249
1.24321
2.67092
1.3034
3.02707
1.37271
3.40346
1.45125
3.80273
1.5394
4.22764
1.63788
4.68112
1.74782
5.16637
1.87087
5.68697
2.00934
6.247
2.16633
6.85121
2.34607
7.50524
2.55427
8.21585
2.79899
8.9912
3.0912
9.84094
3.4479
10.7777
3.88902
11.8137
4.45949
12.9702
5.189
14.2442
6.23353
15.6675
7.59341
17.109
9.87518
12.9208
18.4582
0.245955
0.782212
0.494986
0.797076
0.74928
0.816946
1.00834
0.830533
1.2736
0.850917
1.54681
0.87671
1.82988
0.909034
2.12492
0.948172
2.43414
0.994181
2.75981
1.04703
3.10427
1.10679
3.46993
1.17374
3.85934
1.24848
4.27524
1.33192
4.72069
1.42542
5.19919
1.53084
5.71481
1.65071
6.27242
1.78846
6.87794
1.94875
7.5387
2.13824
8.2639
2.36601
9.06513
2.64667
9.95745
2.9967
10.9593
3.45763
12.0999
4.04841
13.4009
4.93257
14.913
6.08122
16.6251
8.16316
11.2281
18.3177
0.223702
0.558509
0.450111
0.570668
0.682613
0.584444
0.918944
0.594201
1.16105
0.608814
1.41046
0.627292
1.669
0.650497
1.93861
0.678563
2.22132
0.711472
2.51919
0.749162
2.83431
0.791664
3.16887
0.83919
3.52516
0.892182
3.90574
0.951343
4.31347
1.01769
4.7517
1.09261
5.2244
1.17801
5.73642
1.27644
6.29377
1.39141
6.90407
1.52794
7.57715
1.69292
8.32618
1.89764
9.16806
2.15483
10.1273
2.49838
11.2371
2.9386
12.5519
3.61775
14.1366
4.49654
16.2124
6.08741
9.07872
18.3618
0.204408
0.354101
0.410007
0.365069
0.623093
0.371357
0.838932
0.378362
1.06022
0.387527
1.28821
0.399298
1.52461
0.414097
1.77121
0.43197
2.02981
0.452863
2.30227
0.476707
2.59042
0.503512
2.8962
0.533415
3.22166
0.566713
3.56914
0.603872
3.94126
0.645564
4.34117
0.692704
4.77265
0.746527
5.24038
0.808712
5.75023
0.881552
6.30984
0.968332
6.92913
1.07362
7.62191
1.20486
8.40614
1.3706
9.31025
1.59427
10.3691
1.87971
11.6586
2.32824
13.2687
2.88646
15.6189
3.73727
6.46747
18.2301
0.187733
0.166368
0.373916
0.178886
0.569785
0.175489
0.766988
0.181158
0.969449
0.185067
1.17802
0.190723
1.39433
0.197788
1.61999
0.206316
1.8566
0.216251
2.10576
0.227547
2.36907
0.240203
2.6482
0.254286
2.94497
0.269941
3.26144
0.2874
3.60002
0.30699
3.96356
0.329156
4.3556
0.354495
4.7805
0.383813
5.24382
0.418226
5.75287
0.459289
6.3172
0.509287
6.95042
0.571647
7.67024
0.650776
8.50629
0.758221
9.49177
0.894239
10.7071
1.11292
12.2317
1.36179
14.5539
1.4151
3.59881
17.4226
0.166368
0.345254
0.520743
0.701901
0.886968
1.07769
1.27548
1.48179
1.69805
1.92559
2.1658
2.42008
2.69002
2.97742
3.28441
3.61357
3.96806
4.35188
4.7701
5.22939
5.73868
6.31032
6.9611
7.71932
8.61356
9.72648
11.0883
12.5034
16.1022
1.16029
54.1281
1.17774
54.1228
1.19463
54.1233
1.19959
54.1353
1.19222
54.1476
1.18849
54.144
1.19849
54.1302
1.21472
54.124
1.22069
54.1343
1.20888
54.1521
1.19288
54.1562
1.19237
54.1407
1.20138
54.1312
1.19218
54.1494
1.16848
54.1639
1.1579
54.1508
1.17336
54.1248
1.198
54.1156
1.20089
54.1373
1.19299
54.1481
1.19994
54.1333
1.23629
54.1039
1.28282
54.0937
1.31288
54.1102
1.31875
54.1344
1.31931
54.1397
1.31639
54.1431
1.30728
54.1493
1.30961
54.1379
1.33531
54.1145
1.37567
54.0999
1.41574
54.1002
1.42613
54.1298
1.42797
54.1384
1.43078
54.1374
1.43429
54.1367
1.43826
54.1363
1.44247
54.136
1.44683
54.1359
1.45127
54.1358
1.45561
54.1359
1.45957
54.1363
1.46263
54.1372
1.46464
54.1382
1.4658
54.1391
1.46663
54.1394
1.46717
54.1397
1.46784
54.1396
1.46819
54.1399
1.46843
54.14
1.46829
54.1404
1.46791
54.1406
1.46697
54.1412
1.46544
54.1418
1.46339
54.1423
1.46089
54.1427
1.45742
54.1437
1.4536
54.1441
1.44886
54.145
1.4438
54.1453
1.43805
54.146
1.4316
54.1467
1.42489
54.1469
1.41712
54.148
1.40923
54.1481
1.40034
54.1491
1.39132
54.1493
1.38067
54.1509
1.37054
54.1504
1.35942
54.1514
1.3477
54.1519
1.33677
54.1512
1.32246
54.1545
1.3102
54.1525
1.29563
54.1548
1.282
54.1539
1.26722
54.155
1.25046
54.157
1.23344
54.1573
1.21685
54.1568
1.19637
54.1607
1.17229
54.1643
1.14966
54.1629
1.12916
54.1607
1.10952
54.1599
1.08819
54.1616
1.07194
54.1565
1.05716
54.155
1.03569
54.1617
1.01208
54.1638
0.989119
54.1632
0.966912
54.1624
0.944977
54.1622
0.923
54.1622
0.900591
54.1626
0.878108
54.1627
0.854701
54.1636
0.831466
54.1635
0.807671
54.164
0.783723
54.1642
0.759549
54.1644
0.735187
54.1646
0.710713
54.1647
0.686076
54.1649
0.661521
54.1648
0.636837
54.1649
0.612454
54.1646
0.587921
54.1648
0.563509
54.1646
0.538971
54.1648
0.514425
54.1648
0.489712
54.1649
0.465014
54.1649
0.440101
54.1651
0.415199
54.1651
0.390133
54.1653
0.365116
54.1653
0.340091
54.1653
0.315029
54.1653
0.289967
54.1653
0.264862
54.1653
0.239843
54.1653
0.2148
54.1653