/*--------------------------------*- C++ -*----------------------------------*\
| =========                 |                                                 |
| \\      /  F ield         | OpenFOAM: The Open Source CFD Toolbox           |
|  \\    /   O peration     | Version:  5.x                                   |
|   \\  /    A nd           | Web:      www.OpenFOAM.org                      |
|    \\/     M anipulation  |                                                 |
\*---------------------------------------------------------------------------*/
/*   Windows 32 and 64 bit porting by blueCAPE: http://www.bluecape.com.pt   *\
|  Based on Windows porting (2.0.x v4) by Symscape: http://www.symscape.com   |
\*---------------------------------------------------------------------------*/
FoamFile
{
    version     2.0;
    format      ascii;
    class       volVectorField;
    location    "340";
    object      U;
}
// * * * * * * * * * * * * * * * * * * * * * * * * * * * * * * * * * * * * * //

dimensions      [0 1 -1 0 0 0 0];

internalField   nonuniform List<vector> 
43900
(
(1.16163 -0.000736273 -1.61379e-027)
(1.16714 0.00217874 -4.32466e-027)
(1.16972 0.000364673 1.44294e-030)
(1.16838 0.00183032 2.81987e-030)
(1.16973 0.000794742 3.65755e-030)
(1.16991 0.00199518 3.66862e-030)
(1.17011 0.00117818 5.77332e-027)
(1.17052 0.00188249 -1.15263e-026)
(1.17043 0.00164285 9.68745e-030)
(1.17008 0.00181075 -1.14979e-026)
(1.17008 0.00191002 1.15209e-026)
(1.17006 0.00195535 1.15661e-029)
(1.16994 0.00198965 -1.14624e-026)
(1.16992 0.00203425 2.50059e-029)
(1.16993 0.00212605 2.55948e-029)
(1.17005 0.00212803 2.62774e-029)
(1.17003 0.00217208 -2.28159e-026)
(1.16979 0.00224996 5.49281e-029)
(1.16977 0.00225191 2.28446e-026)
(1.16986 0.00231896 2.85216e-029)
(1.16996 0.00234109 2.89919e-029)
(1.17001 0.00235348 2.94722e-029)
(1.16986 0.00241515 2.98511e-029)
(1.1699 0.0024059 3.02617e-029)
(1.17004 0.0024568 3.06116e-029)
(1.17 0.0025095 -2.25488e-026)
(1.16997 0.00250211 6.26372e-029)
(1.16995 0.00256097 6.31801e-029)
(1.16991 0.00255452 8.99962e-026)
(1.15869 0.0114643 0)
(1.16551 -0.00498375 0)
(1.17144 0.00906927 0)
(1.16661 -0.000188538 0)
(1.16845 0.00620071 0)
(1.16802 0.00273315 0)
(1.16835 0.00491343 0)
(1.16769 0.00462218 0)
(1.16815 0.00463384 0)
(1.16859 0.00531608 0)
(1.16862 0.00531091 0)
(1.16893 0.00549319 0)
(1.16914 0.00579892 0)
(1.16903 0.00600443 0)
(1.16924 0.00609103 0)
(1.16922 0.00628643 0)
(1.16893 0.00648045 0)
(1.16918 0.00653301 0)
(1.16946 0.00670595 0)
(1.16939 0.0068071 0)
(1.1694 0.00688556 0)
(1.16936 0.00707415 0)
(1.16949 0.00711381 0)
(1.16944 0.00724557 0)
(1.16905 0.00734056 0)
(1.1691 0.00731318 0)
(1.16944 0.00744934 0)
(1.16964 0.0074666 0)
(1.16963 0.00755242 0)
(1.10202 0.0321416 0)
(1.14469 -0.0175778 0)
(1.16304 0.028826 0)
(1.16319 -0.00367825 0)
(1.16633 0.0209193 0)
(1.16424 0.004018 0)
(1.16579 0.0150678 0)
(1.1665 0.00841657 0)
(1.16663 0.0118913 0)
(1.16662 0.0106399 0)
(1.16681 0.0108127 0)
(1.16685 0.0111731 0)
(1.16708 0.0111751 0)
(1.1675 0.0112727 0)
(1.16747 0.0114338 0)
(1.16736 0.0115871 0)
(1.16787 0.0116743 0)
(1.16815 0.0118652 0)
(1.16778 0.012 0)
(1.16783 0.0120563 0)
(1.16793 0.0123017 0)
(1.16784 0.0123667 0)
(1.16783 0.0124755 0)
(1.16813 0.012646 0)
(1.16885 0.0126781 0)
(1.16914 0.0129213 0)
(1.16876 0.0130551 0)
(1.16804 0.0131932 0)
(1.16803 0.0133387 1.58253e-027)
(1.0407 0.0199876 0)
(1.08657 -0.00670263 0)
(1.12948 0.0201218 0)
(1.15548 0.00822486 0)
(1.16321 0.0222875 0)
(1.16588 0.0107959 0)
(1.16465 0.0206314 0)
(1.16347 0.01372 0)
(1.1645 0.0182088 0)
(1.1646 0.0158368 0)
(1.16469 0.0169562 0)
(1.16497 0.0166737 0)
(1.16504 0.0167371 0)
(1.16516 0.0167892 0)
(1.16549 0.0168322 0)
(1.16567 0.0169321 0)
(1.16552 0.0169975 0)
(1.16557 0.0170497 0)
(1.16612 0.0171133 0)
(1.1664 0.0173344 0)
(1.16627 0.0173552 0)
(1.1665 0.0174203 0)
(1.16704 0.0176293 0)
(1.16696 0.0176678 0)
(1.16616 0.0178755 0)
(1.16558 0.0180477 0)
(1.1657 0.0180694 0)
(1.1668 0.018207 0)
(1.16765 0.0182989 1.68915e-027)
(1.00332 0.0101913 3.38364e-027)
(1.03882 -0.000897531 0)
(1.07568 0.0108324 0)
(1.11395 0.0129144 0)
(1.14432 0.0183308 0)
(1.15993 0.0173809 0)
(1.16324 0.0228611 0)
(1.16429 0.018591 0)
(1.16333 0.0217118 0)
(1.16349 0.020381 0)
(1.16349 0.0208252 0)
(1.16327 0.0211565 0)
(1.16355 0.0210687 0)
(1.1636 0.0212003 0)
(1.16342 0.0213152 0)
(1.16374 0.0214328 0)
(1.1642 0.0215481 0)
(1.16414 0.021658 0)
(1.16373 0.0218326 0)
(1.16374 0.0218373 0)
(1.1642 0.0219921 0)
(1.16431 0.0222602 0)
(1.16379 0.0222979 0)
(1.16348 0.0225039 0)
(1.16406 0.0226328 0)
(1.16525 0.0226198 0)
(1.16579 0.0228233 0)
(1.16543 0.0229703 0)
(1.16405 0.0231649 -7.11198e-027)
(0.976016 0.00684316 -3.5313e-027)
(1.00589 0.000682115 0)
(1.03711 0.00760851 0)
(1.06951 0.0110602 0)
(1.10195 0.0149375 0)
(1.13228 0.0182517 0)
(1.15265 0.0222088 0)
(1.16095 0.0223498 0)
(1.1622 0.0246392 0)
(1.16193 0.0231023 0)
(1.16206 0.0244799 0)
(1.1622 0.0243307 0)
(1.16189 0.0246083 0)
(1.1621 0.0248313 0)
(1.16229 0.0251103 0)
(1.16192 0.0253328 0)
(1.16198 0.0255216 0)
(1.16229 0.0258986 0)
(1.16262 0.0260043 0)
(1.16265 0.0263635 0)
(1.16215 0.0265993 0)
(1.16189 0.0266681 0)
(1.16239 0.0269878 0)
(1.16342 0.0272262 0)
(1.16367 0.0273346 0)
(1.16283 0.0277134 0)
(1.16184 0.0279564 0)
(1.16177 0.0281808 0)
(1.16312 0.028453 3.76262e-027)
(0.952781 0.00528803 0)
(0.979103 0.00143633 0)
(1.00668 0.00646576 0)
(1.03532 0.00969774 0)
(1.06445 0.0130374 0)
(1.09338 0.0166759 0)
(1.12144 0.0204479 0)
(1.14478 0.0233497 0)
(1.15637 0.0260355 0)
(1.15959 0.0265929 0)
(1.15954 0.0265415 0)
(1.15943 0.0274678 0)
(1.15983 0.0275956 0)
(1.1595 0.0279863 0)
(1.15945 0.0283747 0)
(1.15994 0.0286698 0)
(1.15958 0.0291399 0)
(1.15918 0.0293165 0)
(1.1596 0.0298051 0)
(1.15966 0.0301355 0)
(1.15981 0.0303952 0)
(1.16037 0.0308935 0)
(1.16036 0.0311266 0)
(1.15946 0.0313274 0)
(1.15901 0.0318452 0)
(1.15969 0.0321333 0)
(1.16089 0.032472 0)
(1.16121 0.0327358 0)
(1.16044 0.0329085 0)
(0.931593 0.00444265 0)
(0.955548 0.00190653 0)
(0.980661 0.00603082 0)
(1.00676 0.0090935 0)
(1.03347 0.0121491 0)
(1.06036 0.0154549 0)
(1.08692 0.0190118 0)
(1.11239 0.0225908 0)
(1.13565 0.0259233 0)
(1.15043 0.0283262 0)
(1.15561 0.0301412 0)
(1.15584 0.0298866 0)
(1.15561 0.0307348 0)
(1.15615 0.0311461 0)
(1.15598 0.0317254 0)
(1.15562 0.0321869 0)
(1.15622 0.032512 0)
(1.15632 0.0332611 0)
(1.15565 0.0334776 0)
(1.15574 0.0340379 0)
(1.15648 0.0345381 0)
(1.15624 0.0349456 0)
(1.15598 0.0354435 0)
(1.15676 0.0360575 0)
(1.15741 0.0364251 0)
(1.15683 0.0367088 0)
(1.15598 0.037142 0)
(1.1562 0.0376501 0)
(1.15775 0.0380911 0)
(0.911599 0.00386701 0)
(0.933806 0.00231795 0)
(0.957085 0.00593424 0)
(0.981288 0.00892845 0)
(1.00613 0.0118804 0)
(1.0313 0.0150056 0)
(1.05645 0.0183384 0)
(1.08114 0.0218253 0)
(1.10486 0.0253718 0)
(1.12692 0.0286614 0)
(1.14372 0.031493 0)
(1.15049 0.0335859 0)
(1.15099 0.0336489 0)
(1.15071 0.0345078 0)
(1.1511 0.0351938 0)
(1.15142 0.0358888 0)
(1.15084 0.0365003 0)
(1.15124 0.0369184 0)
(1.15204 0.037835 0)
(1.15204 0.038178 0)
(1.15119 0.0388174 0)
(1.15154 0.0394237 0)
(1.15248 0.0400121 0)
(1.15215 0.040429 0)
(1.15192 0.0411379 0)
(1.15293 0.0415982 0)
(1.15408 0.0424195 0)
(1.15415 0.0427546 0)
(1.15267 0.0431069 0)
(0.892197 0.00338291 0)
(0.913076 0.00272471 0)
(0.934962 0.006044 0)
(0.957713 0.00903233 0)
(0.981102 0.0119692 0)
(1.00488 0.0150326 0)
(1.02878 0.0182659 0)
(1.0525 0.0216434 0)
(1.07572 0.0251299 0)
(1.09801 0.0286588 0)
(1.11873 0.0320243 0)
(1.13643 0.0350133 0)
(1.14438 0.0375341 0)
(1.14515 0.0378215 0)
(1.14493 0.0388633 0)
(1.14504 0.0396328 0)
(1.14586 0.0402935 0)
(1.14545 0.0412657 0)
(1.14579 0.0417121 0)
(1.14598 0.0427143 0)
(1.14709 0.0434833 0)
(1.1469 0.0439041 0)
(1.14639 0.0447771 0)
(1.14717 0.0453372 0)
(1.14802 0.046265 0)
(1.14753 0.0466837 0)
(1.14684 0.0473932 0)
(1.14729 0.0481412 0)
(1.14941 0.0488841 -9.9375e-027)
(0.873002 0.00321753 0)
(0.892801 0.00304535 0)
(0.913587 0.00631302 0)
(0.935201 0.00936667 0)
(0.957447 0.0123612 0)
(0.98011 0.0154547 0)
(1.00297 0.018693 0)
(1.02579 0.0220588 0)
(1.04832 0.0255278 0)
(1.07026 0.029075 0)
(1.09123 0.0326492 0)
(1.11061 0.0360925 0)
(1.12807 0.0392388 0)
(1.13743 0.0420416 0)
(1.13835 0.0425747 0)
(1.13845 0.0438265 0)
(1.13824 0.0447432 0)
(1.13931 0.0452851 0)
(1.13923 0.0468343 0)
(1.13985 0.0472281 0)
(1.13987 0.0483566 0)
(1.14072 0.049282 0)
(1.14138 0.0503003 0)
(1.14066 0.0508544 0)
(1.14067 0.0519084 0)
(1.14208 0.0525501 0)
(1.14333 0.0537181 0)
(1.1429 0.0542084 0)
(1.14165 0.0548325 1.04832e-026)
(0.853816 0.0031796 0)
(0.872682 0.00335655 0)
(0.892513 0.00668026 0)
(0.913164 0.00985399 0)
(0.934454 0.0129634 0)
(0.956195 0.0161547 0)
(0.978189 0.0194739 0)
(1.00024 0.0229074 0)
(1.02213 0.0264341 0)
(1.04365 0.0300341 0)
(1.06453 0.0336818 0)
(1.08445 0.0373259 0)
(1.10295 0.040839 0)
(1.11975 0.0441137 0)
(1.12988 0.0470172 0)
(1.13067 0.0480076 0)
(1.13156 0.049265 0)
(1.13097 0.0502871 0)
(1.13206 0.0509948 0)
(1.13195 0.0525489 0)
(1.13252 0.0533023 0)
(1.13279 0.0542646 0)
(1.13298 0.0556639 0)
(1.13462 0.0562088 0)
(1.13506 0.0577556 0)
(1.13451 0.0581448 0)
(1.1347 0.0593319 0)
(1.13615 0.0601809 0)
(1.13811 0.0615402 1.15258e-026)
(0.834447 0.00310622 0)
(0.852508 0.00371637 0)
(0.871518 0.00712916 0)
(0.891342 0.0104568 0)
(0.911814 0.0137255 0)
(0.932766 0.0170658 0)
(0.954022 0.0205226 0)
(0.975405 0.0240847 0)
(0.996736 0.027734 0)
(1.01783 0.0314534 0)
(1.0385 0.0352237 0)
(1.05852 0.0390184 0)
(1.0776 0.0427886 0)
(1.09535 0.0464246 0)
(1.11153 0.0498324 0)
(1.12184 0.0529451 0)
(1.12253 0.0541559 0)
(1.12394 0.0554988 0)
(1.12342 0.0568218 0)
(1.12422 0.0575544 0)
(1.12502 0.0594146 0)
(1.12491 0.0602104 0)
(1.12606 0.0612287 0)
(1.1261 0.0627515 0)
(1.12738 0.0634679 0)
(1.12833 0.064892 0)
(1.12899 0.0662375 0)
(1.12869 0.0666552 0)
(1.12903 0.0677296 -1.21616e-026)
(0.814806 0.00309648 0)
(0.832125 0.00409707 0)
(0.850383 0.00765457 0)
(0.869463 0.0111733 0)
(0.889209 0.0146404 0)
(0.909458 0.0181728 0)
(0.930056 0.0218146 0)
(0.950842 0.0255567 0)
(0.971658 0.0293828 0)
(0.992346 0.0332783 0)
(1.01274 0.0372274 0)
(1.03268 0.0412107 0)
(1.05195 0.0452017 0)
(1.0703 0.0491526 0)
(1.0874 0.0529472 0)
(1.10311 0.0565584 0)
(1.11351 0.0599055 0)
(1.1137 0.0611431 0)
(1.11529 0.0628156 0)
(1.11553 0.0640886 0)
(1.11584 0.065405 0)
(1.11783 0.06671 0)
(1.11772 0.0684149 0)
(1.11887 0.0690621 0)
(1.11856 0.070935 0)
(1.11969 0.0717109 0)
(1.1208 0.0731256 0)
(1.12197 0.0746526 0)
(1.12294 0.0760493 -1.34313e-026)
(0.794827 0.00313319 0)
(0.811464 0.00449079 0)
(0.829033 0.00823711 0)
(0.847424 0.0119736 0)
(0.866508 0.0156662 0)
(0.886126 0.0194214 0)
(0.906126 0.0232797 0)
(0.926369 0.0272347 0)
(0.946708 0.031271 0)
(0.967002 0.0353757 0)
(0.987112 0.0395351 0)
(1.00689 0.0437323 0)
(1.02619 0.0479469 0)
(1.04481 0.0521517 0)
(1.06255 0.0562967 0)
(1.07907 0.0602547 0)
(1.09443 0.0641094 0)
(1.10469 0.0675542 0)
(1.1045 0.0689362 0)
(1.10577 0.0707321 0)
(1.10724 0.0723034 0)
(1.10727 0.0738765 0)
(1.10888 0.0747828 0)
(1.10936 0.0776207 0)
(1.11083 0.0781101 0)
(1.11115 0.0796337 0)
(1.11145 0.0819925 0)
(1.11306 0.0819349 0)
(1.11495 0.0840418 1.41861e-026)
(0.774473 0.00321803 0)
(0.79047 0.00491031 0)
(0.807401 0.00889114 0)
(0.825157 0.0128814 0)
(0.843617 0.0168321 0)
(0.862653 0.0208466 0)
(0.882113 0.0249632 0)
(0.901855 0.0291735 0)
(0.921754 0.0334648 0)
(0.941679 0.0378252 0)
(0.961505 0.0422427 0)
(0.981108 0.0467028 0)
(1.00036 0.0511882 0)
(1.01912 0.0556781 0)
(1.03722 0.0601445 0)
(1.05447 0.0645344 0)
(1.07058 0.0687353 0)
(1.08561 0.0728559 0)
(1.09545 0.0765423 0)
(1.09541 0.0779508 0)
(1.09668 0.0802786 0)
(1.09892 0.081635 0)
(1.09849 0.0839781 0)
(1.10031 0.0847907 0)
(1.10064 0.0873646 0)
(1.10255 0.0886631 0)
(1.10459 0.0898215 0)
(1.1047 0.0925835 0)
(1.10534 0.0933051 0)
(0.753669 0.00334247 0)
(0.769054 0.00535529 0)
(0.785376 0.00960813 0)
(0.802532 0.0138858 0)
(0.820404 0.0181262 0)
(0.838873 0.0224313 0)
(0.857815 0.0268418 0)
(0.877087 0.0313482 0)
(0.89656 0.0359363 0)
(0.916119 0.0405961 0)
(0.935647 0.0453162 0)
(0.955035 0.0500842 0)
(0.97417 0.0548852 0)
(0.992938 0.0597018 0)
(1.01121 0.0645137 0)
(1.02884 0.0692925 0)
(1.04565 0.0739804 0)
(1.06142 0.0784724 0)
(1.0762 0.0829243 0)
(1.08554 0.0867794 0)
(1.08567 0.088351 0)
(1.08678 0.0910153 0)
(1.0894 0.0921537 0)
(1.08946 0.0951039 0)
(1.09151 0.0958339 0)
(1.0926 0.0979476 0)
(1.09389 0.100184 0)
(1.09681 0.100486 0)
(1.0978 0.103473 0)
(0.732432 0.00349571 0)
(0.747223 0.0058158 0)
(0.762957 0.0103659 0)
(0.779536 0.0149515 0)
(0.796849 0.0195029 0)
(0.814775 0.0241183 0)
(0.833203 0.0288394 0)
(0.85201 0.0336597 0)
(0.87107 0.038564 0)
(0.890271 0.0435415 0)
(0.909504 0.0485816 0)
(0.928665 0.0536722 0)
(0.947655 0.0587992 0)
(0.966373 0.0639464 0)
(0.984715 0.0690954 0)
(1.00256 0.0742247 0)
(1.01979 0.0793022 0)
(1.03624 0.0842645 0)
(1.05179 0.0890214 0)
(1.06643 0.0937967 0)
(1.07483 0.0975152 0)
(1.07551 0.0997778 0)
(1.07655 0.101928 0)
(1.07982 0.103317 0)
(1.08028 0.106799 0)
(1.08306 0.107474 0)
(1.08412 0.109939 0)
(1.08503 0.112814 0)
(1.08791 0.113199 0)
(0.710799 0.0036776 4.07697e-026)
(0.725012 0.00629656 0)
(0.740175 0.0111697 0)
(0.756198 0.0160865 0)
(0.772973 0.0209712 0)
(0.790389 0.025922 0)
(0.808333 0.03098 0)
(0.826694 0.0361393 0)
(0.845354 0.0413851 0)
(0.864201 0.0467054 0)
(0.883141 0.0520913 0)
(0.902076 0.0575306 0)
(0.920914 0.0630099 0)
(0.939565 0.0685144 0)
(0.957939 0.0740269 0)
(0.975942 0.0795283 0)
(0.99347 0.0849961 0)
(1.01041 0.0903964 0)
(1.02665 0.0956638 0)
(1.04215 0.100774 0)
(1.0566 0.105756 0)
(1.06458 0.109853 0)
(1.06641 0.112127 0)
(1.06748 0.11462 0)
(1.07058 0.116261 0)
(1.07179 0.119747 0)
(1.07438 0.121034 0)
(1.07668 0.123098 0)
(1.07689 0.126681 0)
(0.688782 0.00388598 1.32562e-027)
(0.702426 0.0067987 0)
(0.717028 0.0120195 0)
(0.732503 0.0172902 0)
(0.748749 0.0225301 0)
(0.765661 0.0278397 0)
(0.783129 0.0332597 0)
(0.80105 0.0387846 0)
(0.819321 0.0444013 0)
(0.837832 0.0500971 0)
(0.856483 0.0558607 0)
(0.875186 0.0616822 0)
(0.893856 0.0675488 0)
(0.912411 0.0734465 0)
(0.930772 0.07936 0)
(0.948856 0.085272 0)
(0.966581 0.0911634 0)
(0.983856 0.0970117 0)
(1.00059 0.102782 0)
(1.0167 0.108418 0)
(1.03222 0.113853 0)
(1.04686 0.119349 0)
(1.05441 0.123158 0)
(1.05707 0.126025 0)
(1.05834 0.128757 0)
(1.061 0.130206 0)
(1.06224 0.133868 0)
(1.06605 0.13566 0)
(1.06866 0.137462 0)
(0.666422 0.0041165 -4.70415e-026)
(0.679505 0.00731887 0)
(0.693557 0.0129075 0)
(0.708494 0.0185505 0)
(0.724222 0.0241629 0)
(0.740641 0.0298484 0)
(0.757647 0.0356495 0)
(0.775136 0.0415584 0)
(0.793011 0.0475624 0)
(0.811174 0.0536504 0)
(0.829529 0.0598106 0)
(0.847991 0.0660322 0)
(0.866478 0.0723026 0)
(0.884915 0.0786081 0)
(0.903228 0.0849341 0)
(0.921344 0.0912643 0)
(0.939192 0.0975807 0)
(0.956695 0.103864 0)
(0.973779 0.110089 0)
(0.990372 0.116223 0)
(1.00645 0.122184 0)
(1.0222 0.128064 0)
(1.03706 0.133737 0)
(1.04403 0.137675 0)
(1.04653 0.140819 0)
(1.04958 0.143752 0)
(1.05128 0.145333 0)
(1.05339 0.149276 0)
(1.05818 0.151654 0)
(0.643765 0.00436739 0)
(0.656294 0.00785824 0)
(0.669801 0.0138346 0)
(0.684207 0.0198684 0)
(0.699422 0.0258712 0)
(0.715352 0.0319513 0)
(0.731899 0.0381521 0)
(0.748964 0.0444655 0)
(0.766452 0.0508781 0)
(0.784276 0.0573791 0)
(0.802341 0.0639568 0)
(0.820563 0.0705989 0)
(0.838866 0.077294 0)
(0.857177 0.0840283 0)
(0.875427 0.0907873 0)
(0.893552 0.0975555 0)
(0.911486 0.104316 0)
(0.929165 0.111051 0)
(0.946524 0.11774 0)
(0.963501 0.124362 0)
(0.980052 0.130879 0)
(0.996208 0.137242 0)
(1.01235 0.143545 0)
(1.0274 0.149714 0)
(1.03366 0.153682 0)
(1.03698 0.156934 0)
(1.04046 0.160524 0)
(1.04333 0.162016 0)
(1.04528 0.16548 0)
(0.620853 0.00463761 -5.74114e-026)
(0.632834 0.00841823 0)
(0.645802 0.0148019 0)
(0.659684 0.0212447 0)
(0.674394 0.0276556 0)
(0.689843 0.0341479 0)
(0.705938 0.0407667 0)
(0.722586 0.047504 0)
(0.739693 0.0543445 0)
(0.757173 0.0612768 0)
(0.774941 0.0682904 0)
(0.792916 0.075373 0)
(0.811024 0.0825123 0)
(0.829197 0.0896945 0)
(0.847369 0.0969056 0)
(0.865479 0.10413 0)
(0.883466 0.111353 0)
(0.901273 0.118556 0)
(0.918842 0.125721 0)
(0.936116 0.13283 0)
(0.953045 0.139861 0)
(0.969604 0.146791 0)
(0.985827 0.153518 0)
(1.00232 0.160364 0)
(1.01799 0.166798 0)
(1.02397 0.170894 0)
(1.02766 0.174081 0)
(1.03226 0.177708 0)
(1.03539 0.17957 5.42852e-026)
(0.597733 0.00492427 -1.61614e-027)
(0.609171 0.00899785 0)
(0.621606 0.0158073 0)
(0.634968 0.0226765 0)
(0.649177 0.0295122 0)
(0.664149 0.036434 0)
(0.679795 0.0434888 0)
(0.696026 0.0506679 0)
(0.712754 0.0579551 0)
(0.729897 0.0653395 0)
(0.747375 0.0728098 0)
(0.765108 0.0803528 0)
(0.783024 0.0879549 0)
(0.801056 0.0956028 0)
(0.819142 0.103282 0)
(0.837223 0.110977 0)
(0.855243 0.118672 0)
(0.873148 0.12635 0)
(0.890885 0.133993 0)
(0.908404 0.141583 0)
(0.925654 0.149101 0)
(0.942596 0.156527 0)
(0.959214 0.163836 0)
(0.9755 0.170953 0)
(0.992516 0.178108 0)
(1.00911 0.185185 0)
(1.01569 0.189098 0)
(1.01911 0.19258 0)
(1.02476 0.196131 1.06265e-027)
(0.574447 0.00522909 6.61029e-026)
(0.585348 0.00960138 0)
(0.597255 0.0168573 0)
(0.610103 0.0241723 0)
(0.623816 0.0314521 0)
(0.638315 0.038823 0)
(0.653518 0.0463336 0)
(0.669338 0.0539745 0)
(0.685692 0.0617291 0)
(0.7025 0.0695845 0)
(0.719685 0.0775295 0)
(0.737172 0.0855507 0)
(0.754892 0.0936342 0)
(0.772781 0.101767 0)
(0.79078 0.109933 0)
(0.80883 0.118116 0)
(0.826877 0.126301 0)
(0.844871 0.134471 0)
(0.862762 0.142608 0)
(0.880502 0.150693 0)
(0.898045 0.158708 0)
(0.915353 0.166634 0)
(0.932393 0.174455 0)
(0.949158 0.18215 0)
(0.965707 0.189619 0)
(0.983404 0.197228 0)
(1.0011 0.204822 0)
(1.00829 0.208845 0)
(1.01171 0.212068 -6.20415e-026)
(0.551034 0.00554939 0)
(0.561402 0.0102269 0)
(0.572787 0.0179486 0)
(0.585125 0.0257275 0)
(0.598347 0.0334691 0)
(0.612379 0.0413072 0)
(0.627141 0.0492925 0)
(0.642554 0.0574146 0)
(0.658539 0.0656564 0)
(0.675017 0.074004 0)
(0.691916 0.0824456 0)
(0.709164 0.0909679 0)
(0.726694 0.0995559 0)
(0.744442 0.108194 0)
(0.762351 0.116866 0)
(0.780365 0.125557 0)
(0.798434 0.134249 0)
(0.816507 0.142926 0)
(0.834537 0.151569 0)
(0.85248 0.160161 0)
(0.870292 0.168681 0)
(0.887934 0.177111 0)
(0.905374 0.185433 0)
(0.922595 0.193631 0)
(0.939608 0.201679 0)
(0.956517 0.209483 0)
(0.97503 0.217671 0)
(0.99395 0.225501 0)
(1.00108 0.229652 0)
(0.527536 0.00588575 0)
(0.537378 0.0108761 0)
(0.548245 0.0190839 0)
(0.560079 0.0273456 0)
(0.572814 0.0355678 0)
(0.586381 0.0438929 0)
(0.600706 0.0523733 0)
(0.615714 0.0609978 0)
(0.63133 0.0697485 0)
(0.647479 0.0786108 0)
(0.664092 0.0875722 0)
(0.681102 0.0966186 0)
(0.698444 0.105734 0)
(0.716056 0.1149 0)
(0.733881 0.124102 0)
(0.751865 0.133322 0)
(0.769959 0.142542 0)
(0.788113 0.151743 0)
(0.806282 0.160908 0)
(0.824424 0.170017 0)
(0.842495 0.179052 0)
(0.860458 0.187991 0)
(0.878281 0.196816 0)
(0.895938 0.205511 0)
(0.913421 0.21406 0)
(0.930749 0.22243 0)
(0.948185 0.230634 0)
(0.967621 0.239312 0)
(0.987041 0.24745 7.28252e-026)
(0.503993 0.00623757 0)
(0.513314 0.011549 0)
(0.523669 0.0202632 0)
(0.535002 0.0290266 0)
(0.547253 0.0377485 0)
(0.560358 0.0465805 0)
(0.574249 0.0555769 0)
(0.588854 0.0647255 0)
(0.604104 0.0740074 0)
(0.619928 0.0834077 0)
(0.636259 0.0929116 0)
(0.653034 0.102504 0)
(0.670189 0.112169 0)
(0.687666 0.121887 0)
(0.70541 0.131643 0)
(0.723369 0.141415 0)
(0.741493 0.151186 0)
(0.759735 0.160936 0)
(0.77805 0.170644 0)
(0.796395 0.18029 0)
(0.814729 0.189855 0)
(0.833014 0.199318 0)
(0.851216 0.208659 0)
(0.869305 0.217859 0)
(0.88726 0.226904 0)
(0.905077 0.235775 0)
(0.922842 0.24447 0)
(0.940731 0.253028 0)
(0.961656 0.26231 9.30303e-028)
(0.480444 0.00660313 0)
(0.489251 0.0122437 0)
(0.499099 0.0214831 0)
(0.509935 0.0307654 0)
(0.521705 0.0400042 0)
(0.53435 0.0493612 0)
(0.547806 0.0588927 0)
(0.562009 0.0685856 0)
(0.576893 0.0784202 0)
(0.592392 0.088381 0)
(0.608442 0.0984525 0)
(0.624983 0.108619 0)
(0.641957 0.118863 0)
(0.659305 0.129163 0)
(0.676973 0.139501 0)
(0.694911 0.149855 0)
(0.713072 0.160205 0)
(0.731409 0.170529 0)
(0.749877 0.180805 0)
(0.768435 0.191011 0)
(0.78704 0.201127 0)
(0.805655 0.211129 0)
(0.824243 0.220997 0)
(0.84277 0.23071 0)
(0.861208 0.24025 0)
(0.879538 0.249601 0)
(0.897773 0.258763 0)
(0.915954 0.267648 0)
(0.934723 0.276822 -1.64576e-025)
(0.456934 0.00698156 0)
(0.465234 0.0129594 0)
(0.47458 0.0227425 0)
(0.484924 0.03256 0)
(0.496214 0.0423328 0)
(0.508398 0.0522334 0)
(0.52142 0.0623202 0)
(0.535219 0.0725791 0)
(0.549734 0.0829897 0)
(0.564903 0.0935357 0)
(0.580668 0.104201 0)
(0.596972 0.114969 0)
(0.61376 0.125819 0)
(0.630979 0.13673 0)
(0.648575 0.14768 0)
(0.6665 0.158647 0)
(0.684707 0.169608 0)
(0.703151 0.180537 0)
(0.721786 0.191411 0)
(0.740572 0.202205 0)
(0.759467 0.212896 0)
(0.77843 0.223458 0)
(0.797425 0.233869 0)
(0.816413 0.244104 0)
(0.835361 0.254144 0)
(0.854242 0.263967 0)
(0.873039 0.273561 0)
(0.891753 0.282905 0)
(0.910404 0.291995 -6.3829e-028)
(0.433506 0.00737055 0)
(0.441307 0.0136938 0)
(0.450157 0.0240368 0)
(0.46001 0.0344039 0)
(0.470822 0.0447258 0)
(0.482544 0.0551868 0)
(0.495128 0.0658471 0)
(0.508518 0.076692 0)
(0.522659 0.0877004 0)
(0.537495 0.0988555 0)
(0.552972 0.11014 0)
(0.569036 0.121536 0)
(0.585636 0.13302 0)
(0.602723 0.144572 0)
(0.620246 0.156168 0)
(0.638159 0.167781 0)
(0.656417 0.179387 0)
(0.674976 0.190958 0)
(0.693792 0.202467 0)
(0.712823 0.213885 0)
(0.732028 0.225185 0)
(0.751366 0.236339 0)
(0.770798 0.247319 0)
(0.790283 0.258099 0)
(0.809784 0.268654 0)
(0.829267 0.278959 0)
(0.848704 0.288994 0)
(0.868072 0.298748 0)
(0.887359 0.30815 9.24512e-026)
(0.410209 0.00776722 0)
(0.41752 0.0144437 0)
(0.42588 0.0253603 0)
(0.435245 0.0362885 0)
(0.445577 0.0471718 0)
(0.456834 0.0582071 0)
(0.468975 0.0694568 0)
(0.481949 0.0809051 0)
(0.495708 0.0925308 0)
(0.510202 0.104317 0)
(0.525381 0.116246 0)
(0.541196 0.128298 0)
(0.557602 0.140451 0)
(0.574552 0.15268 0)
(0.591998 0.164959 0)
(0.609897 0.17726 0)
(0.628208 0.189552 0)
(0.646888 0.201807 0)
(0.665895 0.213992 0)
(0.685188 0.226076 0)
(0.704725 0.238026 0)
(0.724466 0.249811 0)
(0.744369 0.261398 0)
(0.764391 0.272756 0)
(0.784494 0.283854 0)
(0.804636 0.294665 0)
(0.824782 0.305163 0)
(0.844897 0.315327 0)
(0.864954 0.325121 9.81544e-026)
(0.387092 0.00816861 0)
(0.393922 0.0152061 0)
(0.401799 0.0267078 0)
(0.410679 0.0382059 0)
(0.420529 0.0496609 0)
(0.431318 0.0612832 0)
(0.443008 0.0731369 0)
(0.455557 0.0852058 0)
(0.468922 0.0974689 0)
(0.48306 0.109909 0)
(0.497926 0.122509 0)
(0.513476 0.135247 0)
(0.529671 0.1481 0)
(0.546469 0.161042 0)
(0.563829 0.174043 0)
(0.581711 0.187072 0)
(0.600074 0.200096 0)
(0.618878 0.213081 0)
(0.638085 0.225992 0)
(0.657654 0.238791 0)
(0.677545 0.251442 0)
(0.697716 0.263906 0)
(0.718125 0.276146 0)
(0.738728 0.288125 0)
(0.759482 0.299806 0)
(0.780342 0.311156 0)
(0.801263 0.322144 0)
(0.822205 0.332741 0)
(0.843124 0.342923 -1.03533e-025)
(0.364206 0.00857111 0)
(0.370567 0.0159773 0)
(0.377967 0.0280724 0)
(0.386363 0.0401462 0)
(0.39573 0.0521806 0)
(0.406043 0.0643999 0)
(0.417272 0.0768699 0)
(0.429383 0.0895743 0)
(0.44234 0.102493 0)
(0.456104 0.115609 0)
(0.470639 0.128904 0)
(0.485908 0.142357 0)
(0.501874 0.155942 0)
(0.518505 0.169631 0)
(0.535762 0.183392 0)
(0.55361 0.197193 0)
(0.572015 0.210997 0)
(0.59094 0.224766 0)
(0.610349 0.238458 0)
(0.630203 0.25203 0)
(0.650464 0.26544 0)
(0.671091 0.278642 0)
(0.69204 0.291592 0)
(0.713268 0.304245 0)
(0.734725 0.316559 0)
(0.756365 0.32849 0)
(0.778135 0.340002 0)
(0.799983 0.35106 0)
(0.821858 0.361635 1.08836e-025)
(0.341603 0.0089708 0)
(0.347508 0.016753 0)
(0.354438 0.0294464 0)
(0.362352 0.0420983 0)
(0.371231 0.0547166 0)
(0.381061 0.0675398 0)
(0.391818 0.0806354 0)
(0.403476 0.0939871 0)
(0.416005 0.107576 0)
(0.429375 0.121385 0)
(0.443556 0.135398 0)
(0.458519 0.149592 0)
(0.474235 0.163941 0)
(0.490673 0.178416 0)
(0.507806 0.192983 0)
(0.525601 0.207607 0)
(0.54403 0.222244 0)
(0.563062 0.236854 0)
(0.582667 0.251388 0)
(0.602809 0.265799 0)
(0.623451 0.280034 0)
(0.644556 0.294042 0)
(0.666079 0.307768 0)
(0.687974 0.321159 0)
(0.710192 0.334163 0)
(0.732677 0.346729 0)
(0.755373 0.358809 0)
(0.778218 0.370361 0)
(0.801151 0.381346 -2.29032e-025)
(0.319338 0.00936379 0)
(0.324798 0.0175282 0)
(0.331266 0.0308214 0)
(0.338698 0.0440502 0)
(0.347087 0.057254 0)
(0.356424 0.0706858 0)
(0.366696 0.0844139 0)
(0.377883 0.098423 0)
(0.389963 0.112695 0)
(0.402915 0.127216 0)
(0.416715 0.141969 0)
(0.431341 0.156932 0)
(0.446772 0.172078 0)
(0.462986 0.187378 0)
(0.479962 0.202797 0)
(0.497677 0.218292 0)
(0.516108 0.23382 0)
(0.53523 0.249332 0)
(0.555018 0.264776 0)
(0.575443 0.280097 0)
(0.596473 0.295233 0)
(0.618072 0.310124 0)
(0.640198 0.324704 0)
(0.662804 0.338909 0)
(0.685838 0.352675 0)
(0.70924 0.365938 0)
(0.732946 0.37864 0)
(0.756884 0.390727 0)
(0.780983 0.402151 1.06495e-027)
(0.297464 0.00974635 0)
(0.302492 0.0182964 0)
(0.308504 0.0321875 0)
(0.315455 0.0459884 0)
(0.323347 0.0597761 0)
(0.332182 0.073818 0)
(0.341954 0.0881831 0)
(0.35265 0.102857 0)
(0.364258 0.117824 0)
(0.376763 0.133072 0)
(0.390151 0.148586 0)
(0.404407 0.164343 0)
(0.419517 0.180319 0)
(0.435469 0.196481 0)
(0.452251 0.212792 0)
(0.469849 0.229209 0)
(0.488247 0.245686 0)
(0.507431 0.262169 0)
(0.52738 0.278599 0)
(0.548075 0.294911 0)
(0.56949 0.311037 0)
(0.591593 0.326902 0)
(0.614346 0.342429 0)
(0.637704 0.357538 0)
(0.661612 0.372151 0)
(0.686006 0.386188 0)
(0.710813 0.399577 0)
(0.735951 0.412249 0)
(0.761334 0.424144 1.49458e-027)
(0.276037 0.0101153 0)
(0.280643 0.0190498 0)
(0.286206 0.0335328 0)
(0.292676 0.0478969 0)
(0.300065 0.0622631 0)
(0.308386 0.0769129 0)
(0.317641 0.0919153 0)
(0.327826 0.107257 0)
(0.338936 0.122926 0)
(0.350964 0.138913 0)
(0.363905 0.155203 0)
(0.377752 0.171777 0)
(0.392502 0.18861 0)
(0.408151 0.205669 0)
(0.424695 0.222917 0)
(0.442131 0.240312 0)
(0.460451 0.257802 0)
(0.479653 0.27533 0)
(0.499729 0.292829 0)
(0.520668 0.310226 0)
(0.542454 0.327441 0)
(0.565063 0.344387 0)
(0.588462 0.36097 0)
(0.61261 0.377093 0)
(0.637452 0.392657 0)
(0.662918 0.407563 0)
(0.688927 0.421719 0)
(0.715384 0.435036 0)
(0.742185 0.447438 1.31452e-025)
(0.255113 0.0104684 0)
(0.259306 0.0197788 0)
(0.264423 0.0348438 0)
(0.27041 0.0497572 0)
(0.27729 0.0646916 0)
(0.285086 0.079942 0)
(0.293808 0.0955768 0)
(0.30346 0.111585 0)
(0.314045 0.127958 0)
(0.325564 0.144688 0)
(0.338021 0.161766 0)
(0.351418 0.179173 0)
(0.365761 0.196887 0)
(0.381053 0.214876 0)
(0.397304 0.233108 0)
(0.414522 0.251536 0)
(0.432711 0.270106 0)
(0.451881 0.288755 0)
(0.472037 0.307413 0)
(0.493182 0.325999 0)
(0.515312 0.344419 0)
(0.538416 0.362571 0)
(0.562473 0.380343 0)
(0.587444 0.397614 0)
(0.613279 0.414261 0)
(0.639905 0.430157 0)
(0.66723 0.445182 0)
(0.695143 0.459222 0)
(0.723517 0.472178 -1.34045e-025)
(0.234749 0.0108052 0)
(0.238532 0.0204722 0)
(0.243208 0.036105 0)
(0.248711 0.0515475 0)
(0.255076 0.067033 0)
(0.262336 0.0828693 0)
(0.270508 0.0991238 0)
(0.279606 0.115788 0)
(0.289638 0.132857 0)
(0.300616 0.150329 0)
(0.31255 0.168196 0)
(0.325452 0.186446 0)
(0.339335 0.205057 0)
(0.354215 0.224004 0)
(0.370109 0.243251 0)
(0.387042 0.262756 0)
(0.405033 0.282467 0)
(0.424103 0.302317 0)
(0.444276 0.322233 0)
(0.46557 0.342123 0)
(0.488001 0.361882 0)
(0.511574 0.381391 0)
(0.536284 0.400515 0)
(0.562105 0.419106 0)
(0.588991 0.437005 0)
(0.61687 0.454052 0)
(0.645641 0.470086 0)
(0.675171 0.484957 0)
(0.705305 0.498534 1.41328e-025)
(0.215002 0.0111271 0)
(0.218375 0.0211176 0)
(0.222612 0.0372987 0)
(0.227631 0.0532416 0)
(0.233477 0.0692514 0)
(0.240191 0.0856483 0)
(0.2478 0.102498 0)
(0.256322 0.119794 0)
(0.265777 0.137539 0)
(0.276181 0.155734 0)
(0.287553 0.174378 0)
(0.299913 0.193461 0)
(0.313283 0.212968 0)
(0.327688 0.232878 0)
(0.343159 0.253161 0)
(0.359731 0.273779 0)
(0.37744 0.294683 0)
(0.396323 0.315808 0)
(0.416425 0.337078 0)
(0.437788 0.358396 0)
(0.46045 0.379644 0)
(0.484442 0.400685 0)
(0.50978 0.421357 0)
(0.53646 0.44148 0)
(0.564449 0.460853 0)
(0.593679 0.479266 0)
(0.62404 0.496504 0)
(0.655378 0.512366 0)
(0.687499 0.526669 0)
(0.195926 0.0114377 0)
(0.198888 0.0217019 0)
(0.202692 0.0384051 0)
(0.207229 0.0548077 0)
(0.212553 0.0713015 0)
(0.218716 0.0882186 0)
(0.22575 0.105622 0)
(0.233681 0.123509 0)
(0.242535 0.141888 0)
(0.252335 0.160767 0)
(0.263107 0.18015 0)
(0.274879 0.200033 0)
(0.28768 0.22041 0)
(0.301545 0.241267 0)
(0.316513 0.262581 0)
(0.332633 0.284326 0)
(0.349963 0.306457 0)
(0.368555 0.328916 0)
(0.388477 0.351625 0)
(0.4098 0.374488 0)
(0.432593 0.397378 0)
(0.45692 0.42014 0)
(0.48283 0.442587 0)
(0.51035 0.464497 0)
(0.539474 0.485621 0)
(0.570147 0.505682 0)
(0.602256 0.524394 0)
(0.635625 0.541476 0)
(0.670009 0.556674 1.44413e-025)
(0.177572 0.0117406 0)
(0.180122 0.0222114 0)
(0.183504 0.0394007 0)
(0.187567 0.0562066 0)
(0.192374 0.0731267 0)
(0.197985 0.0905038 0)
(0.204439 0.108398 0)
(0.211767 0.126811 0)
(0.220002 0.145757 0)
(0.229174 0.165253 0)
(0.239313 0.185307 0)
(0.250453 0.205928 0)
(0.262629 0.227117 0)
(0.275884 0.248871 0)
(0.290267 0.271182 0)
(0.305837 0.294031 0)
(0.322671 0.317388 0)
(0.340846 0.341208 0)
(0.360454 0.36542 0)
(0.381597 0.389927 0)
(0.404383 0.414602 0)
(0.428919 0.439276 0)
(0.455301 0.463737 0)
(0.483603 0.487723 0)
(0.51386 0.510922 0)
(0.546047 0.532982 0)
(0.580062 0.553517 0)
(0.615708 0.572137 0)
(0.652683 0.588477 -5.58044e-027)
(0.159985 0.0120368 0)
(0.162134 0.0226323 0)
(0.165113 0.0402574 0)
(0.168717 0.0573905 0)
(0.173017 0.0746584 0)
(0.178083 0.0924129 0)
(0.183958 0.110709 0)
(0.19068 0.129555 0)
(0.198286 0.148973 0)
(0.206811 0.168986 0)
(0.21629 0.189613 0)
(0.226757 0.210873 0)
(0.238255 0.23278 0)
(0.25083 0.255347 0)
(0.264541 0.278579 0)
(0.27946 0.302475 0)
(0.295673 0.327025 0)
(0.313286 0.352197 0)
(0.332419 0.377935 0)
(0.353211 0.404152 0)
(0.375814 0.430723 0)
(0.400387 0.457478 0)
(0.427088 0.484184 0)