/*--------------------------------*- C++ -*----------------------------------*\
| =========                 |                                                 |
| \\      /  F ield         | OpenFOAM: The Open Source CFD Toolbox           |
|  \\    /   O peration     | Version:  5.x                                   |
|   \\  /    A nd           | Web:      www.OpenFOAM.org                      |
|    \\/     M anipulation  |                                                 |
\*---------------------------------------------------------------------------*/
/*   Windows 32 and 64 bit porting by blueCAPE: http://www.bluecape.com.pt   *\
|  Based on Windows porting (2.0.x v4) by Symscape: http://www.symscape.com   |
\*---------------------------------------------------------------------------*/
FoamFile
{
    version     2.0;
    format      ascii;
    class       volScalarField;
    location    "270";
    object      epsilon;
}
// * * * * * * * * * * * * * * * * * * * * * * * * * * * * * * * * * * * * * //

dimensions      [0 2 -3 0 0 0 0];

internalField   nonuniform List<scalar> 
43900
(
0.00152925
0.00151909
0.00151979
0.00151971
0.00151968
0.00151966
0.00151967
0.00151967
0.00151967
0.00151968
0.00151968
0.00151968
0.00151968
0.00151968
0.00151968
0.00151968
0.00151968
0.00151968
0.00151969
0.00151969
0.00151969
0.00151969
0.00151969
0.00151969
0.00151969
0.00151969
0.00151969
0.00151969
0.00151969
0.000413593
3.81774e-005
3.16658e-005
3.15196e-005
3.27297e-005
3.27931e-005
3.28055e-005
3.27918e-005
3.27924e-005
3.27976e-005
3.27969e-005
3.27973e-005
3.27998e-005
3.28025e-005
3.28029e-005
3.28053e-005
3.28084e-005
3.28082e-005
3.28096e-005
3.28102e-005
3.28095e-005
3.28115e-005
3.28121e-005
3.28116e-005
3.28132e-005
3.28129e-005
3.28129e-005
3.28147e-005
3.28146e-005
0.0508056
0.00574394
0.000288792
1.14388e-005
1.70784e-006
1.32764e-006
1.32666e-006
1.40977e-006
1.41881e-006
1.41778e-006
1.4169e-006
1.41698e-006
1.41734e-006
1.41767e-006
1.41797e-006
1.41838e-006
1.41856e-006
1.41869e-006
1.41901e-006
1.41914e-006
1.41934e-006
1.41959e-006
1.41964e-006
1.4198e-006
1.41997e-006
1.42001e-006
1.42017e-006
1.42028e-006
1.42027e-006
0.146316
0.0436518
0.00963171
0.00131037
8.26821e-005
3.37763e-006
3.39933e-007
1.22317e-007
1.08339e-007
1.15662e-007
1.19949e-007
1.20143e-007
1.196e-007
1.19507e-007
1.19644e-007
1.19692e-007
1.19692e-007
1.19727e-007
1.19767e-007
1.19791e-007
1.1982e-007
1.19847e-007
1.1987e-007
1.19894e-007
1.19913e-007
1.19929e-007
1.19948e-007
1.19961e-007
1.19976e-007
0.197917
0.0846031
0.0338959
0.0112639
0.00265193
0.000357898
2.25232e-005
9.66663e-007
8.42165e-008
2.22126e-008
1.64871e-008
1.72854e-008
1.84785e-008
1.86059e-008
1.84184e-008
1.8423e-008
1.84819e-008
1.84732e-008
1.84709e-008
1.84808e-008
1.84897e-008
1.84948e-008
1.84981e-008
1.85021e-008
1.85065e-008
1.85094e-008
1.85134e-008
1.85171e-008
1.85187e-008
0.222863
0.109184
0.0533255
0.0251145
0.0105057
0.00331995
0.00070647
7.71021e-005
4.23279e-006
1.98464e-007
1.87817e-008
5.453e-009
4.10093e-009
4.45917e-009
4.74789e-009
4.71004e-009
4.63865e-009
4.66764e-009
4.68e-009
4.67316e-009
4.6722e-009
4.67454e-009
4.67587e-009
4.67705e-009
4.67805e-009
4.679e-009
4.68009e-009
4.6809e-009
4.68162e-009
0.234506
0.123805
0.0661968
0.0353435
0.0183914
0.00892083
0.00356259
0.000972105
0.000151741
1.14566e-005
5.8281e-007
3.16212e-008
4.2535e-009
1.71042e-009
1.53603e-009
1.68493e-009
1.74674e-009
1.7073e-009
1.7033e-009
1.7114e-009
1.71001e-009
1.70769e-009
1.70832e-009
1.70917e-009
1.70968e-009
1.70999e-009
1.7104e-009
1.71097e-009
1.71131e-009
0.237688
0.131388
0.0739662
0.0420607
0.023859
0.0132372
0.00692589
0.00315307
0.00102418
0.000211223
2.18349e-005
1.31511e-006
7.22116e-008
5.11563e-009
1.17365e-009
7.30924e-010
7.52797e-010
8.13491e-010
8.05158e-010
8.00083e-010
8.06403e-010
8.08951e-010
8.07654e-010
8.07209e-010
8.07522e-010
8.07869e-010
8.08101e-010
8.08328e-010
8.08383e-010
0.237175
0.135711
0.0792596
0.0469859
0.0280505
0.0166804
0.00971502
0.00538434
0.00268182
0.00101537
0.000243965
3.08592e-005
2.1729e-006
1.29892e-007
8.37368e-009
1.05261e-009
4.67386e-010
4.12049e-010
4.5326e-010
4.52793e-010
4.45421e-010
4.48036e-010
4.51581e-010
4.5176e-010
4.51478e-010
4.51484e-010
4.5156e-010
4.51749e-010
4.51935e-010
0.232939
0.136326
0.0816467
0.0497972
0.0307538
0.019092
0.0117947
0.00714199
0.00413247
0.00217246
0.000912307
0.000241462
3.47605e-005
2.77892e-006
1.82398e-007
1.22468e-008
1.14394e-009
3.66445e-010
2.6319e-010
2.83362e-010
2.89943e-010
2.83565e-010
2.81833e-010
2.83343e-010
2.84337e-010
2.8458e-010
2.84697e-010
2.84807e-010
2.84856e-010
0.225877
0.134623
0.0820564
0.0510426
0.0322499
0.0205868
0.0131863
0.00839424
0.00523529
0.00312357
0.00170361
0.000763087
0.000213803
3.31897e-005
2.9143e-006
2.09026e-007
1.50178e-008
1.3032e-009
3.01e-010
1.91467e-010
1.95066e-010
2.05313e-010
2.01653e-010
1.98816e-010
1.9897e-010
1.99199e-010
1.99332e-010
1.99417e-010
1.99538e-010
0.218008
0.131867
0.0816261
0.0515748
0.0331525
0.0215881
0.0141687
0.00931059
0.00606921
0.0038703
0.0023597
0.00131784
0.000611363
0.000175666
2.82799e-005
2.65035e-006
2.05931e-007
1.59382e-008
1.39925e-009
2.5884e-010
1.50592e-010
1.44813e-010
1.54185e-010
1.53439e-010
1.51535e-010
1.51316e-010
1.51459e-010
1.5153e-010
1.51528e-010
0.209273
0.128213
0.0803953
0.0514584
0.0335488
0.0221947
0.014839
0.00997616
0.0066997
0.00445311
0.00288909
0.00178839
0.00101247
0.000475919
0.00013653
2.21201e-005
2.19071e-006
1.85389e-007
1.56254e-008
1.44178e-009
2.37891e-010
1.26045e-010
1.08097e-010
1.17649e-010
1.20394e-010
1.19507e-010
1.1919e-010
1.19213e-010
1.19348e-010
0.199802
0.123778
0.0784853
0.0508399
0.0335276
0.0224776
0.015257
0.0104425
0.00717073
0.00490715
0.00331533
0.00218036
0.00136377
0.000776629
0.000363662
0.000102355
1.65157e-005
1.73475e-006
1.60918e-007
1.48902e-008
1.47704e-009
2.29917e-010
1.08828e-010
8.5881e-011
9.09189e-011
9.39934e-011
9.38136e-011
9.36768e-011
9.37054e-011
0.189798
0.118739
0.0760432
0.0497638
0.0331968
0.0224952
0.015466
0.0107431
0.00750881
0.00525349
0.00365408
0.00250245
0.00166289
0.00104642
0.000595219
0.00027359
7.47462e-005
1.19871e-005
1.33736e-006
1.35771e-007
1.37452e-008
1.46505e-009
2.23495e-010
9.17717e-011
7.00181e-011
7.09476e-011
7.33693e-011
7.3511e-011
7.35299e-011
0.179462
0.113285
0.0732023
0.0483513
0.0325673
0.0223161
0.0155055
0.0109079
0.00773714
0.00551037
0.00391943
0.00276454
0.0019143
0.00128147
0.00080803
0.000456066
0.000202607
5.33915e-005
8.55159e-006
1.0178e-006
1.12732e-007
1.24619e-008
1.43704e-009
2.1967e-010
7.99122e-011
5.93228e-011
5.71382e-011
5.87594e-011
5.91292e-011
0.168909
0.107526
0.0700667
0.0466775
0.0317249
0.0219467
0.0154142
0.0109611
0.00787493
0.00569335
0.00412416
0.00297683
0.00212528
0.00148508
0.000999262
0.000629535
0.000350908
0.000148681
3.78056e-005
6.1164e-006
7.8277e-007
9.49647e-008
1.14915e-008
1.43564e-009
2.21977e-010
7.29795e-011
5.25762e-011
4.77087e-011
4.88143e-011
0.158224
0.101539
0.0666988
0.0447979
0.0307043
0.021432
0.0152
0.0109228
0.00793649
0.00581319
0.00427625
0.00314519
0.0022998
0.00165906
0.00116774
0.000788133
0.000494729
0.000271045
0.000108131
2.66163e-005
4.39788e-006
6.0577e-007
7.98486e-008
1.04397e-008
1.39479e-009
2.21945e-010
6.89848e-011
4.80046e-011
4.28994e-011
0.147505
0.0954028
0.0631577
0.0427561
0.0295436
0.0207967
0.014883
0.0108034
0.00792927
0.00587704
0.00438196
0.00327459
0.00244146
0.00180551
0.0013138
0.000929739
0.000628063
0.000391665
0.000209783
7.73102e-005
1.85505e-005
3.15802e-006
4.66527e-007
6.64241e-008
9.35654e-009
1.33849e-009
2.22009e-010
6.71091e-011
4.44622e-011
0.136844
0.0891903
0.0594978
0.0405916
0.0282712
0.0200646
0.0144831
0.0106099
0.00787038
0.00589212
0.0044464
0.00336918
0.00255371
0.00192716
0.0014392
0.00105477
0.000749297
0.000505725
0.000312632
0.000163417
5.57217e-005
1.30035e-005
2.28692e-006
3.61391e-007
5.54226e-008
8.40623e-009
1.28789e-009
2.23852e-010
6.58966e-011
0.126335
0.0829721
0.0557711
0.0383421
0.0269141
0.0192555
0.014015
0.0103573
0.00775438
0.00586751
0.00447564
0.00343323
0.00263949
0.00202592
0.00154499
0.00116331
0.00085731
0.000610314
0.000410746
0.000251015
0.000127062
4.09052e-005
9.26319e-006
1.68572e-006
2.83147e-007
4.6263e-008
7.47375e-009
1.21874e-009
2.19863e-010
0.116071
0.076817
0.0520278
0.0360441
0.0254989
0.0183888
0.0134941
0.0100572
0.00759776
0.00580485
0.00447207
0.00346965
0.00270156
0.00210416
0.00163298
0.00125656
0.000952483
0.000704699
0.000501814
0.000335931
0.00020198
9.71167e-005
2.99618e-005
6.7286e-006
1.27258e-006
2.26015e-007
3.90842e-008
6.67693e-009
1.13085e-009
0.106133
0.0707865
0.0483133
0.0337308
0.0240501
0.0174824
0.0129337
0.00972025
0.00740685
0.00571078
0.00444556
0.00348322
0.00274313
0.00216426
0.00170502
0.00133589
0.00103568
0.000789121
0.000585188
0.000416026
0.000276252
0.000162543
7.33973e-005
2.18658e-005
4.93213e-006
9.70268e-007
1.81305e-007
3.30537e-008
5.82868e-009
0.0965896
0.0649337
0.0446673
0.0314316
0.0225891
0.0165526
0.0123457
0.00935538
0.00718938
0.00559182
0.00439253
0.00347659
0.00276709
0.0022088
0.00176324
0.00140293
0.00110805
0.000864181
0.000660799
0.000490271
0.000347176
0.000227897
0.000130452
5.45033e-005
1.57739e-005
3.60451e-006
7.38693e-007
1.45145e-007
2.73182e-008
0.0874991
0.059303
0.0411231
0.0291715
0.0211349
0.0156134
0.0117409
0.00897113
0.00695234
0.00545421
0.00432315
0.00345508
0.00277657
0.00224031
0.00180981
0.0014596
0.00117124
0.000931203
0.000729566
0.000559021
0.00041426
0.000291568
0.000188602
0.000104394
3.99834e-005
1.1336e-005
2.6447e-006
5.67159e-007
1.14783e-007
0.0789037
0.0539286
0.0377075
0.0269707
0.0197028
0.0146765
0.0111285
0.00857443
0.00670101
0.00530196
0.00423907
0.00341792
0.00277329
0.00226037
0.00184614
0.00150718
0.00122639
0.000991202
0.000792308
0.000622795
0.000477565
0.000352942
0.000246431
0.000156685
8.30987e-005
2.98276e-005
8.29034e-006
1.98086e-006
4.34146e-007
0.0708326
0.0488359
0.0344407
0.0248453
0.0183052
0.0137516
0.0105158
0.00817107
0.00644006
0.00513906
0.00414444
0.00337156
0.00276171
0.00227231
0.0018748
0.00154765
0.00127507
0.0010454
0.000849945
0.000682214
0.000537358
0.000411813
0.000303057
0.000209507
0.000130347
6.52928e-005
2.24801e-005
6.20634e-006
1.48889e-006
0.0633029
0.0440417
0.0313373
0.0228071
0.0169514
0.0128459
0.00990847
0.0077656
0.00617305
0.00496826
0.0040412
0.00331619
0.0027402
0.00227554
0.00189616
0.00158185
0.0013183
0.00109483
0.000903434
0.000738089
0.000594244
0.000468499
0.000358379
0.000262205
0.000179003
0.000108342
5.07595e-005
1.70219e-005
4.61997e-006
0.0563212
0.039556
0.0284072
0.0208645
0.0156485
0.0119651
0.00931109
0.00736159
0.00590287
0.00479194
0.00393146
0.00325409
0.00271251
0.00227311
0.00191186
0.00161083
0.00135689
0.00114023
0.0009535
0.000791114
0.000648844
0.000523495
0.000412692
0.000314747
0.000228595
0.000153698
9.00345e-005
3.93345e-005
1.26734e-005
0.0498856
0.0353827
0.0256557
0.0190231
0.0144013
0.0111133
0.00872702
0.00696172
0.00563167
0.00461182
0.00381659
0.00318651
0.0026796
0.00226593
0.00192308
0.00163568
0.00139176
0.00118238
0.0010008
0.000841861
0.000701662
0.000577221
0.000466292
0.000367236
0.00027895
0.000200811
0.000132611
7.48204e-005
2.98962e-005
0.0439867
0.0315206
0.0230853
0.0172862
0.0132133
0.0102935
0.00815873
0.00656803
0.00536105
0.00442916
0.0036976
0.00311408
0.00264155
0.00225327
0.00192973
0.00165663
0.00142333
0.00122177
0.00104582
0.000890813
0.000753146
0.00063007
0.000519493
0.00041986
0.00033008
0.000249488
0.000177713
0.000115324
6.07968e-005
0.0386096
0.0279651
0.0206956
0.0156553
0.0120864
0.00950775
0.007608
0.006182
0.00509221
0.00424493
0.00357523
0.00303746
0.00259905
0.00223641
0.00193219
0.00167401
0.00145192
0.00125874
0.00108896
0.000938371
0.000803695
0.000682424
0.000572633
0.000472876
0.000382111
0.000299665
0.000225112
0.000158874
9.96621e-005
0.0337351
0.0247084
0.0184842
0.0141305
0.0110217
0.00875731
0.00707612
0.00580472
0.00482604
0.00405978
0.00344996
0.00295697
0.00255237
0.00221545
0.00193096
0.00168798
0.00147764
0.00129343
0.00113042
0.0009848
0.000853626
0.000734628
0.00062606
0.000526599
0.00043528
0.000351453
0.000274708
0.000205195
0.000142786
0.0293405
0.0217403
0.0164471
0.0127107
0.0100195
0.00804302
0.00656401
0.00543701
0.00456318
0.0038742
0.00332214
0.00287286
0.00250172
0.0021907
0.00192657
0.001699
0.00150076
0.00132603
0.00117035
0.00103027
0.000903151
0.000786943
0.000680072
0.000581343
0.000489882
0.000405089
0.000326589
0.00025435
0.000188896
0.0254007
0.0190492
0.0145794
0.0113943
0.00907964
0.0073654
0.00607233
0.00507954
0.00430417
0.00368856
0.00319197
0.00278519
0.002447
0.0021618
0.00191797
0.00170657
0.00152111
0.00135648
0.00120875
0.00107484
0.000952382
0.000839538
0.000734893
0.000637379
0.000546212
0.000460858
0.000380988
0.0003065
0.000237966
0.0218891
0.016622
0.0128751
0.0101789
0.00820163
0.00672468
0.00560164
0.00473284
0.00404945
0.00350316
0.00305961
0.00269398
0.0023881
0.00212854
0.00190517
0.00171028
0.0015383
0.00138451
0.00124546
0.00111843
0.00100133
0.000892505
0.000790691
0.00069494
0.000604561
0.000519086
0.00043824
0.000361926
0.000290542
0.0187778
0.0144447
0.0113276
0.00906187
0.00738465
0.006121
0.00515241
0.00439747
0.00379948
0.00331832
0.00292521
0.00259921
0.00232488
0.0020907
0.0018879
0.00170973
0.00155185
0.00140967
0.00128012
0.00116082
0.00104987
0.000945831
0.000847564
0.000754226
0.000665212
0.000580122
0.000498739
0.000421007
0.000347176
0.0160379
0.0125026
0.00992975
0.00803996
0.00662769
0.00555436
0.00472507
0.00407398
0.00355476
0.00313439
0.00278895
0.00250091
0.00225725
0.00204817
0.0018662
0.0017057
0.00156201
0.0014319
0.00131254
0.00120176
0.00109785
0.000999455
0.000905566
0.000815411
0.000728452
0.000644345
0.00056293
0.000484201
0.000408353
0.0136406
0.0107806
0.00867389
0.00710975
0.00592948
0.00502464
0.00432004
0.00376292
0.00331583
0.00295178
0.00265108
0.00239915
0.00218509
0.00200061
0.00183939
0.00169657
0.00156781
0.00145053
0.00134221
0.00124088
0.00114497
0.00105323
0.000964704
0.000878661
0.000794598
0.000712206
0.000631362
0.000552111
0.000474662
0.0115564
0.00926285
0.0075519
0.00626737
0.00528853
0.0045316
0.00393766
0.00346489
0.00308328
0.00277098
0.00251192
0.00229406
0.00210832
0.00194774
0.00180693
0.00168155
0.00156792
0.00146456
0.00136833
0.00127754
0.00119078
0.00110687
0.00102489
0.000944105
0.000863999
0.000784255
0.000704754
0.000625569
0.000546955
0.0097565
0.00793329
0.00655521
0.00550858
0.00470306
0.00407481
0.0035782
0.00318046
0.00285776
0.00259259
0.0023719
0.00218586
0.00202696
0.0018894
0.00176862
0.00166098
0.00156362
0.00147398
0.00139039
0.00131109
0.00123466
0.00115992
0.00108589
0.00101178
0.000936997
0.000861136
0.000784019
0.000705698
0.000626458
0.00821205
0.00677567
0.00567486
0.00482873
0.00417097
0.00365363
0.00324185
0.00291021
0.00263999
0.00241728
0.00223159
0.00207495
0.0019412
0.00182553
0.00172414
0.001634
0.00155267
0.00147717
0.00140721
0.00134049
0.00127568
0.0012116
0.00114718
0.0010815
0.0010138
0.000943491
0.000870226
0.000793936
0.000714861
0.00689516
0.00577368
0.00490159
0.00422286
0.00368987
0.00326724
0.00292868
0.00265471
0.00243077
0.00224592
0.00209179
0.00196198
0.00185148
0.00175635
0.00167344
0.00160019
0.00153444
0.00147411
0.00141806
0.00136471
0.00131272
0.00126083
0.00120785
0.00115268
0.00109428
0.00103175
0.000964414
0.000891912
0.000814281
0.00577897
0.00491127
0.00422604
0.00368575
0.00325717
0.00291469
0.00263876
0.00241464
0.00223114
0.00207971
0.00195374
0.00184813
0.00175885
0.00168269
0.0016171
0.00155995
0.0015095
0.00146431
0.00142201
0.00138273
0.00134458
0.00130631
0.00126665
0.00122425
0.00117775
0.00112581
0.00106724
0.00100112
0.000926988
0.00483817
0.00417296
0.00363897
0.00321217
0.00287023
0.00259504
0.0023723
0.00219099
0.00204258
0.00192044
0.00181941
0.00173542
0.00166528
0.00160642
0.00155678
0.00151466
0.00147863
0.00144745
0.00141968
0.00139449
0.0013707
0.00134709
0.00132233
0.00129488
0.00126304
0.00122495
0.00117869
0.00112245
0.0010549
0.00404939
0.00354417
0.00313154
0.00279708
0.0025266
0.00230764
0.00212992
0.0019853
0.00186732
0.00177086
0.00169189
0.00162719
0.00157424
0.001531
0.00149585
0.00146749
0.00144481
0.00142687
0.00141285
0.00140133
0.00139183
0.00138332
0.0013745
0.00136374
0.00134903
0.001328
0.00129809
0.0012561
0.0011992
0.00339156
0.00301163
0.00269568
0.00243599
0.00222431
0.00205236
0.00191291
0.00179998
0.00170868
0.00163502
0.00157583
0.00152855
0.00149114
0.00146204
0.00144
0.00142404
0.00141347
0.00140752
0.00140581
0.00140716
0.00141108
0.00141739
0.00142474
0.00143161
0.00143561
0.00143412
0.00142507
0.00140234
0.00136061
0.00284621
0.00256359
0.00232431
0.00212511
0.00196202
0.0018298
0.00172342
0.0016385
0.00157126
0.00151852
0.00147769
0.00144664
0.00142371
0.0014077
0.00139766
0.00139287
0.00139328
0.00139777
0.00140706
0.00141935
0.00143533
0.00145519
0.00147803
0.00150256
0.00152678
0.00154771
0.00156119
0.00155921
0.00153962
0.00239749
0.00218995
0.00201142
0.00186147
0.00173913
0.00164127
0.00156446
0.00150538
0.00146097
0.00142854
0.00140583
0.0013909
0.00138226
0.00137912
0.0013806
0.00138608
0.00139589
0.00140877
0.001426
0.00144833
0.00147528
0.00150734
0.00154436
0.00158566
0.00162986
0.00167408
0.00171397
0.00173963
0.00173854
0.00203202
0.00188216
0.00175199
0.00164276
0.00155552
0.0014886
0.0014396
0.00140591
0.00138483
0.00137379
0.00137074
0.00137341
0.00138034
0.00138991
0.00140193
0.00141654
0.00143442
0.00145597
0.00148172
0.00151279
0.00154953
0.00159225
0.00164187
0.00169849
0.00176168
0.00182906
0.00189718
0.00195381
0.00198203
0.0017385
0.00163288
0.00154166
0.00146699
0.00141123
0.00137366
0.00135261
0.00134593
0.00135087
0.00136471
0.0013843
0.001407
0.00143164
0.0014576
0.00148406
0.00151104
0.00153936
0.00157019
0.00160459
0.00164404
0.00168978
0.00174239
0.00180365
0.00187451
0.00195575
0.00204581
0.00214348
0.0022331
0.00230072
0.0015071
0.00143551
0.0013763
0.00133202
0.00130592
0.00129798
0.00130704
0.0013313
0.00136739
0.00141167
0.00146197
0.00151497
0.00156783
0.00161898
0.00166745
0.00171323
0.00175741
0.00180179
0.00184824
0.00189887
0.00195582
0.00202079
0.0020956
0.00218253
0.00228323
0.00239767
0.0025274
0.00265268
0.002774
0.00132899
0.0012838
0.00125164
0.00123522
0.00123857
0.00126204
0.00130622
0.00136759
0.00144478
0.00153427
0.00163184
0.00173276
0.00183259
0.00192798
0.00201681
0.00209845
0.00217405
0.00224636
0.00231803
0.00239216
0.00247201
0.00256083
0.00266114
0.00277733
0.00290996
0.00306465
0.00324118
0.00341901
0.00362758
0.00119598
0.00117158
0.00116306
0.00117326
0.00120703
0.0012665
0.0013517
0.00146311
0.00159877
0.00175499
0.00192659
0.00210745
0.00229087
0.00247077
0.00264254
0.00280363
0.00295375
0.00309657
0.00323581
0.00337607
0.00352224
0.00368009
0.00385258
0.00405009
0.00426277
0.00452176
0.00478697
0.00510196
0.00547196
0.0011004
0.00109274
0.00110554
0.00114227
0.00120926
0.00130966
0.00144763
0.00162498
0.00184213
0.00209735
0.00238621
0.00270191
0.00303587
0.00337911
0.00372381
0.00406458
0.0043992
0.00472889
0.00506154
0.00540508
0.00576797
0.00616217
0.00659232
0.00708827
0.00760206
0.00827273
0.00882775
0.00979968
0.0104621
0.00103519
0.0010413
0.00107417
0.00113826
0.00124135
0.00139078
0.00159371
0.0018571
0.0021867
0.00258592
0.00305477
0.00358954
0.00418324
0.00482719
0.00551323
0.00623607
0.00699509
0.00779421
0.00864504
0.00957506
0.0106088
0.0117819
0.0131269
0.0147331
0.0165179
0.0189503
0.0210485
0.0256549
0.0271577
0.000994015
0.00101171
0.00106416
0.00115641
0.00129985
0.00150572
0.00178759
0.00216039
0.00263939
0.00323872
0.00396959
0.00483934
0.00585149
0.00700744
0.0083095
0.0097648
0.0113895
0.0132118
0.0152786
0.0176517
0.0204322
0.0237488
0.0277883
0.0327988
0.0390463
0.0474896
0.0570074
0.0762843
0.0852852
0.000971483
0.000999042
0.00107088
0.00119245
0.00137965
0.00164953
0.00202439
0.0025309
0.00319945
0.0040626
0.00515324
0.00650312
0.00814285
0.010104
0.0124233
0.0151494
0.0183513
0.0221274
0.0266206
0.0320242
0.0386346
0.0468048
0.0572142
0.070502
0.0885383
0.112343
0.147234
0.201886
0.25296
0.000963832
0.000999699
0.00109107
0.00124268
0.00147675
0.00181742
0.0022984
0.00296234
0.00386146
0.00505683
0.00661742
0.00861945
0.0111474
0.0142977
0.0181862
0.0229592
0.0288106
0.0360014
0.0448957
0.0559813
0.0700017
0.0878626
0.111383
0.142037
0.185813
0.243066
0.340594
0.463028
0.657689
0.00151969
0.00151969
0.00151969
0.00151969
0.00151969
0.00151969
0.0015197
0.00151969
0.00151969
0.00151969
0.00151969
0.0015197
0.00151969
0.00151969
0.00151969
0.00151969
0.0015197
0.0015197
0.0015197
0.0015197
0.0015197
0.0015197
0.0015197
0.0015197
0.0015197
0.0015197
0.0015197
0.0015197
0.00151969
0.0015197
0.0015197
0.0015197
0.0015197
0.0015197
0.0015197
0.0015197
0.0015197
0.0015197
0.0015197
0.0015197
0.0015197
0.0015197
0.0015197
0.0015197
0.0015197
0.0015197
0.0015197
0.0015197
0.0015197
0.0015197
0.0015197
0.0015197
0.0015197
0.0015197
0.0015197
0.0015197
0.0015197
0.0015197
0.0015197
0.0015197
0.0015197
0.0015197
0.0015197
0.0015197
0.0015197
0.0015197
0.0015197
0.0015197
0.0015197
0.0015197
0.0015197
0.00151971
0.0015197
0.00151971
0.0015197
0.00151971
0.00151971
0.0015197
0.00151971
0.0015197
0.00151971
0.0015197
0.00151971
0.00151971
0.00151971
0.00151971
0.00151971
0.00151971
0.00151971
0.00151971
0.00151971
0.00151971
0.00151971
0.00151971
0.00151971
0.00151971
0.00151971
0.00151971
0.00151971
0.00151971
0.00151971
0.00151971
0.00151971
0.00151971
0.00151971
0.00151971
0.00151971
0.00151971
0.00151971
0.00151971
0.00151971
0.00151971
0.00151971
0.00151971
0.00151971
0.00151971
0.00151971
0.00151971
0.00151971
0.00151971
0.00151971
0.00151971
0.00151971
0.00151971
0.00151971
0.00151971
0.00151971
0.00151971
0.00151971
0.00151971
0.00151971
0.00151971
0.00151971
0.00151972
0.00151972
0.00151972
0.00151972
0.00151973
0.00154203
3.28152e-005
3.2817e-005
3.28152e-005
3.2813e-005
3.28158e-005
3.28211e-005
3.28217e-005
3.2817e-005
3.28134e-005
3.2815e-005
3.2821e-005
3.28239e-005
3.28199e-005
3.28134e-005
3.28114e-005
3.28163e-005
3.28239e-005
3.28271e-005
3.28274e-005
3.28273e-005
3.28281e-005
3.28287e-005
3.2829e-005
3.28296e-005
3.28301e-005
3.28295e-005
3.28267e-005
3.28234e-005
3.28221e-005
3.2823e-005
3.28254e-005
3.2827e-005
3.28278e-005
3.28284e-005
3.28288e-005
3.28289e-005
3.28291e-005
3.28293e-005
3.28294e-005
3.28293e-005
3.2829e-005
3.28285e-005
3.28279e-005
3.28276e-005
3.28278e-005
3.28283e-005
3.28287e-005
3.28293e-005
3.28296e-005
3.28301e-005
3.28303e-005
3.28306e-005
3.28308e-005
3.28311e-005
3.28313e-005
3.28316e-005
3.28316e-005
3.28319e-005
3.2832e-005
3.28323e-005
3.28324e-005
3.28327e-005
3.2833e-005
3.2833e-005
3.28334e-005
3.28335e-005
3.28338e-005
3.28338e-005
3.28344e-005
3.28341e-005
3.28344e-005
3.2835e-005
3.2834e-005
3.28356e-005
3.28347e-005
3.28354e-005
3.28353e-005
3.28352e-005
3.28359e-005
3.2835e-005
3.28361e-005
3.28354e-005
3.28368e-005
3.28374e-005
3.28377e-005
3.28378e-005
3.28375e-005
3.28382e-005
3.28379e-005
3.28387e-005
3.28389e-005
3.28391e-005
3.28394e-005
3.28395e-005
3.28395e-005
3.28397e-005
3.28395e-005
3.28398e-005
3.28396e-005
3.28397e-005
3.28396e-005
3.28396e-005
3.28395e-005
3.28394e-005
3.28394e-005
3.28392e-005
3.28392e-005
3.28389e-005
3.28388e-005
3.28386e-005
3.28384e-005
3.2838e-005
3.28378e-005
3.28374e-005
3.28371e-005
3.28366e-005
3.28362e-005
3.28358e-005
3.28358e-005
3.28359e-005
3.2836e-005
3.28361e-005
3.28365e-005
3.28371e-005
3.28376e-005
3.2838e-005
3.28386e-005
3.28393e-005
3.28397e-005
3.28409e-005
3.28418e-005
3.28434e-005
3.28436e-005
3.28486e-005
3.2846e-005
3.28521e-005
3.28586e-005
3.28647e-005
3.40684e-005
1.42044e-006
1.4205e-006
1.4204e-006
1.42057e-006
1.42092e-006
1.42098e-006
1.4207e-006
1.42046e-006
1.42067e-006
1.42112e-006
1.4213e-006
1.42102e-006
1.4206e-006
1.42062e-006
1.42101e-006
1.42155e-006
1.42181e-006
1.42193e-006
1.42207e-006
1.42223e-006
1.42235e-006
1.42238e-006
1.42243e-006
1.42246e-006
1.42242e-006
1.4223e-006
1.42218e-006
1.42223e-006
1.42227e-006
1.42232e-006
1.42237e-006
1.4224e-006
1.42246e-006
1.42254e-006
1.42262e-006
1.42268e-006
1.42273e-006
1.42278e-006
1.42282e-006
1.42287e-006
1.4229e-006
1.42295e-006
1.42301e-006
1.42307e-006
1.42314e-006
1.4232e-006
1.42325e-006
1.4233e-006
1.42336e-006
1.42341e-006
1.42346e-006
1.42351e-006
1.42356e-006
1.42361e-006
1.42365e-006
1.42369e-006
1.42373e-006
1.42377e-006
1.42381e-006
1.42385e-006
1.42389e-006
1.42393e-006
1.42398e-006
1.42402e-006
1.42406e-006
1.42411e-006
1.42414e-006
1.4242e-006
1.42423e-006
1.42428e-006
1.42432e-006
1.42435e-006
1.42441e-006
1.42446e-006
1.42449e-006
1.42453e-006
1.42458e-006
1.42462e-006
1.42466e-006
1.42472e-006
1.42474e-006
1.42479e-006
1.42482e-006
1.42483e-006
1.42486e-006
1.4249e-006
1.42496e-006
1.42498e-006
1.425e-006
1.42501e-006
1.42502e-006
1.42504e-006
1.42505e-006
1.42507e-006
1.42509e-006
1.4251e-006
1.42512e-006
1.42513e-006
1.42514e-006
1.42515e-006
1.42515e-006
1.42515e-006
1.42515e-006
1.42515e-006
1.42514e-006
1.42512e-006
1.42511e-006
1.42509e-006
1.42506e-006
1.42504e-006
1.425e-006
1.42496e-006
1.42491e-006
1.42486e-006
1.42481e-006
1.42476e-006
1.4247e-006
1.42465e-006
1.42461e-006
1.42459e-006
1.42456e-006
1.42453e-006
1.4245e-006
1.4245e-006
1.42445e-006
1.42442e-006
1.42439e-006
1.42431e-006
1.42434e-006
1.42436e-006
1.42426e-006
1.42448e-006
1.42436e-006
1.42483e-006
1.42454e-006
1.42755e-006
1.37036e-006
1.33928e-006
6.52924e-006
1.19994e-007
1.20009e-007
1.20025e-007
1.20046e-007
1.20056e-007
1.20056e-007
1.2007e-007
1.20093e-007
1.20119e-007
1.20122e-007
1.20116e-007
1.20121e-007
1.20138e-007
1.20165e-007
1.20177e-007
1.202e-007
1.20217e-007
1.20237e-007
1.20244e-007
1.20244e-007
1.20251e-007
1.20268e-007
1.20286e-007
1.20294e-007
1.20299e-007
1.20301e-007
1.20298e-007
1.20298e-007
1.20306e-007
1.20319e-007
1.20345e-007
1.20367e-007
1.2038e-007
1.20392e-007
1.20405e-007
1.20418e-007
1.20431e-007
1.20444e-007
1.20456e-007
1.20469e-007
1.20481e-007
1.20494e-007
1.20506e-007
1.20517e-007
1.20529e-007
1.20542e-007
1.20555e-007
1.20568e-007
1.2058e-007
1.20592e-007
1.20605e-007
1.20617e-007
1.20629e-007
1.20641e-007
1.20652e-007
1.20664e-007
1.20675e-007
1.20687e-007
1.20698e-007
1.2071e-007
1.20721e-007
1.20733e-007
1.20744e-007
1.20755e-007
1.20766e-007
1.20777e-007
1.20788e-007
1.20797e-007
1.20809e-007
1.20818e-007
1.20828e-007
1.2084e-007
1.20848e-007
1.2086e-007
1.20866e-007
1.20876e-007
1.20882e-007
1.2089e-007
1.20899e-007
1.20904e-007
1.20916e-007
1.2092e-007
1.2093e-007
1.2094e-007
1.20948e-007
1.20952e-007
1.20955e-007
1.20964e-007
1.20968e-007
1.20976e-007
1.20982e-007
1.20987e-007
1.20991e-007
1.20995e-007
1.20997e-007
1.21e-007
1.21002e-007
1.21004e-007
1.21006e-007
1.21007e-007
1.21008e-007
1.21008e-007
1.21007e-007
1.21006e-007
1.21005e-007
1.21003e-007
1.21e-007
1.20997e-007
1.20993e-007
1.20987e-007
1.20982e-007
1.20975e-007
1.20967e-007
1.20958e-007
1.20949e-007
1.20939e-007
1.20927e-007
1.20914e-007
1.20903e-007
1.20891e-007
1.20879e-007
1.20867e-007
1.20854e-007
1.2084e-007
1.20825e-007
1.20806e-007
1.20793e-007
1.20773e-007
1.2076e-007
1.20749e-007
1.20804e-007
1.20649e-007
1.20699e-007
1.21812e-007
1.20698e-007
1.09219e-007
2.38887e-007
1.86955e-005
0.00224632
1.85227e-008
1.85273e-008
1.85288e-008
1.8531e-008
1.85369e-008
1.85427e-008
1.85459e-008
1.8545e-008
1.85454e-008
1.85498e-008
1.85564e-008
1.8561e-008
1.85599e-008
1.85602e-008
1.85641e-008
1.85719e-008
1.85789e-008
1.85833e-008
1.85877e-008
1.85945e-008
1.85988e-008
1.86015e-008
1.86014e-008
1.86031e-008
1.86059e-008
1.86094e-008
1.86139e-008
1.86182e-008
1.86215e-008
1.86246e-008
1.86281e-008
1.86298e-008
1.86336e-008
1.86376e-008
1.86417e-008
1.86456e-008
1.86496e-008
1.86535e-008
1.86574e-008
1.86612e-008
1.86649e-008
1.86683e-008
1.86716e-008
1.86751e-008
1.86789e-008
1.86828e-008
1.86867e-008
1.86907e-008
1.86944e-008
1.86982e-008
1.87019e-008
1.87056e-008
1.87092e-008
1.87128e-008
1.87164e-008
1.87199e-008
1.87232e-008
1.87267e-008
1.873e-008
1.87334e-008
1.87366e-008
1.87398e-008
1.8743e-008
1.8746e-008
1.87492e-008
1.87521e-008
1.87551e-008
1.8758e-008
1.87608e-008
1.87635e-008
1.87663e-008
1.8769e-008
1.8772e-008
1.8775e-008
1.87771e-008
1.87791e-008
1.8782e-008
1.87843e-008
1.8787e-008
1.87898e-008
1.8792e-008
1.87943e-008
1.87965e-008
1.8798e-008
1.88001e-008
1.88027e-008
1.88053e-008
1.88071e-008
1.88088e-008
1.88103e-008
1.88114e-008
1.88126e-008
1.8814e-008
1.88152e-008
1.88162e-008
1.88173e-008
1.88179e-008
1.88188e-008
1.88192e-008
1.88196e-008
1.88199e-008
1.88199e-008
1.88199e-008
1.88196e-008
1.88193e-008
1.88187e-008
1.88182e-008
1.88171e-008
1.88161e-008
1.88147e-008
1.88134e-008
1.88116e-008
1.88098e-008
1.88074e-008
1.88051e-008
1.88022e-008
1.87992e-008
1.87958e-008
1.87926e-008
1.87892e-008
1.87857e-008
1.87817e-008
1.87777e-008
1.87729e-008
1.87682e-008
1.87626e-008
1.8757e-008
1.87529e-008
1.87188e-008
1.87777e-008
1.86203e-008
1.88337e-008
1.8926e-008
1.66417e-008
1.78428e-008
1.22623e-007
1.09017e-005
0.000928181
0.0191015
4.6832e-009
4.68434e-009
4.68535e-009
4.68709e-009
4.68894e-009
4.68941e-009
4.68962e-009
4.69059e-009
4.69281e-009
4.69534e-009
4.69612e-009
4.69629e-009
4.69676e-009
4.6984e-009
4.70076e-009
4.70285e-009
4.70495e-009
4.70688e-009
4.708e-009
4.70892e-009
4.70926e-009
4.71026e-009
4.71218e-009
4.71389e-009
4.71543e-009
4.71679e-009
4.71799e-009
4.71889e-009
4.72013e-009
4.72138e-009
4.72331e-009
4.72546e-009
4.72692e-009
4.7284e-009
4.7299e-009
4.73138e-009
4.73286e-009
4.73435e-009
4.73584e-009
4.73732e-009
4.73878e-009
4.74026e-009
4.7418e-009
4.74338e-009
4.74491e-009
4.74638e-009
4.74784e-009
4.74928e-009
4.75074e-009
4.7522e-009
4.75366e-009
4.7551e-009
4.75653e-009
4.75796e-009
4.75938e-009
4.76075e-009
4.76215e-009
4.76349e-009
4.76484e-009
4.76615e-009
4.76746e-009
4.76875e-009
4.76998e-009
4.77126e-009
4.77246e-009
4.77371e-009
4.77485e-009
4.77612e-009
4.77717e-009
4.77839e-009
4.77953e-009
4.78057e-009
4.78193e-009
4.78298e-009
4.78394e-009
4.7849e-009
4.7858e-009
4.78687e-009
4.78767e-009