/*--------------------------------*- C++ -*----------------------------------*\
| =========                 |                                                 |
| \\      /  F ield         | OpenFOAM: The Open Source CFD Toolbox           |
|  \\    /   O peration     | Version:  5.x                                   |
|   \\  /    A nd           | Web:      www.OpenFOAM.org                      |
|    \\/     M anipulation  |                                                 |
\*---------------------------------------------------------------------------*/
/*   Windows 32 and 64 bit porting by blueCAPE: http://www.bluecape.com.pt   *\
|  Based on Windows porting (2.0.x v4) by Symscape: http://www.symscape.com   |
\*---------------------------------------------------------------------------*/
FoamFile
{
    version     2.0;
    format      ascii;
    class       volScalarField;
    location    "270";
    object      k;
}
// * * * * * * * * * * * * * * * * * * * * * * * * * * * * * * * * * * * * * //

dimensions      [0 2 -2 0 0 0 0];

internalField   nonuniform List<scalar> 
43900
(
0.000985516
0.000989437
0.000990249
0.000990177
0.000990127
0.000990115
0.00099012
0.000990121
0.000990122
0.000990126
0.000990125
0.000990125
0.000990127
0.000990129
0.00099013
0.000990131
0.000990134
0.000990134
0.000990135
0.000990135
0.000990134
0.000990136
0.000990136
0.000990136
0.000990137
0.000990137
0.000990137
0.000990138
0.000990138
0.00164798
5.59734e-005
3.89315e-005
3.81731e-005
4.08113e-005
4.09667e-005
4.09882e-005
4.09569e-005
4.0957e-005
4.09637e-005
4.09634e-005
4.0964e-005
4.0967e-005
4.09703e-005
4.0971e-005
4.09742e-005
4.09779e-005
4.09777e-005
4.09796e-005
4.09803e-005
4.09797e-005
4.09822e-005
4.09828e-005
4.09825e-005
4.09845e-005
4.09841e-005
4.09841e-005
4.09864e-005
4.09862e-005
0.294225
0.0539236
0.00408866
0.000117196
4.98518e-006
3.08322e-006
2.97819e-006
3.34478e-006
3.38113e-006
3.37617e-006
3.37148e-006
3.37153e-006
3.37268e-006
3.37352e-006
3.37417e-006
3.37513e-006
3.37553e-006
3.37587e-006
3.37662e-006
3.37693e-006
3.37742e-006
3.378e-006
3.37813e-006
3.37852e-006
3.3789e-006
3.37902e-006
3.37941e-006
3.37964e-006
3.37964e-006
0.879096
0.375844
0.119594
0.0236769
0.00205849
8.16759e-005
3.97716e-006
5.892e-007
4.57714e-007
4.99393e-007
5.34094e-007
5.35846e-007
5.31263e-007
5.30374e-007
5.31349e-007
5.31586e-007
5.3148e-007
5.31655e-007
5.3185e-007
5.31948e-007
5.32064e-007
5.32178e-007
5.32278e-007
5.32381e-007
5.32459e-007
5.32531e-007
5.32612e-007
5.32671e-007
5.32733e-007
1.29054
0.739627
0.395029
0.176632
0.0561548
0.0103285
0.000826225
3.7663e-005
1.70449e-006
2.29384e-007
1.28616e-007
1.28648e-007
1.45531e-007
1.47893e-007
1.4503e-007
1.45059e-007
1.45905e-007
1.45733e-007
1.45647e-007
1.45762e-007
1.45856e-007
1.45892e-007
1.45916e-007
1.45946e-007
1.45979e-007
1.46002e-007
1.46032e-007
1.46058e-007
1.4607e-007
1.54737
0.984427
0.61699
0.370034
0.198871
0.0833097
0.0231832
0.00327344
0.000210023
1.01064e-005
5.32546e-007
9.3892e-008
5.38154e-008
5.5417e-008
6.22127e-008
6.15138e-008
5.96635e-008
6.03839e-008
6.06756e-008
6.04881e-008
6.04493e-008
6.04956e-008
6.05164e-008
6.05287e-008
6.05392e-008
6.05509e-008
6.05633e-008
6.05736e-008
6.05838e-008
1.71314
1.15153
0.774514
0.514836
0.33128
0.19859
0.100396
0.0349304
0.00700529
0.000638237
3.53666e-005
1.86685e-006
1.31362e-007
3.87535e-008
2.88617e-008
3.1969e-008
3.47532e-008
3.32329e-008
3.2985e-008
3.3288e-008
3.32263e-008
3.31275e-008
3.31467e-008
3.31703e-008
3.31807e-008
3.31864e-008
3.31939e-008
3.32046e-008
3.321e-008
1.81131
1.25825
0.879827
0.614877
0.424925
0.285567
0.181131
0.101931
0.0427802
0.0110846
0.00139595
9.292e-005
5.31586e-006
3.25955e-007
4.09042e-008
2.12592e-008
1.88249e-008
2.16079e-008
2.1608e-008
2.13343e-008
2.16316e-008
2.17482e-008
2.16668e-008
2.16375e-008
2.16489e-008
2.16594e-008
2.16643e-008
2.16685e-008
2.167e-008
1.87953
1.33734
0.960436
0.692885
0.498819
0.355046
0.246349
0.16269
0.0974788
0.0464646
0.0138999
0.00214497
0.00016844
1.06151e-005
6.77405e-007
5.82549e-008
1.9326e-008
1.43765e-008
1.54237e-008
1.56897e-008
1.52312e-008
1.53773e-008
1.56248e-008
1.56225e-008
1.55917e-008
1.55855e-008
1.55875e-008
1.55943e-008
1.56006e-008
1.90499
1.37814
1.00842
0.74364
0.550043
0.405585
0.295621
0.210302
0.142959
0.0891167
0.0460585
0.0150327
0.00262587
0.000234331
1.62073e-005
1.11015e-006
8.88383e-008
1.7936e-008
1.19759e-008
1.18458e-008
1.24786e-008
1.20123e-008
1.17912e-008
1.19306e-008
1.20225e-008
1.20334e-008
1.20342e-008
1.20368e-008
1.20378e-008
1.90501
1.3947
1.03387
0.773891
0.582825
0.439651
0.330271
0.245101
0.177565
0.12314
0.0788005
0.0427764
0.0146514
0.00273581
0.000266703
2.00767e-005
1.48355e-006
1.19465e-007
1.85394e-008
1.06755e-008
9.5866e-009
1.04711e-008
1.03466e-008
1.00045e-008
9.99401e-009
1.00265e-008
1.00402e-008
1.00444e-008
1.00493e-008
1.89619
1.40212
1.05026
0.795113
0.606646
0.464867
0.356254
0.27152
0.20422
0.149853
0.105292
0.0684456
0.0381205
0.0133544
0.00255359
0.000262787
2.13048e-005
1.69542e-006
1.43178e-007
1.97357e-008
9.89083e-009
8.37781e-009
8.95008e-009
9.18485e-009
8.98866e-009
8.90164e-009
8.91132e-009
8.91902e-009
8.91979e-009
1.87463
1.39813
1.05643
0.807366
0.622526
0.482914
0.375621
0.291726
0.224984
0.170987
0.126616
0.0896863
0.0587368
0.0329333
0.0114331
0.0021723
0.000233434
2.05164e-005
1.77498e-006
1.60823e-007
2.15648e-008
9.01888e-009
7.35544e-009
7.68359e-009
8.10169e-009
8.06149e-009
7.99225e-009
7.97692e-009
7.98204e-009
1.84264
1.38481
1.05434
0.812212
0.63182
0.495096
0.389696
0.307076
0.241226
0.187871
0.143951
0.107281
0.0763191
0.0500415
0.0278932
0.00939402
0.00175293
0.000197404
1.89378e-005
1.79539e-006
1.77172e-007
2.341e-008
8.36116e-009
6.52025e-009
6.54651e-009
6.8206e-009
6.92487e-009
6.90529e-009
6.89334e-009
1.80237
1.36341
1.04547
0.81108
0.635745
0.502436
0.399399
0.318434
0.253776
0.201302
0.158043
0.121849
0.0911738
0.0649245
0.042388
0.0232273
0.00751842
0.00136995
0.000161869
1.69216e-005
1.75134e-006
1.86639e-007
2.48899e-008
7.90361e-009
5.91253e-009
5.43056e-009
5.61248e-009
5.74872e-009
5.78066e-009
1.75563
1.33597
1.03065
0.805069
0.635294
0.505858
0.405534
0.326532
0.263313
0.21192
0.169488
0.133929
0.103718
0.0777495
0.0552496
0.0357283
0.0189862
0.0058607
0.0010466
0.000130489
1.48246e-005
1.67159e-006
1.93152e-007
2.66255e-008
7.71463e-009
5.4228e-009
4.86903e-009
4.84061e-009
4.87818e-009
1.70355
1.30355
1.01132
0.794615
0.631314
0.505977
0.408693
0.331907
0.270351
0.220225
0.178776
0.143988
0.114376
0.0888507
0.0666203
0.0471368
0.0300691
0.0153134
0.0044991
0.000796468
0.000105827
1.31258e-005
1.6167e-006
2.02584e-007
2.90527e-008
7.76116e-009
5.02831e-009
4.55928e-009
4.44715e-009
1.64688
1.26686
0.988135
0.780709
0.623888
0.50348
0.40938
0.335019
0.275283
0.226558
0.186208
0.152295
0.123385
0.0984129
0.0765932
0.0573585
0.0403235
0.0252741
0.0121912
0.00341418
0.000606644
8.61176e-005
1.15686e-005
1.53585e-006
2.05889e-007
3.08777e-008
7.91083e-009
4.858e-009
4.42872e-009
1.58637
1.22656
0.961644
0.763833
0.61381
0.49829
0.407931
0.336129
0.278373
0.231174
0.19202
0.159063
0.130928
0.106586
0.0852685
0.0664075
0.0495954
0.0345661
0.0211937
0.00952115
0.0025526
0.000459677
6.95153e-005
1.0051e-005
1.43377e-006
2.05654e-007
3.24696e-008
8.23923e-009
4.8494e-009
1.52271
1.18323
0.932352
0.744402
0.601413
0.490987
0.404435
0.335486
0.279838
0.234272
0.196411
0.164488
0.137193
0.11354
0.0927878
0.0743796
0.0579045
0.043074
0.0297138
0.0177841
0.00730423
0.00187333
0.000344227
5.54683e-005
8.62272e-006
1.32262e-006
2.03237e-007
3.39046e-008
8.57265e-009
1.45661
1.13746
0.900752
0.722829
0.587048
0.481878
0.399217
0.333294
0.279805
0.235991
0.199507
0.168691
0.142295
0.119384
0.0992455
0.081343
0.0652727
0.0507396
0.0375438
0.0255809
0.0148824
0.00550643
0.00135924
0.000257357
4.4118e-005
7.31523e-006
1.19553e-006
1.95708e-007
3.40784e-008
1.38879
1.08987
0.867338
0.699527
0.57106
0.471259
0.392596
0.329696
0.278677
0.236576
0.201496
0.171815
0.146349
0.124211
0.104721
0.0873636
0.0717451
0.0575717
0.0446327
0.0327925
0.0219968
0.0122893
0.00424195
0.00101897
0.000198752
3.59211e-005
6.29662e-006
1.08722e-006
1.84662e-007
1.31995
1.04101
0.832583
0.674886
0.553779
0.459407
0.384804
0.324982
0.276327
0.236155
0.202546
0.174042
0.14954
0.128199
0.109376
0.0925814
0.0774369
0.0636562
0.0510263
0.0393983
0.028685
0.0188665
0.00993347
0.00325253
0.000772642
0.000155625
2.94967e-005
5.44059e-006
9.68041e-007
1.25072
0.991408
0.796921
0.649271
0.53551
0.446584
0.376072
0.319365
0.273116
0.234865
0.202704
0.175419
0.151912
0.131396
0.113264
0.0970537
0.0824047
0.0690415
0.0567552
0.0453926
0.0348514
0.0250798
0.0160728
0.00784031
0.00245357
0.000582862
0.000121578
2.41573e-005
4.58909e-006
1.18169
0.941551
0.760747
0.623009
0.51653
0.433027
0.366607
0.313029
0.269205
0.232858
0.202292
0.176218
0.153701
0.134005
0.116562
0.100935
0.0867849
0.0738476
0.0619209
0.0508522
0.040533
0.0308954
0.0219131
0.0136095
0.0060445
0.00182225
0.000437192
9.49994e-005
1.93975e-005
1.11337
0.891846
0.724399
0.596381
0.497074
0.418935
0.356579
0.306119
0.264718
0.230279
0.201243
0.176378
0.154884
0.136036
0.119306
0.104284
0.0906485
0.0781521
0.0666009
0.0558471
0.0457813
0.036329
0.0274498
0.0191443
0.0114234
0.00459339
0.0013465
0.000329952
7.3275e-005
1.04617
0.842641
0.688163
0.569623
0.477342
0.40448
0.346138
0.298772
0.259784
0.227251
0.199737
0.176152
0.155666
0.137656
0.121632
0.107211
0.0940919
0.0820397
0.0708706
0.0604422
0.0506471
0.0414081
0.032677
0.0244367
0.0166951
0.00946467
0.00353864
0.00102248
0.000250674
0.980452
0.794219
0.65227
0.54293
0.457496
0.389799
0.335405
0.291093
0.254499
0.223868
0.197885
0.175558
0.156093
0.138933
0.123622
0.109804
0.0972018
0.0855946
0.0748097
0.0647116
0.055196
0.0461858
0.0376286
0.029497
0.021789
0.0145249
0.00771899
0.00276096
0.000775531
0.916487
0.746808
0.616907
0.516451
0.437661
0.374998
0.324469
0.283161
0.248931
0.220181
0.19571
0.174604
0.156158
0.139868
0.125289
0.112092
0.10002
0.088869
0.0784771
0.0687172
0.0594903
0.050721
0.0423557
0.0343614
0.0267273
0.019464
0.0125885
0.00620481
0.00210589
0.854499
0.700586
0.582219
0.490307
0.417936
0.36016
0.3134
0.275037
0.243136
0.21625
0.19329
0.173426
0.156022
0.140581
0.126723
0.114146
0.102607
0.091917
0.0819247
0.0725106
0.0635808
0.0550628
0.0469035
0.039067
0.0315362
0.0243123
0.0174101
0.0108704
0.0048381
0.794653
0.655691
0.548316
0.464589
0.398395
0.345346
0.302251
0.266766
0.237153
0.21211
0.190652
0.172029
0.155663
0.141085
0.127959
0.116007
0.105007
0.0947852
0.0851993
0.0761381
0.0675131
0.0592556
0.0513137
0.043651
0.0362464
0.0290947
0.0222006
0.0156329
0.00916046
0.737075
0.612226
0.515285
0.439363
0.379092
0.330599
0.291055
0.258374
0.231005
0.207778
0.187809
0.170417
0.155079
0.14138
0.129003
0.117692
0.107246
0.0975032
0.0883347
0.0796366
0.0713265
0.0633394
0.0556258
0.0481499
0.040889
0.0338336
0.0269844
0.020388
0.0139564
0.681859
0.570269
0.483187
0.41468
0.360066
0.315948
0.279834
0.249879
0.224703
0.203264
0.184769
0.168605
0.154298
0.141474
0.129861
0.119211
0.109336
0.100091
0.091356
0.0830358
0.0750538
0.0673496
0.0598764
0.0525998
0.0454968
0.0385559
0.0317758
0.02518
0.0188019
0.62907
0.52988
0.452072
0.390579
0.341346
0.301414
0.268603
0.241289
0.218253
0.198569
0.181532
0.166594
0.153328
0.141398
0.130554
0.120574
0.111287
0.102558
0.0942768
0.0863537
0.0787182
0.0713137
0.0640964
0.0570336
0.0501027
0.0432915
0.0365973
0.0300329
0.0236563
0.578758
0.491104
0.42198
0.367091
0.322955
0.287013
0.25737
0.232606
0.21165
0.193688
0.178092
0.164376
0.15216
0.141147
0.131081
0.121786
0.113105
0.104912
0.097106
0.0896026
0.0823357
0.0752521
0.0683104
0.0614793
0.0547372
0.0480714
0.0414781
0.0349656
0.0285782
0.530957
0.453982
0.392944
0.344244
0.304912
0.272756
0.246138
0.223827
0.204889
0.188608
0.174432
0.16193
0.150762
0.14066
0.131402
0.12282
0.114773
0.107144
0.0998409
0.0927851
0.0859144
0.0791782
0.072537
0.0659607
0.0594281
0.0529265
0.0464512
0.0400081
0.033626
0.485695
0.418546
0.365
0.322066
0.28724
0.258657
0.234915
0.214953
0.197961
0.183316
0.170534
0.159233
0.149112
0.139927
0.131478
0.123643
0.116263
0.109233
0.102467
0.0958938
0.0894536
0.0830983
0.0767894
0.0704972
0.0642008
0.0578869
0.0515506
0.0451958
0.0388421
0.442993
0.38483
0.33818
0.300588
0.269962
0.244732
0.223708
0.205982
0.190859
0.177798
0.166377
0.156262
0.147187
0.138937
0.131336
0.12425
0.117556
0.111155
0.104964
0.0989124
0.0929441
0.0870109
0.0810743
0.075104
0.0690779
0.0629822
0.0568106
0.0505661
0.044263
0.402866
0.352865
0.312522
0.279844
0.253107
0.231003
0.21253
0.19692
0.183578
0.172041
0.161942
0.152992
0.144956
0.137645
0.130909
0.124586
0.11861
0.112873
0.107297
0.101814
0.0963666
0.0909059
0.0853917
0.0797914
0.0740804
0.0682423
0.0622689
0.0561615
0.0499318
0.365326
0.322684
0.288064
0.259874
0.236711
0.217497
0.201401
0.187776
0.17612
0.166038
0.157214
0.149396
0.142381
0.136
0.13011
0.124575
0.119361
0.114333
0.10942
0.104558
0.0996882
0.0947608
0.0897315
0.0845632
0.0792261
0.0736987
0.0679689
0.0620346
0.0559053
0.330374
0.294314
0.264846
0.24072
0.220814
0.204253
0.190351
0.178574
0.168498
0.15979
0.152182
0.145457
0.139438
0.133977
0.12895
0.124255
0.119782
0.115485
0.111275
0.107087
0.102858
0.0985353
0.0940673
0.0894097
0.0845242
0.0793805
0.0739582
0.0682487
0.0622574
0.298002
0.267777
0.242906
0.222429
0.205465
0.191314
0.179421
0.169345
0.160737
0.153315
0.146854
0.141169
0.136108
0.131543
0.127366
0.123486
0.119771
0.116247
0.112786
0.109326
0.105806
0.102165
0.0983479
0.094298
0.0899647
0.0853037
0.0802801
0.0748728
0.0690777
0.268188
0.243087
0.222282
0.20505
0.190719
0.17874
0.168667
0.160143
0.152881
0.146648
0.141256
0.136548
0.132395
0.128688
0.125333
0.12225
0.119362
0.11657
0.11388
0.11119
0.108438
0.10556
0.10249
0.099159
0.0955014
0.091452
0.0869538
0.0819631
0.0764567
0.240898
0.220254
0.203009
0.188637
0.176641
0.1666
0.158161
0.151039
0.145001
0.139855
0.135444
0.13164
0.128332
0.125431
0.122856
0.120541
0.118423
0.116403
0.114484
0.112589
0.110651
0.108604
0.106373
0.103879
0.101035
0.0977532
0.0939442
0.0895294
0.0844514
0.216083
0.199276
0.185121
0.173249
0.163308
0.154984
0.148003
0.142138
0.137201
0.133038
0.129518
0.126534
0.123999
0.121836
0.119982
0.118381
0.116982
0.115737
0.114534
0.113441
0.112341
0.11117
0.109851
0.108298
0.106406
0.104059
0.101132
0.0974953
0.0930372
0.193688
0.180153
0.168657
0.158954
0.150813
0.144003
0.138317
0.133575
0.129626
0.126343
0.123621
0.121373
0.119526
0.118023
0.116813
0.115853
0.115106
0.114536
0.114096
0.113717
0.113434
0.113143
0.112773
0.112231
0.111401
0.110142
0.108302
0.105675
0.10207
0.173654
0.162883
0.15366
0.145832
0.139265
0.133794
0.129261
0.125524
0.12246
0.119964
0.11795
0.116348
0.115101
0.114165
0.113506
0.113096
0.112907
0.112932
0.113121
0.113454
0.1139
0.114447
0.115008
0.115498
0.115783
0.115711
0.115169
0.113791
0.11128
0.155924
0.147468
0.140182
0.133977
0.128793
0.124516
0.121021
0.118192
0.115926
0.114134
0.112743
0.111697
0.110955
0.110487
0.110273
0.110307
0.110554
0.111056
0.11177
0.1127
0.113784
0.115063
0.116484
0.117965
0.119397
0.120619
0.121413
0.121346
0.120279
0.140441
0.133914
0.128277
0.123487
0.119536
0.116339
0.113796
0.111804
0.110269
0.109111
0.108266
0.107692
0.10736
0.107255
0.107368
0.107709
0.108293
0.109129
0.110221
0.11158
0.113209
0.115057
0.117207
0.11957
0.12207
0.12456
0.126817
0.128371
0.128613
0.127148
0.12222
0.117997
0.114456
0.111624
0.109432
0.107787
0.106587
0.10574
0.105167
0.104808
0.104632
0.104621
0.104766
0.105097
0.105633
0.106397
0.107422
0.108732
0.110355
0.112317
0.11464
0.117299
0.120372
0.123785
0.127432
0.131138
0.134381
0.136492
0.115972
0.112369
0.109368
0.106953
0.105165
0.103938
0.103171
0.102755
0.102588
0.102585
0.102681
0.102857
0.103097
0.103417
0.103856
0.104454
0.105259
0.10632
0.107683
0.109394
0.111499
0.114046
0.117076
0.120615
0.124712
0.129311
0.134349
0.13926
0.143607
0.106815
0.10431
0.102379
0.101003
0.100222
0.0999568
0.100092
0.100498
0.101058
0.101669
0.102256
0.102789
0.103259
0.103699
0.104169
0.104735
0.105466
0.106433
0.107699
0.109326
0.111385
0.113948
0.117087
0.120858
0.125356
0.130617
0.136758
0.143163
0.150067
0.0995383
0.0979454
0.0969712
0.09658
0.096804
0.0975393
0.098657
0.0999951
0.101395
0.102723
0.103901
0.104884
0.105668
0.106286
0.106805
0.107311
0.107902
0.108677
0.109729
0.111147
0.113014
0.115421
0.118455
0.122249
0.126914
0.132566
0.139457
0.146969
0.156891
0.0939614
0.0931318
0.0930319
0.0936013
0.094867
0.0966989
0.0989309
0.101363
0.103832
0.106183
0.108284
0.110053
0.111464
0.112537
0.113345
0.113985
0.11458
0.115261
0.116154
0.117372
0.119021
0.12123
0.124079
0.127782
0.132359
0.138227
0.145568
0.154048
0.16738
0.0898723
0.0896893
0.0904045
0.0919511
0.0943281
0.0973811
0.100929
0.104778
0.108713
0.112538
0.11608
0.119221
0.121895
0.124097
0.125871
0.127318
0.128573
0.129802
0.131168
0.13281
0.134863
0.137517
0.140795
0.145115
0.150012
0.156884
0.164397
0.174922
0.190815
0.0870418
0.0874124
0.0889199
0.0914727
0.0950534
0.0995125
0.104667
0.110294
0.116167
0.122063
0.127781
0.133161
0.138103
0.14257
0.146599
0.15029
0.153796
0.157296
0.160997
0.165133
0.169901
0.17564
0.182325
0.190845
0.1997
0.212989
0.223739
0.247118
0.258246
0.0852409
0.0860927
0.088389
0.0919883
0.096895
0.102962
0.110007
0.11782
0.126174
0.134843
0.143615
0.152313
0.160821
0.169099
0.177192
0.185234
0.193441
0.20209
0.211531
0.222188
0.234496
0.248981
0.266004
0.287264
0.310949
0.345239
0.376062
0.44632
0.453754
0.0842598
0.0855331
0.0886265
0.0933214
0.0996694
0.107529
0.116748
0.127142
0.138517
0.150669
0.163408
0.176582
0.190098
0.203955
0.218257
0.233227
0.24921
0.266664
0.286192
0.308524
0.334569
0.365476
0.402583
0.448616
0.504279
0.580186
0.666139
0.823505
0.879912
0.0839478
0.0855857
0.0894989
0.0953281
0.103217
0.113034
0.124673
0.138003
0.152885
0.169181
0.186769
0.20557
0.225579
0.246898
0.269765
0.294573
0.32189
0.352471
0.387313
0.427647
0.475139
0.531788
0.600709
0.685891
0.793598
0.934377
1.12222
1.38738
1.60861
0.000990139
0.00099014
0.000990139
0.000990136
0.000990139
0.000990143
0.000990144
0.00099014
0.000990137
0.000990138
0.000990143
0.000990146
0.000990143
0.000990137
0.000990135
0.000990139
0.000990145
0.000990148
0.000990148
0.000990148
0.000990148
0.000990149
0.000990149
0.00099015
0.00099015
0.00099015
0.000990147
0.000990144
0.000990143
0.000990144
0.000990146
0.000990148
0.000990148
0.000990149
0.000990149
0.000990149
0.000990149
0.000990149
0.000990149
0.000990149
0.000990149
0.000990148
0.000990148
0.000990148
0.000990148
0.000990148
0.000990148
0.000990149
0.000990149
0.00099015
0.00099015
0.00099015
0.00099015
0.00099015
0.00099015
0.000990151
0.000990151
0.000990151
0.000990151
0.000990151
0.000990151
0.000990151
0.000990152
0.000990152
0.000990152
0.000990152
0.000990152
0.000990152
0.000990153
0.000990153
0.000990153
0.000990153
0.000990152
0.000990154
0.000990153
0.000990153
0.000990153
0.000990153
0.000990154
0.000990153
0.000990154
0.000990153
0.000990154
0.000990155
0.000990155
0.000990155
0.000990155
0.000990156
0.000990155
0.000990156
0.000990156
0.000990156
0.000990157
0.000990157
0.000990157
0.000990157
0.000990157
0.000990157
0.000990157
0.000990157
0.000990157
0.000990157
0.000990157
0.000990157
0.000990157
0.000990156
0.000990156
0.000990156
0.000990156
0.000990156
0.000990156
0.000990155
0.000990155
0.000990155
0.000990155
0.000990154
0.000990154
0.000990154
0.000990154
0.000990154
0.000990154
0.000990154
0.000990154
0.000990155
0.000990155
0.000990156
0.000990156
0.000990157
0.000990157
0.000990158
0.000990159
0.000990161
0.000990161
0.000990165
0.000990163
0.000990168
0.000990165
0.000990176
0.00100823
4.09871e-005
4.09892e-005
4.09869e-005
4.09845e-005
4.09881e-005
4.09945e-005
4.09948e-005
4.09889e-005
4.09849e-005
4.09873e-005
4.09946e-005
4.09977e-005
4.09924e-005
4.09847e-005
4.09827e-005
4.09891e-005
4.09985e-005
4.10022e-005
4.10028e-005
4.10028e-005
4.10039e-005
4.10045e-005
4.1005e-005
4.10057e-005
4.10061e-005
4.10053e-005
4.10018e-005
4.09979e-005
4.09964e-005
4.09975e-005
4.10003e-005
4.10022e-005
4.10032e-005
4.1004e-005
4.10045e-005
4.10047e-005
4.10049e-005
4.10052e-005
4.10054e-005
4.10053e-005
4.10049e-005
4.10043e-005
4.10037e-005
4.10034e-005
4.10036e-005
4.10042e-005
4.10048e-005
4.10056e-005
4.10059e-005
4.10065e-005
4.10068e-005
4.10072e-005
4.10075e-005
4.10078e-005
4.10081e-005
4.10084e-005
4.10085e-005
4.10089e-005
4.10089e-005
4.10093e-005
4.10095e-005
4.10098e-005
4.10103e-005
4.10103e-005
4.10108e-005
4.10109e-005
4.10113e-005
4.10113e-005
4.1012e-005
4.10118e-005
4.10121e-005
4.10129e-005
4.10117e-005
4.10136e-005
4.10125e-005
4.10134e-005
4.10133e-005
4.10132e-005
4.1014e-005
4.10131e-005
4.10144e-005
4.10136e-005
4.10153e-005
4.1016e-005
4.10163e-005
4.10165e-005
4.10162e-005
4.1017e-005
4.10167e-005
4.10176e-005
4.10179e-005
4.10181e-005
4.10184e-005
4.10186e-005
4.10186e-005
4.10189e-005
4.10186e-005
4.1019e-005
4.10188e-005
4.10188e-005
4.10188e-005
4.10188e-005
4.10187e-005
4.10185e-005
4.10185e-005
4.10183e-005
4.10183e-005
4.10179e-005
4.10178e-005
4.10175e-005
4.10173e-005
4.10168e-005
4.10165e-005
4.1016e-005
4.10156e-005
4.1015e-005
4.10145e-005
4.1014e-005
4.10139e-005
4.1014e-005
4.10141e-005
4.10143e-005
4.10148e-005
4.10154e-005
4.1016e-005
4.10166e-005
4.10172e-005
4.10181e-005
4.10186e-005
4.102e-005
4.10211e-005
4.10231e-005
4.10233e-005
4.10298e-005
4.10262e-005
4.10338e-005
4.10514e-005
4.10594e-005
4.21582e-005
3.38004e-006
3.38017e-006
3.37998e-006
3.38039e-006
3.38119e-006
3.38124e-006
3.38061e-006
3.38016e-006
3.3807e-006
3.3817e-006
3.38203e-006
3.38137e-006
3.38047e-006
3.38062e-006
3.38152e-006
3.38275e-006
3.38329e-006
3.38357e-006
3.38388e-006
3.38423e-006
3.38448e-006
3.38456e-006
3.3847e-006
3.38477e-006
3.38467e-006
3.38438e-006
3.38412e-006
3.38425e-006
3.38434e-006
3.38447e-006
3.38459e-006
3.38469e-006
3.38483e-006
3.38501e-006
3.3852e-006
3.38534e-006
3.38547e-006
3.3856e-006
3.38571e-006
3.38582e-006
3.38593e-006
3.38605e-006
3.38619e-006
3.38635e-006
3.3865e-006
3.38664e-006
3.38677e-006
3.3869e-006
3.38702e-006
3.38715e-006
3.38728e-006
3.3874e-006
3.38751e-006
3.38763e-006
3.38774e-006
3.38784e-006
3.38795e-006
3.38804e-006
3.38814e-006
3.38824e-006
3.38834e-006
3.38844e-006
3.38855e-006
3.38866e-006
3.38876e-006
3.38887e-006
3.38897e-006
3.38909e-006
3.38917e-006
3.38929e-006
3.3894e-006
3.38948e-006
3.38962e-006
3.38973e-006
3.38981e-006
3.38991e-006
3.39003e-006
3.39013e-006
3.39022e-006
3.39036e-006
3.39041e-006
3.39053e-006
3.39061e-006
3.39063e-006
3.39071e-006
3.39081e-006
3.39093e-006
3.39098e-006
3.39105e-006
3.39107e-006
3.3911e-006
3.39114e-006
3.39117e-006
3.39122e-006
3.39125e-006
3.39128e-006
3.39132e-006
3.39135e-006
3.39137e-006
3.39139e-006
3.3914e-006
3.3914e-006
3.3914e-006
3.39139e-006
3.39137e-006
3.39134e-006
3.3913e-006
3.39125e-006
3.39119e-006
3.39113e-006
3.39105e-006
3.39096e-006
3.39084e-006
3.39072e-006
3.39059e-006
3.39047e-006
3.39033e-006
3.3902e-006
3.39011e-006
3.39004e-006
3.38996e-006
3.3899e-006
3.38981e-006
3.3898e-006
3.38969e-006
3.38962e-006
3.38952e-006
3.38933e-006
3.38938e-006
3.38946e-006
3.38916e-006
3.38974e-006
3.38947e-006
3.38992e-006
3.39008e-006
3.40137e-006
3.15037e-006
3.11213e-006
3.08775e-005
5.32808e-007
5.32876e-007
5.32946e-007
5.33025e-007
5.3307e-007
5.3308e-007
5.33146e-007
5.33248e-007
5.33338e-007
5.3335e-007
5.33328e-007
5.33364e-007
5.33439e-007
5.33548e-007
5.33597e-007
5.33691e-007
5.33766e-007
5.33846e-007
5.33882e-007
5.33895e-007
5.3393e-007
5.34003e-007
5.34064e-007
5.34089e-007
5.34109e-007
5.34125e-007
5.34126e-007
5.34138e-007
5.34178e-007
5.34236e-007
5.34341e-007
5.34424e-007
5.34479e-007
5.34533e-007
5.34589e-007
5.34647e-007
5.34706e-007
5.34762e-007
5.34818e-007
5.34874e-007
5.34929e-007
5.34984e-007
5.35034e-007
5.35084e-007
5.35137e-007
5.35193e-007
5.35249e-007
5.35306e-007
5.3536e-007
5.35415e-007
5.35468e-007
5.35522e-007
5.35574e-007
5.35626e-007
5.35679e-007
5.3573e-007
5.3578e-007
5.35832e-007
5.35881e-007
5.35933e-007
5.35982e-007
5.36032e-007
5.36083e-007
5.36129e-007
5.36179e-007
5.36224e-007
5.36274e-007
5.36314e-007
5.36366e-007
5.36404e-007
5.36448e-007
5.365e-007
5.36534e-007
5.36587e-007
5.36614e-007
5.36656e-007
5.36683e-007
5.36717e-007
5.36759e-007
5.36782e-007
5.3683e-007
5.36853e-007
5.36894e-007
5.36937e-007
5.36969e-007
5.36993e-007
5.37008e-007
5.37046e-007
5.37067e-007
5.37099e-007
5.37123e-007
5.37144e-007
5.37162e-007
5.37177e-007
5.37189e-007
5.37202e-007
5.37208e-007
5.37219e-007
5.37224e-007
5.37229e-007
5.37232e-007
5.37232e-007
5.3723e-007
5.37225e-007
5.37219e-007
5.37209e-007
5.37198e-007
5.37181e-007
5.37163e-007
5.37141e-007
5.37117e-007
5.37087e-007
5.37053e-007
5.37013e-007
5.36972e-007
5.36926e-007
5.36874e-007
5.36818e-007
5.36768e-007
5.36718e-007
5.36667e-007
5.36611e-007
5.36554e-007
5.36494e-007
5.36428e-007
5.36347e-007
5.3629e-007
5.36196e-007
5.36196e-007
5.36011e-007
5.366e-007
5.35351e-007
5.35621e-007
5.4458e-007
5.35175e-007
4.69177e-007
1.90245e-006
0.000222604
0.017417
1.46101e-007
1.46134e-007
1.46146e-007
1.46166e-007
1.46212e-007
1.46252e-007
1.46269e-007
1.46264e-007
1.46271e-007
1.46312e-007
1.46358e-007
1.46385e-007
1.46378e-007
1.46382e-007
1.46417e-007
1.46471e-007
1.4652e-007
1.46554e-007
1.46589e-007
1.46636e-007
1.46661e-007
1.46675e-007
1.46677e-007
1.46694e-007
1.46716e-007
1.46745e-007
1.4678e-007
1.4681e-007
1.46833e-007
1.46854e-007
1.46877e-007
1.46894e-007
1.46923e-007
1.46953e-007
1.46982e-007
1.47011e-007
1.4704e-007
1.47068e-007
1.47097e-007
1.47125e-007
1.47152e-007
1.47177e-007
1.47203e-007
1.4723e-007
1.47258e-007
1.47286e-007
1.47315e-007
1.47344e-007
1.47372e-007
1.474e-007
1.47427e-007
1.47455e-007
1.47481e-007
1.47508e-007
1.47534e-007
1.4756e-007
1.47585e-007
1.47611e-007
1.47635e-007
1.4766e-007
1.47685e-007
1.47708e-007
1.47732e-007
1.47754e-007
1.47777e-007
1.47799e-007
1.47821e-007
1.47843e-007
1.47864e-007
1.47884e-007
1.47905e-007
1.47925e-007
1.47948e-007
1.47969e-007
1.47985e-007
1.48001e-007
1.48022e-007
1.4804e-007
1.48059e-007
1.4808e-007
1.48096e-007
1.48114e-007
1.4813e-007
1.48141e-007
1.48157e-007
1.48175e-007
1.48193e-007
1.48206e-007
1.48219e-007
1.4823e-007
1.48239e-007
1.48249e-007
1.48258e-007
1.48267e-007
1.48275e-007
1.48282e-007
1.48287e-007
1.48293e-007
1.48296e-007
1.48299e-007
1.48301e-007
1.48301e-007
1.48301e-007
1.48299e-007
1.48296e-007
1.48292e-007
1.48287e-007
1.48279e-007
1.48272e-007
1.48261e-007
1.48251e-007
1.48238e-007
1.48225e-007
1.48207e-007
1.48189e-007
1.48168e-007
1.48146e-007
1.48121e-007
1.48097e-007
1.48073e-007
1.48047e-007
1.48018e-007
1.47988e-007
1.47953e-007
1.47918e-007
1.47876e-007
1.47837e-007
1.47819e-007
1.47362e-007
1.48268e-007
1.45892e-007
1.49254e-007
1.50045e-007
1.20237e-007
1.45833e-007
1.80531e-006
0.00019718
0.0116663
0.148369
6.06011e-008
6.06147e-008
6.06291e-008
6.06497e-008
6.06673e-008
6.06715e-008
6.06763e-008
6.0693e-008
6.072e-008
6.0745e-008
6.07505e-008
6.07528e-008
6.07634e-008
6.07834e-008
6.08102e-008
6.08334e-008
6.08573e-008
6.08768e-008
6.08864e-008
6.0893e-008
6.08991e-008
6.09141e-008
6.09377e-008
6.09558e-008
6.09736e-008
6.09881e-008
6.1e-008
6.10111e-008
6.10271e-008
6.10432e-008
6.10673e-008
6.10909e-008
6.11065e-008
6.11231e-008
6.114e-008
6.11567e-008
6.11736e-008
6.11904e-008
6.12073e-008
6.12241e-008
6.12409e-008
6.12582e-008
6.12762e-008
6.12941e-008
6.13115e-008
6.13281e-008
6.13447e-008
6.13608e-008
6.13774e-008
6.13938e-008
6.14103e-008
6.14267e-008
6.1443e-008
6.14593e-008
6.14753e-008
6.1491e-008
6.15069e-008
6.15221e-008
6.15376e-008
6.15526e-008
6.15675e-008
6.15822e-008
6.15962e-008
6.16109e-008
6.16245e-008
6.16388e-008
6.16519e-008
6.16662e-008
6.16786e-008
6.16923e-008
6.17054e-008
6.17174e-008
6.17323e-008
6.17443e-008
6.17554e-008
6.17667e-008
6.17766e-008
6.17884e-008
6.17975e-008
6.18102e-008
6.18211e-008
6.18308e-008
6.1839e-008
6.18477e-008
6.18575e-008
6.18638e-008
6.18725e-008
6.18801e-008
6.18879e-008
6.18961e-008
6.19047e-008
6.1912e-008
6.19178e-008
6.19235e-008
6.19289e-008
6.19332e-008
6.1938e-008
6.1941e-008
6.19443e-008
6.19466e-008
6.19482e-008
6.19494e-008
6.19498e-008
6.19498e-008
6.19489e-008
6.19476e-008
6.19452e-008
6.19426e-008
6.19388e-008
6.19344e-008
6.19288e-008
6.19229e-008
6.19161e-008
6.19083e-008
6.18991e-008
6.18889e-008
6.18778e-008
6.18661e-008
6.18538e-008
6.18407e-008
6.1826e-008
6.18101e-008
6.17907e-008
6.1772e-008
6.17489e-008
6.1731e-008
6.16956e-008
6.16119e-008
6.24201e-008
6.05426e-008
6.5379e-008
5.94028e-008
5.50744e-008
1.65468e-007
5.99493e-006
0.000382544
0.0125691
0.121504
0.512747
3.32169e-008
3.32289e-008
3.32392e-008
3.3246e-008
3.32525e-008
3.3262e-008
3.32763e-008
3.32901e-008
3.32982e-008
3.33027e-008
3.3309e-008
3.33207e-008
3.33353e-008
3.33479e-008
3.33604e-008
3.33726e-008
3.33816e-008
3.33892e-008
3.33966e-008
3.34086e-008
3.3422e-008
3.34344e-008
3.34459e-008
3.34566e-008
3.34691e-008
3.34792e-008
3.34929e-008
3.35085e-008
3.35213e-008
3.35315e-008
3.35451e-008
3.35542e-008
3.35663e-008
3.35803e-008
3.35933e-008
3.36057e-008
3.36179e-008
3.363e-008
3.3642e-008
3.3654e-008
3.36662e-008
3.36786e-008
3.36907e-008
3.37025e-008
3.37142e-008
3.37259e-008
3.37376e-008
3.37491e-008
3.37606e-008
3.3772e-008
3.37833e-008
3.37945e-008
3.38056e-008
3.38167e-008
3.38276e-008
3.38385e-008
3.38492e-008
3.38599e-008
3.38704e-008
3.38808e-008
3.3891e-008
3.39011e-008
3.39112e-008
3.39209e-008
3.39307e-008
3.39402e-008
3.39499e-008
3.39586e-008
3.39682e-008
3.3977e-008
3.3985e-008
3.39952e-008
3.40024e-008
3.40119e-008
3.40185e-008
3.4027e-008
3.40339e-008
3.40405e-008
3.40491e-008
3.40563e-008
3.40624e-008
3.40687e-008
3.40746e-008
3.40796e-008
3.40868e-008
3.40925e-008
3.40984e-008
3.41032e-008
3.41078e-008
3.41131e-008
3.41174e-008
3.41226e-008
3.4128e-008
3.41327e-008
3.41368e-008
3.41407e-008
3.41439e-008
3.41471e-008
3.41498e-008
3.41521e-008
3.4154e-008
3.41555e-008
3.41566e-008
3.41573e-008
3.41576e-008
3.41574e-008
3.41568e-008