/*--------------------------------*- C++ -*----------------------------------*\
| =========                 |                                                 |
| \\      /  F ield         | OpenFOAM: The Open Source CFD Toolbox           |
|  \\    /   O peration     | Version:  5.x                                   |
|   \\  /    A nd           | Web:      www.OpenFOAM.org                      |
|    \\/     M anipulation  |                                                 |
\*---------------------------------------------------------------------------*/
/*   Windows 32 and 64 bit porting by blueCAPE: http://www.bluecape.com.pt   *\
|  Based on Windows porting (2.0.x v4) by Symscape: http://www.symscape.com   |
\*---------------------------------------------------------------------------*/
FoamFile
{
    version     2.0;
    format      ascii;
    class       volScalarField;
    location    "270";
    object      nut;
}
// * * * * * * * * * * * * * * * * * * * * * * * * * * * * * * * * * * * * * //

dimensions      [0 2 -1 0 0 0 0];

internalField   nonuniform List<scalar> 
43900
(
5.71597e-005
5.80009e-005
5.80694e-005
5.80642e-005
5.80595e-005
5.80585e-005
5.80589e-005
5.8059e-005
5.80591e-005
5.80594e-005
5.80593e-005
5.80593e-005
5.80595e-005
5.80596e-005
5.80596e-005
5.80598e-005
5.806e-005
5.806e-005
5.806e-005
5.80601e-005
5.806e-005
5.80601e-005
5.80602e-005
5.80601e-005
5.80602e-005
5.80602e-005
5.80602e-005
5.80603e-005
5.80603e-005
0.000590981
7.38584e-006
4.30779e-006
4.16081e-006
4.57996e-006
4.60599e-006
4.60906e-006
4.60396e-006
4.6039e-006
4.60468e-006
4.60471e-006
4.60478e-006
4.60511e-006
4.60548e-006
4.60557e-006
4.60595e-006
4.60635e-006
4.60634e-006
4.60657e-006
4.60665e-006
4.6066e-006
4.60688e-006
4.60695e-006
4.60692e-006
4.60715e-006
4.6071e-006
4.60712e-006
4.60738e-006
4.60734e-006
0.153352
0.0455608
0.00520979
0.000108065
1.30966e-006
6.44424e-007
6.01713e-007
7.14217e-007
7.25172e-007
7.23574e-007
7.22012e-007
7.21991e-007
7.22301e-007
7.22491e-007
7.22619e-007
7.22819e-007
7.22905e-007
7.22982e-007
7.23139e-007
7.23206e-007
7.23315e-007
7.23434e-007
7.23466e-007
7.23552e-007
7.2363e-007
7.23656e-007
7.2374e-007
7.23786e-007
7.23789e-007
0.47536
0.291243
0.133646
0.0385035
0.00461243
0.000177753
4.18789e-006
2.55436e-007
1.74038e-007
1.94061e-007
2.14033e-007
2.15091e-007
2.12389e-007
2.11842e-007
2.12379e-007
2.12483e-007
2.12398e-007
2.12475e-007
2.12561e-007
2.12596e-007
2.12637e-007
2.12681e-007
2.1272e-007
2.1276e-007
2.12789e-007
2.12818e-007
2.1285e-007
2.12872e-007
2.12896e-007
0.757354
0.581946
0.414337
0.249283
0.107017
0.0268259
0.00272779
0.000132068
3.10479e-006
2.13191e-007
9.02994e-008
8.61728e-008
1.03154e-007
1.058e-007
1.0278e-007
1.02795e-007
1.03666e-007
1.0347e-007
1.03361e-007
1.03469e-007
1.03553e-007
1.03575e-007
1.0359e-007
1.03612e-007
1.03633e-007
1.0365e-007
1.0367e-007
1.03687e-007
1.03694e-007
0.966921
0.798825
0.642486
0.490685
0.338813
0.188149
0.0684692
0.0125079
0.000937883
4.63184e-005
1.359e-006
1.45501e-007
6.35585e-008
6.19833e-008
7.3367e-008
7.23041e-008
6.90666e-008
7.03051e-008
7.07986e-008
7.04647e-008
7.03888e-008
7.04615e-008
7.04897e-008
7.05005e-008
7.05101e-008
7.0523e-008
7.05355e-008
7.05472e-008
7.05601e-008
1.12636
0.963956
0.815575
0.674949
0.537052
0.397881
0.254632
0.112963
0.0291066
0.00320002
0.000193153
9.9194e-006
3.65118e-007
7.90246e-008
4.88076e-008
5.45907e-008
6.22304e-008
5.82196e-008
5.74888e-008
5.82727e-008
5.81042e-008
5.78378e-008
5.78832e-008
5.79371e-008
5.79561e-008
5.79654e-008
5.79777e-008
5.79958e-008
5.80029e-008
1.24228
1.08447
0.941896
0.808988
0.681105
0.554453
0.426338
0.296564
0.160824
0.0523528
0.00803208
0.000590881
3.52194e-005
1.86922e-006
1.28304e-007
5.56497e-008
4.2367e-008
5.16551e-008
5.21904e-008
5.11993e-008
5.22237e-008
5.26221e-008
5.23125e-008
5.21998e-008
5.22346e-008
5.22632e-008
5.22715e-008
5.22771e-008
5.22809e-008
1.34052
1.18607
1.04744
0.919597
0.798338
0.680151
0.562214
0.442416
0.318884
0.191365
0.0712754
0.0134184
0.00117515
7.80745e-005
4.932e-006
2.9016e-007
7.19203e-008
4.51439e-008
4.72361e-008
4.89294e-008
4.68746e-008
4.74994e-008
4.86557e-008
4.86223e-008
4.84612e-008
4.84216e-008
4.84264e-008
4.84481e-008
4.84676e-008
1.40212
1.25386
1.12096
0.999454
0.885394
0.775451
0.666849
0.557327
0.4451
0.329009
0.209277
0.0842297
0.0178526
0.00177839
0.000129612
9.057e-006
6.20924e-007
7.90101e-008
4.9044e-008
4.45683e-008
4.83352e-008
4.57973e-008
4.43986e-008
4.52119e-008
4.57506e-008
4.57944e-008
4.57821e-008
4.57838e-008
4.57837e-008
1.44598
1.30043
1.17237
1.05601
0.947961
0.845025
0.744494
0.644099
0.542019
0.436909
0.328042
0.215813
0.0903621
0.0202961
0.00219666
0.000173551
1.31899e-005
9.85622e-007
1.0277e-007
5.35706e-008
4.24024e-008
4.80629e-008
4.77789e-008
4.5309e-008
4.51788e-008
4.54202e-008
4.55142e-008
4.55328e-008
4.55499e-008
1.48434
1.34177
1.21621
1.10322
0.999071
0.900921
0.80618
0.712636
0.618453
0.52219
0.422842
0.319942
0.213925
0.0913704
0.0207523
0.00234501
0.00019837
1.62316e-005
1.31855e-006
1.3543e-007
5.84664e-008
4.36212e-008
4.67578e-008
4.94824e-008
4.79866e-008
4.713e-008
4.71879e-008
4.72474e-008
4.72562e-008
1.51134
1.37216
1.24937
1.14006
1.03963
0.945655
0.855733
0.767765
0.679969
0.59089
0.499413
0.404793
0.306678
0.205107
0.086167
0.0191997
0.00223865
0.000204342
1.81467e-005
1.61451e-006
1.75936e-007
5.80795e-008
4.50449e-008
4.51631e-008
4.90667e-008
4.89416e-008
4.82326e-008
4.80385e-008
4.80458e-008
1.52942
1.39437
1.27473
1.16782
1.07159
0.981459
0.895829
0.812696
0.730343
0.647337
0.562532
0.475069
0.384385
0.290194
0.19255
0.0775953
0.0167446
0.0020217
0.000200583
1.94831e-005
1.91266e-006
2.14523e-007
5.78144e-008
4.45526e-008
4.24237e-008
4.45441e-008
4.60044e-008
4.58115e-008
4.56391e-008
1.54042
1.40898
1.29362
1.18975
1.09575
1.00998
0.928282
0.849477
0.771918
0.694206
0.615194
0.533979
0.449902
0.362536
0.271677
0.177477
0.0680623
0.0140908
0.00176328
0.000189809
2.00833e-005
2.1399e-006
2.49471e-007
6.12611e-008
4.49345e-008
3.74105e-008
3.86401e-008
4.04607e-008
4.09009e-008
1.54575
1.41797
1.30598
1.20643
1.11535
1.032
0.954574
0.879741
0.806503
0.733508
0.659627
0.583945
0.505755
0.42455
0.339996
0.251906
0.160127
0.0578987
0.011528
0.00150568
0.000175452
2.01798e-005
2.33654e-006
2.90446e-007
6.70286e-008
4.46137e-008
3.73423e-008
3.58894e-008
3.62206e-008
1.54632
1.42229
1.31374
1.21744
1.13066
1.04986
0.975247
0.904528
0.835319
0.766669
0.697472
0.626818
0.553985
0.478425
0.399738
0.317646
0.231894
0.141949
0.0481878
0.00933434
0.00128767
0.00016328
2.04704e-005
2.57282e-006
3.42222e-007
7.4284e-008
4.32811e-008
3.92136e-008
3.64635e-008
1.54274
1.42256
1.31752
1.22451
1.14092
1.0645
0.992321
0.9248
0.859357
0.79467
0.729752
0.663696
0.595768
0.525395
0.452145
0.375698
0.295795
0.212107
0.123706
0.0394156
0.00753124
0.00110184
0.000150846
2.03352e-005
2.73527e-006
3.86622e-007
8.16456e-008
4.42462e-008
4.11479e-008
1.53548
1.41924
1.31779
1.22812
1.14775
1.07452
1.0063
0.941226
0.879553
0.818396
0.757298
0.69538
0.631909
0.566294
0.498072
0.426889
0.352471
0.274554
0.192703
0.105532
0.0316119
0.0060219
0.000932239
0.00013688
1.97735e-005
2.8438e-006
4.27389e-007
9.10404e-008
4.76023e-008
1.52493
1.41273
1.31493
1.22863
1.15145
1.08131
1.01643
0.954732
0.895487
0.838323
0.780848
0.722748
0.663333
0.602035
0.538396
0.472055
0.40273
0.330186
0.254171
0.174185
0.0861722
0.0242892
0.00466316
0.000766221
0.000120738
1.87289e-005
2.88649e-006
4.62166e-007
1.00371e-007
1.51148
1.40341
1.30931
1.22642
1.15242
1.08533
1.02345
0.965269
0.908669
0.854243
0.800395
0.745969
0.690407
0.633156
0.573772
0.511901
0.447268
0.37965
0.308848
0.234625
0.156883
0.0667121
0.0179505
0.00353613
0.000618673
0.000104103
1.72116e-005
2.82844e-006
4.7539e-007
1.49552
1.39166
1.30132
1.22185
1.15102
1.08695
1.02799
0.972731
0.919939
0.867749
0.817086
0.765734
0.713527
0.659905
0.604407
0.546661
0.486373
0.423309
0.357278
0.2881
0.215603
0.139959
0.0540513
0.0138881
0.0027937
0.000513811
9.12968e-005
1.59332e-005
2.71389e-006
1.47743
1.37784
1.29131
1.21528
1.14762
1.08652
1.03039
0.977874
0.927806
0.878901
0.830547
0.782654
0.733692
0.68344
0.631478
0.577456
0.52109
0.462147
0.400438
0.335798
0.268069
0.197086
0.120994
0.0435431
0.0108934
0.00224652
0.000431897
8.05961e-005
1.44697e-005
1.45758
1.36231
1.27963
1.20706
1.14256
1.08438
1.03103
0.981198
0.933778
0.887824
0.841888
0.7966
0.750594
0.703474
0.654815
0.604268
0.551551
0.49643
0.438716
0.378247
0.314872
0.2484
0.178227
0.101505
0.0343479
0.00848259
0.0018009
0.000361858
6.93817e-005
1.43631
1.34541
1.26659
1.19749
1.13614
1.08087
1.03025
0.983028
0.93816
0.894729
0.851922
0.808886
0.76575
0.721398
0.675653
0.628193
0.578743
0.527074
0.47299
0.416327
0.356933
0.29464
0.229141
0.159681
0.0822401
0.026363
0.00650443
0.00143212
0.000295025
1.41392
1.3274
1.25248
1.18685
1.12864
1.07624
1.02829
0.983599
0.941171
0.900153
0.859836
0.81916
0.778501
0.736841
0.693914
0.649398
0.603027
0.554577
0.503859
0.450711
0.39499
0.336547
0.275185
0.21052
0.141332
0.0636637
0.0196825
0.00494643
0.00111306
1.39064
1.30855
1.23752
1.17537
1.12028
1.07074
1.02542
0.983202
0.943141
0.904422
0.866349
0.8283
0.789681
0.750527
0.710207
0.668419
0.624903
0.57944
0.531843
0.481951
0.429623
0.374725
0.317105
0.256525
0.192451
0.123477
0.0501321
0.0151606
0.00379836
1.3667
1.28902
1.2219
1.16321
1.11125
1.06453
1.02182
0.982046
0.944313
0.907868
0.872083
0.836456
0.800252
0.763427
0.725367
0.685985
0.645027
0.602269
0.557522
0.510619
0.461416
0.40978
0.355579
0.298647
0.238703
0.175255
0.105644
0.0403044
0.0117166
1.34222
1.26896
1.20574
1.15052
1.10166
1.05775
1.01762
0.980253
0.944791
0.910519
0.876828
0.843186
0.809091
0.774565
0.738944
0.70201
0.663551
0.623375
0.581309
0.537198
0.490901
0.442289
0.391237
0.337616
0.281246
0.221839
0.158409
0.08809
0.0314935
1.31732
1.24846
1.18913
1.13736
1.09159
1.05049
1.01292
0.977933
0.944719
0.912604
0.881019
0.849486
0.817602
0.784965
0.751551
0.716908
0.680819
0.643096
0.603569
0.56209
0.51852
0.472735
0.424614
0.37404
0.320875
0.264915
0.205714
0.142139
0.0704654
1.29204
1.22757
1.17211
1.12378
1.08108
1.04277
1.00776
0.975142
0.944168
0.914203
0.884722
0.855294
0.825576
0.795042
0.763638
0.73111
0.697233
0.661813
0.624678
0.585679
0.544678
0.501548
0.456173
0.408438
0.358223
0.305366
0.249605
0.190722
0.124222
1.2664
1.20628
1.15467
1.10976
1.07013
1.03459
1.00212
0.97188
0.943142
0.915318
0.887913
0.860517
0.832781
0.804391
0.775157
0.744693
0.712951
0.679742
0.644898
0.608266
0.569708
0.529097
0.486316
0.441251
0.393791
0.343798
0.291117
0.235474
0.175897
1.24037
1.18456
1.13677
1.09525
1.05867
1.0259
0.995977
0.968105
0.941608
0.915929
0.890603
0.865239
0.8395
0.813078
0.786013
0.757711
0.72812
0.69709
0.664471
0.630122
0.593909
0.555705
0.515392
0.472857
0.427992
0.380677
0.330799
0.278091
0.222823
1.21387
1.16233
1.11832
1.08017
1.04661
1.0166
0.989228
0.963735
0.939492
0.915976
0.892752
0.869451
0.845757
0.821389
0.796228
0.770113
0.742715
0.71389
0.683499
0.651409
0.617493
0.581628
0.543695
0.503583
0.461184
0.416389
0.369097
0.319158
0.266633
1.18683
1.1395
1.09922
1.0644
1.03385
1.00658
0.981752
0.958647
0.936678
0.915357
0.894277
0.8731
0.851547
0.82941
0.806267
0.782185
0.756912
0.730269
0.702101
0.672265
0.64063
0.60707
0.571468
0.533707
0.493681
0.451283
0.406415
0.359001
0.308885
1.15913
1.11593
1.07933
1.04779
1.02022
0.995679
0.973388
0.95268
0.933007
0.913911
0.895013
0.875996
0.856592
0.836571
0.815665
0.793804
0.77069
0.746253
0.72033
0.692769
0.663432
0.632184
0.598901
0.563464
0.525759
0.485678
0.443124
0.398032
0.350255
1.13064
1.09149
1.0585
1.03019
1.00555
0.983712
0.963948
0.945641
0.928278
0.911436
0.894759
0.877943
0.860726
0.842861
0.824085
0.80474
0.783921
0.761782
0.738176
0.712952
0.685964
0.657072
0.626141
0.593042
0.557652
0.519857
0.479553
0.436666
0.39111
1.10125
1.06605
1.03657
1.01142
0.989658
0.970486
0.953226
0.93731
0.922267
0.907701
0.893281
0.878723
0.86378
0.848227
0.83186
0.814576
0.796249
0.776586
0.755451
0.732699
0.708182
0.681752
0.653264
0.622575
0.58955
0.554063
0.515998
0.475265
0.431807
1.07086
1.03948
1.01342
0.991336
0.972376
0.955808
0.94101
0.927461
0.914727
0.902445
0.890309
0.878056
0.865456
0.852318
0.838504
0.823405
0.807584
0.790493
0.771966
0.751844
0.729962
0.706158
0.680267
0.652129
0.621587
0.588496
0.552722
0.514155
0.47273
1.03939
1.0117
0.988928
0.9698
0.953547
0.939504
0.927104
0.915874
0.905419
0.895408
0.885558
0.875624
0.86539
0.85465
0.843181
0.83061
0.817797
0.80331
0.787498
0.77016
0.751103
0.730133
0.707059
0.681687
0.653831
0.623312
0.589964
0.55365
0.514277
1.00684
0.982676
0.963037
0.946733
0.933069
0.921448
0.911359
0.902376
0.894143
0.88636
0.87877
0.871148
0.863294
0.855023
0.846158
0.836569
0.825834
0.814324
0.801499
0.787194
0.771215
0.753355
0.73339
0.711091
0.686225
0.658566
0.627898
0.594035
0.556843
0.973262
0.952435
0.935763
0.92213
0.910919
0.901598
0.893713
0.886881
0.880785
0.875156
0.869763
0.864405
0.8589
0.853083
0.846798
0.839903
0.831513
0.823337
0.813572
0.802467
0.789802
0.77534
0.758825
0.739979
0.718512
0.694128
0.66654
0.635485
0.600754
0.938812
0.921116
0.907227
0.8961
0.887195
0.880042
0.874236
0.86944
0.865371
0.861789
0.858491
0.855298
0.852051
0.848606
0.844822
0.84056
0.835643
0.829629
0.823082
0.815334
0.806191
0.795404
0.782685
0.767712
0.750127
0.729552
0.705596
0.677886
0.646099
0.903769
0.888984
0.877687
0.868902
0.862157
0.857037
0.853183
0.850294
0.848116
0.846436
0.845077
0.843885
0.842727
0.841484
0.840043
0.838298
0.836153
0.832795
0.829526
0.825079
0.819541
0.812617
0.803987
0.79328
0.780076
0.763902
0.74425
0.720592
0.69244
0.868563
0.856464
0.847575
0.840978
0.836262
0.833051
0.831019
0.829889
0.82943
0.82945
0.829794
0.830339
0.830984
0.831645
0.832244
0.832708
0.832956
0.832885
0.831607
0.83056
0.828667
0.825691
0.821324
0.815179
0.806782
0.79558
0.780945
0.762155
0.738492
0.833792
0.824159
0.817512
0.812977
0.810178
0.80876
0.808406
0.808846
0.809856
0.811262
0.812936
0.814791
0.816772
0.818843
0.82098
0.823158
0.825325
0.827455
0.829254
0.83053
0.83204
0.832869
0.83274
0.831266
0.827941
0.822155
0.813226
0.800138
0.781894
0.800226
0.792852
0.788308
0.785731
0.784748
0.784989
0.786113
0.787827
0.789901
0.792177
0.794564
0.797036
0.799612
0.802325
0.805227
0.80838
0.811703
0.815506
0.819219
0.823266
0.827448
0.831689
0.835541
0.838623
0.840417
0.840248
0.837671
0.831008
0.81912
0.768775
0.763468
0.760906
0.760188
0.760895
0.762583
0.764837
0.767312
0.769762
0.772055
0.774166
0.776182
0.778244
0.780474
0.783034
0.786205
0.789509
0.794131
0.799063
0.805384
0.811812
0.818829
0.826211
0.833521
0.840335
0.846034
0.849796
0.849942
0.84569
0.74041
0.736986
0.736275
0.737276
0.739445
0.742188
0.744961
0.747329
0.749042
0.750039
0.750404
0.750441
0.750484
0.750712
0.751489
0.753289
0.756118
0.760825
0.766741
0.77365
0.781867
0.790421
0.800569
0.811476
0.822826
0.834117
0.844486
0.852544
0.856297
0.716027
0.714286
0.715238
0.717704
0.720911
0.724032
0.72633
0.727269
0.726653
0.724575
0.721243
0.717409
0.713667
0.710711
0.709086
0.708944
0.710279
0.713307
0.718115
0.724517
0.732709
0.742856
0.754216
0.767773
0.782802
0.799047
0.815812
0.831836
0.845946
0.696267
0.695962
0.698283
0.701774
0.705327
0.707802
0.708253
0.706031
0.701166
0.694015
0.685482
0.676729
0.668195
0.660377
0.654111
0.649858
0.647772
0.647916
0.650387
0.655112
0.662146
0.671827
0.683955
0.698489
0.715725
0.735613
0.757868
0.781608
0.80673
0.681346
0.682164
0.685414
0.689285
0.692238
0.692787
0.68985
0.682775
0.672188
0.658995
0.643692
0.627669
0.612068
0.597797
0.585694
0.576249
0.569634
0.565831
0.56482
0.566496
0.570912
0.578277
0.588776
0.60233
0.619419
0.640398
0.665995
0.695377
0.730645
0.670968
0.67253
0.676159
0.679631
0.680937
0.678467
0.670626
0.658026
0.64043
0.618978
0.595396
0.571376
0.548361
0.527346
0.509051
0.493896
0.481988
0.473196
0.467487
0.464783
0.464999
0.468198
0.474552
0.484287
0.498164
0.516088
0.540029
0.568581
0.610688
0.664384
0.666297
0.669737
0.672068
0.671051
0.664477
0.651668
0.632012
0.606909
0.578195
0.547745
0.51724
0.488102
0.461321
0.437547
0.41708
0.400021
0.386123
0.375255
0.367246
0.361968
0.359423
0.359656
0.362843
0.369879
0.380294
0.398394
0.418617
0.460795
0.66061
0.662534
0.665348
0.666171
0.662223
0.651677
0.633307
0.608043
0.577414
0.543461
0.508217
0.473453
0.440489
0.410169
0.382918
0.358929
0.338197
0.320662
0.305923
0.2937
0.283795
0.276197
0.270631
0.26738
0.266417
0.267765
0.275539
0.281008
0.313219
0.658687
0.660406
0.662473
0.661581
0.655065
0.640823
0.618666
0.589541
0.555418
0.518559
0.481056
0.44459
0.410331
0.378972
0.35083
0.325979
0.304326
0.285697
0.269842
0.256311
0.244888
0.235653
0.227916
0.22249
0.217292
0.215448
0.214045
0.21423
0.221012
0.657878
0.659355
0.660741
0.658559
0.650059
0.633651
0.609279
0.57829
0.542846
0.505275
0.467621
0.431449
0.397797
0.367252
0.340059
0.316245
0.295691
0.278208
0.263576
0.251707
0.242215
0.234927
0.229169
0.226436
0.222865
0.225883
0.22327
0.235017
0.217275
0.65773
0.659064
0.660129
0.657301
0.648034
0.63086
0.605959
0.574842
0.539723
0.502902
0.466348
0.431531
0.399411
0.370525
0.345098
0.323151
0.304582
0.28923
0.276911
0.267512
0.260758
0.256844
0.254947
0.256915
0.258496
0.26967
0.271248
0.302322
0.275466
0.658052
0.659441
0.660729
0.658153
0.649288
0.632711
0.608646
0.578609
0.544782
0.509413
0.474423
0.441248
0.410833
0.383718
0.360142
0.340151
0.323672
0.310577
0.300719
0.294015
0.290252
0.289678
0.291577
0.298093
0.305048
0.323268
0.332781
0.374132
0.354099
5.80603e-005
5.80605e-005
5.80603e-005
5.80602e-005
5.80603e-005
5.80607e-005
5.80608e-005
5.80605e-005
5.80602e-005
5.80603e-005
5.80607e-005
5.80609e-005
5.80607e-005
5.80602e-005
5.806e-005
5.80603e-005
5.80609e-005
5.80611e-005
5.80611e-005
5.80611e-005
5.80611e-005
5.80611e-005
5.80612e-005
5.80612e-005
5.80612e-005
5.80612e-005
5.8061e-005
5.80608e-005
5.80607e-005
5.80608e-005
5.80609e-005
5.8061e-005
5.80611e-005
5.80611e-005
5.80611e-005
5.80611e-005
5.80612e-005
5.80612e-005
5.80612e-005
5.80612e-005
5.80611e-005
5.80611e-005
5.80611e-005
5.8061e-005
5.8061e-005
5.80611e-005
5.80611e-005
5.80611e-005
5.80612e-005
5.80612e-005
5.80612e-005
5.80612e-005
5.80612e-005
5.80612e-005
5.80613e-005
5.80613e-005
5.80613e-005
5.80613e-005
5.80613e-005
5.80613e-005
5.80613e-005
5.80613e-005
5.80614e-005
5.80614e-005
5.80614e-005
5.80614e-005
5.80614e-005
5.80614e-005
5.80614e-005
5.80614e-005
5.80614e-005
5.80615e-005
5.80614e-005
5.80615e-005
5.80614e-005
5.80615e-005
5.80615e-005
5.80615e-005
5.80615e-005
5.80614e-005
5.80615e-005
5.80615e-005
5.80616e-005
5.80616e-005
5.80616e-005
5.80616e-005
5.80616e-005
5.80616e-005
5.80616e-005
5.80617e-005
5.80617e-005
5.80617e-005
5.80617e-005
5.80617e-005
5.80617e-005
5.80617e-005
5.80617e-005
5.80618e-005
5.80617e-005
5.80617e-005
5.80617e-005
5.80617e-005
5.80617e-005
5.80617e-005
5.80617e-005
5.80617e-005
5.80617e-005
5.80617e-005
5.80617e-005
5.80617e-005
5.80617e-005
5.80616e-005
5.80616e-005
5.80616e-005
5.80616e-005
5.80616e-005
5.80615e-005
5.80615e-005
5.80615e-005
5.80615e-005
5.80615e-005
5.80615e-005
5.80616e-005
5.80616e-005
5.80616e-005
5.80617e-005
5.80617e-005
5.80618e-005
5.80618e-005
5.80619e-005
5.80619e-005
5.8062e-005
5.80621e-005
5.80623e-005
5.80622e-005
5.80626e-005
5.80624e-005
5.80632e-005
5.93296e-005
4.60746e-006
4.60768e-006
4.60742e-006
4.60718e-006
4.60761e-006
4.60829e-006
4.60827e-006
4.60761e-006
4.60721e-006
4.60753e-006
4.60833e-006
4.60861e-006
4.60798e-006
4.60717e-006
4.60701e-006
4.60777e-006
4.60879e-006
4.6092e-006
4.60927e-006
4.6093e-006
4.60942e-006
4.60949e-006
4.60954e-006
4.60962e-006
4.60965e-006
4.60954e-006
4.60915e-006
4.60874e-006
4.60859e-006
4.60871e-006
4.60901e-006
4.6092e-006
4.60932e-006
4.6094e-006
4.60946e-006
4.6095e-006
4.60952e-006
4.60956e-006
4.60958e-006
4.60957e-006
4.60953e-006
4.60947e-006
4.60941e-006
4.60938e-006
4.60941e-006
4.60948e-006
4.60954e-006
4.60963e-006
4.60967e-006
4.60973e-006
4.60977e-006
4.60982e-006
4.60985e-006
4.60988e-006
4.60992e-006
4.60996e-006
4.60996e-006
4.61001e-006
4.61002e-006
4.61006e-006
4.61008e-006
4.61012e-006
4.61017e-006
4.61018e-006
4.61023e-006
4.61025e-006
4.61029e-006
4.61029e-006
4.61037e-006
4.61035e-006
4.61039e-006
4.61047e-006
4.61035e-006
4.61056e-006
4.61044e-006
4.61054e-006
4.61053e-006
4.61053e-006
4.61062e-006
4.61053e-006
4.61067e-006
4.61058e-006
4.61077e-006
4.61084e-006
4.61088e-006
4.6109e-006
4.61087e-006
4.61096e-006
4.61093e-006
4.61102e-006
4.61105e-006
4.61108e-006
4.61111e-006
4.61113e-006
4.61114e-006
4.61116e-006
4.61114e-006
4.61117e-006
4.61116e-006
4.61116e-006
4.61116e-006
4.61116e-006
4.61115e-006
4.61113e-006
4.61113e-006
4.6111e-006
4.6111e-006
4.61106e-006
4.61105e-006
4.61101e-006
4.61099e-006
4.61093e-006
4.6109e-006
4.61084e-006
4.6108e-006
4.61073e-006
4.61067e-006
4.61061e-006
4.6106e-006
4.61061e-006
4.61062e-006
4.61064e-006
4.61069e-006
4.61076e-006
4.61083e-006
4.61088e-006
4.61095e-006
4.61105e-006
4.6111e-006
4.61125e-006
4.61138e-006
4.6116e-006
4.61161e-006
4.61238e-006
4.61193e-006
4.61277e-006
4.61582e-006
4.61676e-006
4.6952e-006
7.23874e-007
7.23898e-007
7.23867e-007
7.23961e-007
7.2412e-007
7.24114e-007
7.23988e-007
7.23916e-007
7.24041e-007
7.24242e-007
7.24288e-007
7.24149e-007
7.23978e-007
7.24031e-007
7.2422e-007
7.24468e-007
7.24567e-007
7.24625e-007
7.24689e-007
7.24755e-007
7.24803e-007
7.24826e-007
7.2486e-007
7.24872e-007
7.24848e-007
7.24788e-007
7.24738e-007
7.24765e-007
7.24786e-007
7.24814e-007
7.24842e-007
7.24868e-007
7.24897e-007
7.24934e-007
7.24973e-007
7.25004e-007
7.25035e-007
7.25063e-007
7.25089e-007
7.25115e-007
7.2514e-007
7.25169e-007
7.25201e-007
7.25235e-007
7.25267e-007
7.25296e-007
7.25325e-007
7.25352e-007
7.25379e-007
7.25407e-007
7.25434e-007
7.25461e-007
7.25486e-007
7.25512e-007
7.25537e-007
7.25559e-007
7.25582e-007
7.25604e-007
7.25626e-007
7.25647e-007
7.2567e-007
7.25694e-007
7.25716e-007
7.25741e-007
7.25764e-007
7.25789e-007
7.2581e-007
7.25838e-007
7.25856e-007
7.25883e-007
7.25907e-007
7.25924e-007
7.25956e-007
7.25979e-007
7.25997e-007
7.26018e-007
7.26043e-007
7.26067e-007
7.26084e-007
7.26115e-007
7.26126e-007
7.26153e-007
7.26168e-007
7.26176e-007
7.26194e-007
7.26213e-007
7.26238e-007
7.26249e-007
7.26264e-007
7.2627e-007
7.26277e-007
7.26285e-007
7.26293e-007
7.26301e-007
7.2631e-007
7.26316e-007
7.26324e-007
7.26328e-007
7.26334e-007
7.26338e-007
7.2634e-007
7.26341e-007
7.2634e-007
7.26338e-007
7.26333e-007
7.26328e-007
7.26319e-007
7.26309e-007
7.26296e-007
7.26283e-007
7.26266e-007
7.26246e-007
7.2622e-007
7.26194e-007
7.26168e-007
7.26141e-007
7.2611e-007
7.26081e-007
7.26061e-007
7.26045e-007
7.26027e-007
7.26013e-007
7.25993e-007
7.25989e-007
7.25963e-007
7.25945e-007
7.25924e-007
7.25881e-007
7.25885e-007
7.25912e-007
7.25833e-007
7.25974e-007
7.25917e-007
7.25869e-007
7.26083e-007
7.29385e-007
6.51825e-007
6.50861e-007
1.31421e-005
2.12924e-007
2.12951e-007
2.12979e-007
2.13006e-007
2.13023e-007
2.13031e-007
2.13059e-007
2.13099e-007
2.13126e-007
2.1313e-007
2.13124e-007
2.13144e-007
2.13173e-007
2.13212e-007
2.13231e-007
2.13265e-007
2.13294e-007
2.13323e-007
2.13338e-007
2.13348e-007
2.13365e-007
2.13393e-007
2.13409e-007
2.13415e-007
2.13422e-007
2.13431e-007
2.13439e-007
2.13447e-007
2.13465e-007
2.13488e-007
2.13526e-007
2.13553e-007
2.13575e-007
2.13596e-007
2.13619e-007
2.13642e-007
2.13665e-007
2.13687e-007
2.1371e-007
2.13732e-007
2.13755e-007
2.13776e-007
2.13795e-007
2.13815e-007
2.13836e-007
2.13858e-007
2.1388e-007
2.13902e-007
2.13924e-007
2.13946e-007
2.13967e-007
2.13988e-007
2.14009e-007
2.14029e-007
2.1405e-007
2.14071e-007
2.1409e-007
2.14111e-007
2.1413e-007
2.14151e-007
2.1417e-007
2.1419e-007
2.1421e-007
2.14228e-007
2.14248e-007
2.14265e-007
2.14285e-007
2.14301e-007
2.14321e-007
2.14336e-007
2.14353e-007
2.14373e-007
2.14387e-007
2.14407e-007
2.14418e-007
2.14434e-007
2.14446e-007
2.14459e-007
2.14476e-007
2.14486e-007
2.14504e-007
2.14513e-007
2.14529e-007
2.14545e-007
2.14558e-007
2.14568e-007
2.14576e-007
2.14591e-007
2.14599e-007
2.14611e-007
2.1462e-007
2.14627e-007
2.14634e-007
2.1464e-007
2.14645e-007
2.1465e-007
2.14652e-007
2.14657e-007
2.14658e-007
2.1466e-007
2.14661e-007
2.14661e-007
2.1466e-007
2.14658e-007
2.14656e-007
2.14651e-007
2.14647e-007
2.1464e-007
2.14633e-007
2.14624e-007
2.14615e-007
2.14603e-007
2.14589e-007
2.14573e-007
2.14557e-007
2.14539e-007
2.14519e-007
2.14496e-007
2.14477e-007
2.14457e-007
2.14437e-007
2.14415e-007
2.14393e-007
2.14368e-007
2.14343e-007
2.14311e-007
2.14288e-007
2.14251e-007
2.14273e-007
2.14145e-007
2.14517e-007
2.13795e-007
2.13921e-007
2.19117e-007
2.13567e-007
1.81392e-007
1.36356e-006
0.000238546
0.012154
1.03715e-007
1.03737e-007
1.03746e-007
1.03762e-007
1.03794e-007
1.03818e-007
1.03823e-007
1.03822e-007
1.0383e-007
1.03864e-007
1.03893e-007
1.03905e-007
1.03901e-007
1.03904e-007
1.03933e-007
1.03965e-007
1.03997e-007
1.0402e-007
1.04044e-007
1.04073e-007
1.04085e-007
1.04089e-007
1.04094e-007
1.04107e-007
1.04124e-007
1.04145e-007
1.04169e-007
1.04187e-007
1.04202e-007
1.04215e-007
1.04228e-007
1.04243e-007
1.04262e-007
1.04282e-007
1.04301e-007
1.04319e-007
1.04338e-007
1.04357e-007
1.04375e-007
1.04394e-007
1.04411e-007
1.04428e-007
1.04446e-007
1.04464e-007
1.04483e-007
1.04502e-007
1.04521e-007
1.0454e-007
1.04558e-007
1.04577e-007
1.04595e-007
1.04613e-007
1.04631e-007
1.04649e-007
1.04666e-007
1.04684e-007
1.047e-007
1.04717e-007
1.04734e-007
1.0475e-007
1.04766e-007
1.04782e-007
1.04798e-007
1.04813e-007
1.04828e-007
1.04843e-007
1.04857e-007
1.04872e-007
1.04885e-007
1.04899e-007
1.04913e-007
1.04926e-007
1.04942e-007
1.04955e-007
1.04967e-007
1.04977e-007
1.04991e-007
1.05004e-007
1.05016e-007
1.0503e-007
1.05041e-007
1.05053e-007
1.05064e-007
1.05071e-007
1.05081e-007
1.05092e-007
1.05104e-007
1.05112e-007
1.05122e-007
1.05128e-007
1.05135e-007
1.05141e-007
1.05147e-007
1.05153e-007
1.05158e-007
1.05163e-007
1.05167e-007
1.0517e-007
1.05173e-007
1.05174e-007
1.05175e-007
1.05176e-007
1.05175e-007
1.05174e-007
1.05172e-007
1.05169e-007
1.05165e-007
1.0516e-007
1.05155e-007
1.05148e-007
1.0514e-007
1.05132e-007
1.05123e-007
1.05112e-007
1.051e-007
1.05086e-007
1.05071e-007
1.05055e-007
1.05039e-007
1.05023e-007
1.05006e-007
1.04987e-007
1.04967e-007
1.04944e-007
1.04921e-007
1.04893e-007
1.04868e-007
1.04866e-007
1.04409e-007
1.05364e-007
1.02878e-007
1.06454e-007
1.07059e-007
7.81839e-008
1.07273e-007
2.39207e-006
0.000320977
0.013197
0.10372
7.05767e-008
7.0591e-008
7.06095e-008
7.06312e-008
7.06443e-008
7.06471e-008
7.0655e-008
7.06792e-008
7.07087e-008
7.07289e-008
7.073e-008
7.07326e-008
7.07503e-008
7.07721e-008
7.07991e-008
7.08216e-008
7.08455e-008
7.0862e-008
7.08674e-008
7.08688e-008
7.08781e-008
7.08978e-008
7.09238e-008
7.09404e-008
7.09585e-008
7.0972e-008
7.09814e-008
7.09937e-008
7.10124e-008
7.1031e-008
7.1058e-008
7.10806e-008
7.10948e-008
7.11113e-008
7.11281e-008
7.11449e-008
7.11616e-008
7.11785e-008
7.11953e-008
7.12122e-008
7.12294e-008
7.12473e-008
7.12659e-008
7.12841e-008
7.13015e-008
7.13181e-008
7.13345e-008
7.13505e-008
7.1367e-008
7.13833e-008
7.13999e-008
7.14162e-008
7.14326e-008
7.1449e-008
7.14651e-008
7.14808e-008
7.1497e-008
7.15123e-008
7.1528e-008
7.1543e-008
7.1558e-008
7.15729e-008
7.1587e-008
7.16018e-008
7.16156e-008
7.16299e-008
7.16434e-008
7.16574e-008
7.16705e-008
7.16841e-008
7.16975e-008
7.17097e-008
7.17239e-008
7.1736e-008
7.17475e-008
7.17593e-008
7.17688e-008
7.17803e-008
7.17894e-008
7.18015e-008
7.18118e-008
7.18213e-008
7.18295e-008
7.18392e-008
7.18486e-008
7.18552e-008
7.18636e-008
7.18713e-008
7.18788e-008
7.18878e-008
7.18965e-008
7.19039e-008
7.19098e-008
7.19154e-008
7.19207e-008
7.19248e-008
7.19295e-008
7.19323e-008
7.19355e-008
7.19376e-008
7.19391e-008
7.19399e-008
7.19401e-008
7.19397e-008
7.19385e-008
7.19369e-008
7.1934e-008
7.19311e-008
7.19267e-008
7.1922e-008
7.19157e-008
7.19095e-008
7.19022e-008
7.18942e-008
7.18845e-008
7.18739e-008
7.18625e-008
7.18507e-008
7.18382e-008
7.1825e-008
7.18101e-008
7.17942e-008
7.17739e-008
7.17556e-008
7.17316e-008
7.17166e-008
7.16728e-008
7.15499e-008
7.29663e-008
6.97301e-008
7.8214e-008
6.76364e-008
6.46845e-008
2.75473e-007
1.49385e-005
0.000835409
0.0203349
0.129917
0.35737
5.80112e-008
5.80304e-008
5.80457e-008
5.8054e-008
5.80637e-008
5.8081e-008
5.81035e-008
5.81208e-008
5.81282e-008
5.81324e-008
5.81454e-008
5.81636e-008
5.81843e-008
5.82021e-008
5.82185e-008
5.8233e-008
5.82406e-008
5.82483e-008
5.82613e-008
5.82828e-008
5.83011e-008
5.83158e-008
5.83268e-008
5.83435e-008
5.83618e-008
5.83767e-008
5.83994e-008
5.84233e-008
5.84395e-008
5.84522e-008
5.84658e-008
5.8475e-008
5.84937e-008
5.85137e-008
5.85316e-008
5.85486e-008
5.85653e-008
5.85817e-008
5.8598e-008
5.86142e-008
5.86308e-008
5.86474e-008
5.86633e-008
5.86787e-008
5.86943e-008
5.87101e-008
5.87259e-008
5.87417e-008
5.87572e-008
5.87725e-008
5.87877e-008
5.88027e-008
5.88176e-008
5.88324e-008
5.8847e-008
5.88616e-008
5.88759e-008
5.88903e-008
5.89043e-008
5.89183e-008
5.8932e-008
5.89454e-008
5.89591e-008
5.89719e-008
5.89852e-008
5.89976e-008
5.90108e-008
5.90222e-008
5.90352e-008
5.90467e-008
5.90573e-008
5.90712e-008
5.90802e-008
5.90926e-008
5.91019e-008
5.91131e-008
5.91231e-008
5.9132e-008
5.91443e-008
5.91526e-008
5.91604e-008
5.9169e-008
5.91776e-008
5.91838e-008
5.91928e-008
5.92013e-008
5.92081e-008
5.92141e-008
5.92203e-008
5.92268e-008
5.92321e-008
5.92389e-008
5.92467e-008
5.92532e-008
5.92589e-008
5.92644e-008
5.92684e-008
5.92731e-008
5.92765e-008
5.92797e-008
5.92823e-008
5.92842e-008
5.92855e-008
5.92861e-008
5.92864e-008
5.92856e-008
5.92845e-008
5.92822e-008
5.92796e-008
5.92759e-008
5.9271e-008
5.92652e-008
5.92592e-008
5.92521e-008
5.9244e-008
5.92345e-008
5.9225e-008
5.92153e-008
5.92048e-008
5.91936e-008
5.91807e-008
5.91672e-008
5.91492e-008
5.91353e-008
5.9112e-008
5.90773e-008
5.91487e-008
5.92205e-008
5.64245e-008
6.39693e-008
4.61874e-008
6.57979e-008
5.53697e-007
3.46156e-005
0.00166849