/*--------------------------------*- C++ -*----------------------------------*\
| =========                 |                                                 |
| \\      /  F ield         | OpenFOAM: The Open Source CFD Toolbox           |
|  \\    /   O peration     | Version:  5.x                                   |
|   \\  /    A nd           | Web:      www.OpenFOAM.org                      |
|    \\/     M anipulation  |                                                 |
\*---------------------------------------------------------------------------*/
/*   Windows 32 and 64 bit porting by blueCAPE: http://www.bluecape.com.pt   *\
|  Based on Windows porting (2.0.x v4) by Symscape: http://www.symscape.com   |
\*---------------------------------------------------------------------------*/
FoamFile
{
    version     2.0;
    format      ascii;
    class       volScalarField;
    location    "270";
    object      p;
}
// * * * * * * * * * * * * * * * * * * * * * * * * * * * * * * * * * * * * * //

dimensions      [0 2 -2 0 0 0 0];

internalField   nonuniform List<scalar> 
43900
(
0.346619
0.346269
0.346229
0.346102
0.3459
0.345673
0.345473
0.345137
0.344895
0.34457
0.344247
0.343918
0.34357
0.34321
0.342841
0.342461
0.342072
0.341674
0.341267
0.340853
0.340432
0.340004
0.339569
0.339129
0.338683
0.338232
0.337775
0.337315
0.336849
0.344595
0.352673
0.346536
0.349824
0.347312
0.348065
0.347149
0.346975
0.346524
0.346093
0.345691
0.345255
0.344822
0.344395
0.343964
0.343529
0.343091
0.342651
0.342207
0.341758
0.341307
0.340851
0.340392
0.339929
0.339461
0.33899
0.338515
0.338035
0.337553
0.337801
0.35957
0.348481
0.354734
0.349642
0.352226
0.349838
0.350177
0.349089
0.348677
0.34809
0.347528
0.346994
0.346463
0.345937
0.345418
0.344906
0.344396
0.34389
0.343387
0.342887
0.342387
0.341888
0.341388
0.340887
0.340387
0.339882
0.339378
0.338872
0.332957
0.360636
0.353899
0.353711
0.353358
0.35293
0.35184
0.351802
0.351006
0.350635
0.350068
0.349553
0.349031
0.348509
0.347985
0.34746
0.346934
0.346405
0.345877
0.345349
0.344817
0.344285
0.343751
0.343217
0.342682
0.342142
0.341603
0.341062
0.340514
0.335449
0.359314
0.354299
0.353689
0.353668
0.353238
0.353043
0.35281
0.352283
0.351976
0.351543
0.35112
0.350697
0.350254
0.3498
0.349336
0.348858
0.348373
0.347878
0.347373
0.346863
0.346344
0.345819
0.345287
0.344744
0.3442
0.343649
0.343088
0.342529
0.340474
0.358564
0.355523
0.355219
0.355149
0.354745
0.354477
0.354229
0.354011
0.353743
0.353378
0.353037
0.352669
0.352285
0.351885
0.351468
0.35104
0.350598
0.350141
0.349675
0.34919
0.348696
0.348194
0.347673
0.347149
0.346613
0.346062
0.345508
0.344941
0.346675
0.360566
0.358757
0.358229
0.358185
0.358045
0.357718
0.357269
0.356951
0.356722
0.356391
0.356032
0.355663
0.355274
0.354872
0.354454
0.354021
0.353577
0.353117
0.352635
0.352146
0.351644
0.351117
0.350585
0.350038
0.349473
0.348903
0.348313
0.347704
0.353342
0.364638
0.363472
0.362862
0.362688
0.362551
0.362338
0.361988
0.361527
0.361084
0.360745
0.360375
0.359958
0.359527
0.359085
0.358628
0.358157
0.357669
0.357161
0.356651
0.356117
0.355558
0.355001
0.354424
0.353821
0.353212
0.352582
0.351937
0.351292
0.361189
0.37023
0.369523
0.368891
0.368614
0.368405
0.368156
0.367848
0.367455
0.366937
0.366419
0.366002
0.365562
0.365082
0.364581
0.364065
0.363537
0.362986
0.362421
0.36183
0.361218
0.360613
0.359965
0.359294
0.358655
0.35799
0.357287
0.356575
0.355829
0.370502
0.377266
0.376872
0.376237
0.375877
0.375599
0.375292
0.374942
0.374548
0.374085
0.373514
0.372905
0.372379
0.37185
0.371295
0.370714
0.370112
0.369488
0.368836
0.368177
0.367502
0.366773
0.366041
0.365308
0.364503
0.363688
0.362885
0.362068
0.361247
0.379845
0.385751
0.38546
0.384796
0.384371
0.384028
0.38366
0.383247
0.382791
0.382288
0.381721
0.381059
0.380334
0.37968
0.379036
0.378377
0.377695
0.376986
0.37626
0.3755
0.37471
0.373918
0.373106
0.37224
0.371362
0.370494
0.369574
0.368607
0.367649
0.389948
0.395313
0.39507
0.394374
0.393892
0.393491
0.393063
0.392586
0.392061
0.391484
0.390853
0.390153
0.389368
0.388518
0.387716
0.386933
0.386133
0.385309
0.384458
0.383584
0.382681
0.38174
0.380785
0.379817
0.378801
0.377753
0.376685
0.375603
0.374508
0.401241
0.40589
0.405677
0.40496
0.404424
0.403965
0.403477
0.402937
0.402343
0.40169
0.400976
0.400195
0.399336
0.398384
0.397368
0.396389
0.39543
0.394445
0.393431
0.392387
0.391313
0.390216
0.389093
0.387924
0.386714
0.385525
0.384314
0.383021
0.381703
0.413331
0.417458
0.417247
0.416501
0.415911
0.415391
0.41484
0.414232
0.413565
0.412833
0.41203
0.411152
0.410195
0.409149
0.408002
0.406791
0.405611
0.404454
0.403263
0.402035
0.400803
0.399516
0.398184
0.396841
0.395462
0.39403
0.392554
0.391093
0.38967
0.426201
0.429955
0.429729
0.428949
0.428306
0.427727
0.427115
0.426441
0.425703
0.424893
0.424006
0.423037
0.42198
0.420833
0.419587
0.418237
0.416833
0.415447
0.414076
0.41268
0.411254
0.409795
0.408295
0.406756
0.40518
0.403598
0.401964
0.400253
0.398522
0.439772
0.443261
0.443012
0.442193
0.441497
0.440859
0.440183
0.439442
0.438629
0.437739
0.436764
0.435697
0.434535
0.433273
0.431908
0.430432
0.428852
0.427222
0.425594
0.423985
0.422331
0.420629
0.418924
0.417159
0.415312
0.413439
0.41154
0.409622
0.40769
0.453935
0.45724
0.456959
0.456096
0.455342
0.454639
0.453894
0.453076
0.45218
0.451196
0.450117
0.448936
0.447648
0.446247
0.444731
0.443095
0.441332
0.439459
0.43753
0.435601
0.433674
0.431707
0.429709
0.427646
0.425536
0.423435
0.421267
0.419013
0.416731
0.468627
0.471805
0.471489
0.470577
0.469764
0.468998
0.468181
0.467284
0.4663
0.46522
0.464035
0.462736
0.461317
0.459773
0.458101
0.456298
0.454357
0.452277
0.450081
0.447824
0.44558
0.443331
0.441031
0.438709
0.436328
0.433879
0.431385
0.428907
0.426379
0.483744
0.486838
0.486487
0.485523
0.484652
0.483821
0.482933
0.481958
0.480885
0.479708
0.478414
0.476996
0.475446
0.473759
0.47193
0.469957
0.467837
0.465564
0.463137
0.460588
0.457982
0.455361
0.452727
0.450029
0.447285
0.44451
0.441627
0.438673
0.435735
0.49916
0.50221
0.501823
0.500807
0.499877
0.498981
0.49802
0.496962
0.495798
0.494517
0.49311
0.491566
0.489878
0.488038
0.486042
0.483886
0.481569
0.479088
0.476435
0.473609
0.470657
0.467653
0.464615
0.461581
0.458458
0.455278
0.452112
0.448894
0.445595
0.51476
0.517803
0.517383
0.516313
0.515325
0.514365
0.513333
0.512194
0.510937
0.509553
0.508032
0.506361
0.504532
0.502538
0.500372
0.498033
0.495517
0.492824
0.489952
0.486896
0.483654
0.480289
0.476916
0.473443
0.469949
0.46646
0.462819
0.459142
0.455431
0.53042
0.533492
0.533041
0.531919
0.530874
0.529851
0.528748
0.527528
0.526179
0.524691
0.523052
0.521251
0.519277
0.517124
0.514785
0.512256
0.509534
0.506618
0.503508
0.500203
0.4967
0.493009
0.489186
0.485303
0.481335
0.4773
0.473271
0.469143
0.464921
0.546017
0.549157
0.548679
0.547505
0.546405
0.545321
0.544146
0.542844
0.541401
0.539806
0.538045
0.536109
0.533985
0.531664
0.529141
0.52641
0.523467
0.52031
0.51694
0.513356
0.509557
0.505538
0.501307
0.496963
0.492543
0.488144
0.483605
0.479009
0.474424
0.561445
0.564686
0.564186
0.562962
0.561809
0.560666
0.559422
0.558039
0.556504
0.554801
0.552919
0.550846
0.54857
0.546081
0.543371
0.540436
0.53727
0.533871
0.530238
0.526373
0.522276
0.517946
0.513375
0.508598
0.503722
0.498714
0.493662
0.488558
0.483323
0.576595
0.579973
0.579453
0.578181
0.576978
0.575778
0.574467
0.573004
0.571375
0.569566
0.567563
0.565351
0.562919
0.560257
0.557355
0.554208
0.550811
0.54716
0.543255
0.539095
0.534682
0.530017
0.525096
0.519916
0.514548
0.509015
0.503312
0.49759
0.491856
0.591378
0.594922
0.594389
0.59307
0.591819
0.590566
0.589189
0.587648
0.585926
0.58401
0.581882
0.579528
0.576937
0.574096
0.570997
0.567632
0.563996
0.560085
0.555898
0.551433
0.546692
0.541679
0.536393
0.530832
0.525025
0.519004
0.512821
0.506564
0.50017
0.60571
0.609447
0.608902
0.607539
0.606244
0.604939
0.603498
0.601879
0.600064
0.598039
0.595786
0.593289
0.590535
0.587512
0.584211
0.580622
0.576739
0.572558
0.568077
0.563295
0.558213
0.552837
0.547169
0.541208
0.534966
0.528451
0.521755
0.514857
0.507816
0.61952
0.623472
0.622918
0.621513
0.620177
0.618823
0.61732
0.615622
0.613714
0.611579
0.609199
0.606556
0.603635
0.600423
0.59691
0.593086
0.588944
0.584479
0.579689
0.574572
0.56913
0.563365
0.557285
0.550892
0.544192
0.537175
0.529912
0.522423
0.514709
0.632752
0.636934
0.636374
0.63493
0.633556
0.632156
0.630591
0.628817
0.626816
0.62457
0.62206
0.619264
0.61617
0.612762
0.609028
0.604959
0.600545
0.595781
0.590664
0.585192
0.579365
0.573189
0.566667
0.55981
0.552624
0.545108
0.537268
0.529177
0.52082
0.645357
0.649783
0.649217
0.647737
0.646327
0.644882
0.643258
0.641408
0.639313
0.636954
0.63431
0.631361
0.628089
0.624479
0.620516
0.616189
0.611489
0.60641
0.600946
0.595096
0.588862
0.582247
0.575258
0.567905
0.5602
0.552154
0.543772
0.535078
0.526108
0.657302
0.661977
0.661405
0.659892
0.65845
0.656964
0.655282
0.653355
0.651166
0.648694
0.645914
0.642806
0.639351
0.635529
0.631327
0.626731
0.62173
0.616316
0.610484
0.604232
0.597561
0.590475
0.582983
0.575094
0.566825
0.558192
0.549212
0.539889
0.530284
0.668563
0.673487
0.672909
0.671366
0.669897
0.668371
0.666633
0.664632
0.66235
0.659763
0.656846
0.653576
0.64993
0.64589
0.641438
0.636559
0.63124
0.625471
0.619247
0.612564
0.605423
0.597828
0.589789
0.581318
0.572432
0.563152
0.553503
0.5435
0.533174
0.679127
0.684293
0.683708
0.682139
0.680646
0.679085
0.677292
0.67522
0.672845
0.670144
0.667089
0.663654
0.659815
0.655549
0.650837
0.645662
0.640008
0.633864
0.627221
0.620076
0.612429
0.604284
0.59565
0.586544
0.576983
0.566995
0.556609
0.545853
0.534748
0.688988
0.694385
0.693791
0.692201
0.69069
0.689096
0.687252
0.685109
0.682644
0.679829
0.676636
0.673035
0.668998
0.664502
0.659523
0.65404
0.648035
0.641494
0.634406
0.626767
0.618574
0.609832
0.600553
0.590751
0.580451
0.569683
0.558481
0.546887
0.534936
0.698152
0.703761
0.703155
0.701549
0.700025
0.698402
0.69651
0.6943
0.691747
0.688821
0.68549
0.681722
0.677487
0.672756
0.667502
0.6617
0.655329
0.648371
0.640813
0.632645
0.623866
0.614479
0.604496
0.593935
0.582822
0.571194
0.559093
0.54657
0.533681
0.70663
0.712428
0.711806
0.710192
0.708659
0.707011
0.705075
0.702802
0.700165
0.697131
0.693666
0.689733
0.685298
0.680328
0.674792
0.668662
0.661912
0.654517
0.646462
0.637733
0.628326
0.618242
0.607493
0.5961
0.584094
0.571515
0.558417
0.54486
0.530917
0.714439
0.720399
0.719759
0.718141
0.716606
0.714938
0.712963
0.710631
0.707914
0.704777
0.701181
0.697086
0.692453
0.687244
0.681424
0.674958
0.667815
0.659966
0.651387
0.642063
0.631984
0.621149
0.609568
0.597265
0.584273
0.570642
0.556434
0.541723
0.526597
0.721604
0.727694
0.727032
0.725419
0.723888
0.722204
0.720194
0.717809
0.715019
0.711783
0.708061
0.703807
0.698979
0.693533
0.687429
0.680622
0.673076
0.664756
0.655632
0.645679
0.634883
0.62324
0.610756
0.597456
0.583379
0.568582
0.553138
0.53714
0.520695
0.728151
0.73434
0.733653
0.732052
0.730532
0.728838
0.726798
0.724366
0.721507
0.71818
0.714337
0.709931
0.704912
0.699234
0.692844
0.685694
0.677739
0.668937
0.659245
0.648633
0.637076
0.624564
0.611103
0.596713
0.581439
0.565346
0.548525
0.531088
0.513171
0.734113
0.740369
0.739653
0.738072
0.73657
0.734871
0.732808
0.730335
0.727416
0.724003
0.720047
0.715495
0.710294
0.704387
0.697715
0.690225
0.681859
0.672563
0.662286
0.650983
0.638622
0.625183
0.610663
0.595081
0.578485
0.560951
0.542588
0.523535
0.503962
0.739519
0.745815
0.745067
0.743516
0.742039
0.740341
0.738262
0.735755
0.732782
0.729292
0.725231
0.720542
0.715165
0.709037
0.702095
0.694271
0.685494
0.675697
0.664821
0.652805
0.639599
0.62517
0.609506
0.592621
0.574563
0.555419
0.535321
0.514442
0.492998
0.744402
0.750717
0.749935
0.748423
0.746977
0.745287
0.743197
0.740664
0.737645
0.734087
0.72993
0.725114
0.719572
0.713236
0.706032
0.69788
0.688702
0.678412
0.666931
0.65418
0.640092
0.624616
0.607721
0.589411
0.569733
0.548785
0.526723
0.503768
0.480194
0.748789
0.755114
0.754295
0.752831
0.751424
0.749747
0.747654
0.745102
0.742045
0.738427
0.734185
0.729252
0.723559
0.717029
0.709578
0.701117
0.691552
0.68078
0.668696
0.655203
0.640207
0.623631
0.605419
0.585559
0.564086
0.541108
0.516812
0.491475
0.465455
0.752706
0.759048
0.758187
0.756778
0.755416
0.753758
0.751668
0.749105
0.746019
0.742349
0.738032
0.732997
0.727168
0.720463
0.712788
0.704041
0.69411
0.682878
0.670212
0.655982
0.640066
0.622351
0.602746
0.581207
0.557753
0.532491
0.505641
0.477549
0.448689
0.756172
0.762556
0.761648
0.760301
0.758988
0.757354
0.755273
0.752705
0.749596
0.745885
0.741505
0.736382
0.730438
0.723581
0.71571
0.706711
0.696452
0.684794
0.67158
0.656642
0.639816
0.620943
0.599885
0.576551
0.550925
0.523099
0.493324
0.462026
0.42983
0.759205
0.765676
0.764708
0.763428
0.762169
0.760562
0.758495
0.755928
0.752806
0.749064
0.744634
0.739443
0.733408
0.726432
0.718404
0.709197
0.698661
0.68663
0.67292
0.657326
0.639629
0.61961
0.597068
0.571847
0.543869
0.513186
0.480066
0.445015
0.408869
0.761823
0.76844
0.767393
0.766184
0.76498
0.763403
0.761357
0.758798
0.755672
0.751913
0.747454
0.742222
0.736131
0.729079
0.720947
0.711593
0.70085
0.688524
0.674395
0.658217
0.639719
0.618603
0.59459
0.567427
0.536945
0.503116
0.466194
0.426739
0.385876
0.764045
0.770871
0.769722
0.768588
0.76744
0.765898
0.763878
0.761339
0.758224
0.754472
0.750016
0.744783
0.738686
0.731618
0.723452
0.714029
0.703166
0.690638
0.676195
0.659539
0.640342
0.61823
0.592813
0.563714
0.530631
0.493384
0.452176
0.407546
0.361043
0.765897
0.772988
0.771708
0.770658
0.769567
0.768064
0.766083
0.763583
0.760507
0.756798
0.752392
0.747217
0.74118
0.734169
0.726049
0.716648
0.705766
0.693155
0.678526
0.661539
0.641793
0.618837
0.592163
0.561216
0.525522
0.48464
0.438674
0.387952
0.334673
0.76741
0.774801
0.773365
0.77241
0.771379
0.769928
0.768006
0.765574
0.762578
0.758964
0.754668
0.749617
0.743717
0.73685
0.72887
0.7196
0.70882
0.696266
0.681613
0.664475
0.64439
0.620804
0.593099
0.560497
0.522317
0.477691
0.426584
0.368704
0.307246
0.768622
0.77632
0.77471
0.773869
0.772904
0.771523
0.769688
0.767363
0.764495
0.761033
0.756915
0.752067
0.746392
0.739767
0.732039
0.723021
0.712481
0.700137
0.68564
0.668561
0.648386
0.624456
0.596038
0.562103
0.521747
0.473455
0.417029
0.350842
0.279568
0.769576
0.777562
0.77577
0.775065
0.774176
0.772887
0.771171
0.768991
0.766301
0.763052
0.759183
0.754617
0.749253
0.742962
0.735587
0.726933
0.716758
0.70477
0.690603
0.6738
0.653806
0.629873
0.601163
0.56636
0.524368
0.472777
0.411244
0.335697
0.252846
0.770319
0.778557
0.776586
0.776041
0.775235
0.774059
0.772489
0.770488
0.768016
0.765022
0.761445
0.757204
0.752192
0.746278
0.739302
0.731069
0.721334
0.709803
0.696103
0.679757
0.660189
0.636576
0.608021
0.572901
0.529995
0.475785
0.409787
0.324317
0.228003
0.770897
0.779347
0.777208
0.776839
0.77612
0.775071
0.77366
0.771852
0.769603
0.766862
0.76356
0.759616
0.754922
0.749349
0.74274
0.7349
0.725591
0.714515
0.701306
0.685474
0.666443
0.643322
0.615208
0.580185
0.536993
0.480929
0.411252
0.316095
0.203817
0.771304
0.779934
0.777642
0.777455
0.776816
0.775891
0.774628
0.772989
0.770926
0.768383
0.765289
0.761562
0.757098
0.751768
0.745418
0.73786
0.728857
0.718114
0.705267
0.689823
0.671206
0.648469
0.620723
0.585779
0.542422
0.484737
0.411552
0.306673
0.174503
0.771413
0.780199
0.777765
0.777739
0.777153
0.776315
0.775149
0.773614
0.771663
0.769235
0.766262
0.762656
0.758314
0.75311
0.746891
0.739467
0.730605
0.720006
0.707306
0.691997
0.673499
0.650802
0.623036
0.5877
0.543724
0.483706
0.406402
0.28839
0.131225
0.771268
0.780154
0.777591
0.77768
0.777105
0.776292
0.775141
0.77362
0.771681
0.76927
0.766315
0.762731
0.758413
0.753231
0.74703
0.739617
0.730754
0.720137
0.707391
0.691985
0.673326
0.650327
0.622122
0.58585
0.540663
0.477349
0.395515
0.260321
0.0703553
0.772371
0.781253
0.778657
0.778836
0.778318
0.777572
0.776473
0.774978
0.773035
0.770586
0.767566
0.763896
0.759476
0.754183
0.747862
0.740322
0.731321
0.720545
0.70761
0.691961
0.672982
0.649518
0.62066
0.583289
0.536547
0.470021
0.38439
0.237501
0.0160064
0.778591
0.787572
0.785218
0.785626
0.785576
0.785432
0.785019
0.784202
0.782843
0.780833
0.778085
0.774523
0.770065
0.764615
0.758043
0.750179
0.740799
0.729603
0.716208
0.700081
0.680564
0.656602
0.626938
0.589194
0.540463
0.474329
0.384252
0.255213
0.125111
0.336295
0.335651
0.334998
0.334339
0.333674
0.333002
0.332324
0.331641
0.330952
0.330258
0.329558
0.328853
0.328143
0.32743
0.326712
0.325989
0.325262
0.324531
0.323796
0.323058
0.322318
0.321575
0.32083
0.320083
0.319335
0.318586
0.317834
0.317083
0.316331
0.315579
0.314826
0.314073
0.313321
0.312569
0.311818
0.311068
0.310319
0.309572
0.308826
0.308082
0.307339
0.306599
0.305861
0.305126
0.304394
0.303665
0.302939
0.302216
0.301497
0.300783
0.300072
0.299366
0.298664
0.297967
0.297276
0.296589
0.295908
0.295233
0.294564
0.2939
0.293243
0.292592
0.291948
0.291311
0.29068
0.290056
0.289439
0.28883
0.288228
0.287634
0.287048
0.286469
0.285899
0.285337
0.284784
0.284239
0.283703
0.283175
0.282657
0.282148
0.281648
0.281158
0.280677
0.280205
0.279743
0.279292
0.27885
0.278418
0.277996
0.277585
0.277184
0.276794
0.276415
0.276046
0.275689
0.275342
0.275006
0.274681
0.274367
0.274065
0.273773
0.273493
0.273223
0.272965
0.272718
0.272482
0.272257
0.272043
0.271839
0.271647
0.271465
0.271293
0.271132
0.270981
0.27084
0.270708
0.270587
0.270475
0.270372
0.27028
0.270197
0.270123
0.270058
0.270001
0.269954
0.269913
0.26988
0.269856
0.269835
0.269825
0.269818
0.269819
0.26983
0.269841
0.269873
0.269896
0.269963
0.269978
0.270133
0.33698
0.336312
0.335639
0.334959
0.334272
0.33358
0.332884
0.332181
0.331472
0.33076
0.330042
0.329321
0.328596
0.327866
0.327133
0.326398
0.325659
0.324917
0.324174
0.323428
0.32268
0.321932
0.321189
0.320447
0.319697
0.318935
0.318173
0.317411
0.316644
0.315876
0.315108
0.314339
0.31357
0.312801
0.312032
0.311264
0.310498
0.309733
0.308969
0.308207
0.307446
0.306687
0.305929
0.305173
0.304419
0.303667
0.302918
0.302172
0.30143
0.300691
0.299955
0.299224
0.298498
0.297775
0.297058
0.296346
0.295638
0.294937
0.294241
0.293551
0.292867
0.292189
0.291518
0.290854
0.290197
0.289547
0.288904
0.288269
0.287642
0.287023
0.286412
0.28581
0.285216
0.284631
0.284055
0.283488
0.282931
0.282384
0.281845
0.281318
0.280799
0.280291
0.279794
0.279307
0.278831
0.278365
0.277911
0.277466
0.277034
0.276611
0.2762
0.275801
0.275412
0.275034
0.274668
0.274314
0.273971
0.273639
0.273319
0.273011
0.272714
0.27243
0.272157
0.271896
0.271647
0.271409
0.271184
0.27097
0.270769
0.270579
0.270401
0.270234
0.27008
0.269937
0.269806
0.269686
0.269578
0.269481
0.269394
0.269318
0.269251
0.269193
0.269145
0.269104
0.269071
0.269047
0.269027
0.269013
0.269009
0.268999
0.269007
0.269002
0.269022
0.268995
0.269041
0.269
0.269043
0.268984
0.268942
0.33827
0.337577
0.336877
0.336169
0.335459
0.334743
0.33402
0.333291
0.332556
0.331816
0.33107
0.330319
0.329559
0.328795
0.328026
0.327249
0.326469
0.325682
0.324889
0.324089
0.323285
0.322472
0.321656
0.320851
0.320061
0.319284
0.318484
0.317663
0.316845
0.316026
0.315207
0.314387
0.313572
0.312765
0.311963
0.311162
0.31036
0.309558
0.308756
0.307953
0.307146
0.306332
0.305518
0.304708
0.303902
0.3031
0.302302
0.301509
0.300721
0.299938
0.29916
0.298387
0.297619
0.296857
0.2961
0.29535
0.294605
0.293867
0.293135
0.292409
0.291691
0.29098
0.290275
0.289579
0.28889
0.288209
0.287535
0.28687
0.286214
0.285565
0.284926
0.284295
0.283672
0.283061
0.282458
0.281867
0.281284
0.280711
0.280149
0.279596
0.279054
0.278523
0.278004
0.277495
0.276997
0.276511
0.276034
0.27557
0.275118
0.274677
0.274248
0.273831
0.273426
0.273034
0.272654
0.272287
0.271932
0.27159
0.271262
0.270946
0.270643
0.270353
0.270076
0.269812
0.269562
0.269325
0.269101
0.268891
0.268694
0.26851
0.268341
0.268184
0.268042
0.267913
0.267798
0.267696
0.267608
0.267534
0.267473
0.267425
0.26739
0.267367
0.267358
0.267362
0.267378
0.267407
0.267449
0.267502
0.267566
0.267639
0.267733
0.267801
0.267898
0.268022
0.268017
0.268273
0.268062
0.268685
0.268044
0.339872
0.339124
0.338369
0.337613
0.33685
0.336078
0.335301
0.334521
0.333733
0.332938
0.332137
0.331331
0.33052
0.329705
0.328883
0.328056
0.327228
0.326396
0.325562
0.324724
0.323881
0.323036
0.322181
0.321306
0.320413
0.319515
0.318634
0.317764
0.316891
0.316016
0.315138
0.314259
0.313388
0.312523
0.311655
0.310785
0.309915
0.309047
0.308183
0.307324
0.306475
0.305633
0.304783
0.303922
0.303061
0.302202
0.301346
0.300494
0.299649
0.298814
0.297987
0.297166
0.296351
0.295542
0.294739
0.293945
0.293157
0.292375
0.291602
0.290836
0.290078
0.289328
0.288586
0.287852
0.287125
0.286406
0.285694
0.284988
0.284291
0.283601
0.282915
0.282239
0.281574
0.280921
0.280277
0.279645
0.279024
0.278415
0.277814
0.277225
0.27665
0.276085
0.275532
0.274993
0.274465
0.273946
0.273443
0.27295
0.27247
0.272002
0.271547
0.271104
0.270674
0.270258
0.269856
0.269467
0.269094
0.268733
0.268388
0.268056
0.267738
0.267435
0.267147
0.266873
0.266614
0.26637
0.266141
0.265928
0.265731
0.265549
0.265384
0.265235
0.265103
0.264987
0.264889
0.264807
0.264743
0.264697
0.264669
0.26466
0.26467
0.264699
0.264748
0.264818
0.264907
0.265019
0.265149
0.265296
0.265481
0.26566
0.265838
0.266232
0.266094
0.267042
0.266125
0.268352
0.265922
0.270089
0.265093
0.341858
0.341075
0.34029
0.339491
0.338682
0.337868
0.337048
0.336216
0.335377
0.334535
0.333684
0.332826
0.331961
0.331088
0.33021
0.329325
0.328431
0.327527
0.326615
0.325697
0.324784
0.323864
0.322935
0.322002
0.32107
0.32014
0.3192
0.31825
0.317304
0.316358
0.315411
0.314459
0.313497
0.312527
0.311559
0.310594
0.309633
0.308673
0.307715
0.306757
0.305804
0.30486
0.303931
0.303014
0.302098
0.301184
0.300276
0.299375
0.298477
0.297579
0.296681
0.295786
0.294893
0.294006
0.293125
0.29225
0.291382
0.290521
0.289668
0.288823
0.287985
0.287155
0.286334
0.285522
0.284721
0.283929
0.28315
0.282383
0.281628
0.280887
0.280159
0.279444
0.278739
0.278045
0.277363
0.276691
0.276033
0.275387
0.274752
0.274129
0.273514
0.272917
0.272332
0.271758
0.271197
0.27065
0.270113
0.269588
0.269082
0.268589
0.268113
0.267652
0.267208
0.266781
0.266367
0.265968
0.265584
0.265214
0.264861
0.264523
0.2642
0.263894
0.263603
0.263328
0.263068
0.262825
0.262597
0.262386
0.262192
0.262016
0.261857
0.261716
0.261593
0.26149
0.261406
0.261341
0.261296
0.261273
0.261269
0.261288
0.261327
0.261389
0.261475
0.261584
0.261718
0.261878
0.262086
0.26231
0.262558
0.263062
0.262985
0.26422
0.263165
0.266384
0.262812
0.269724
0.261327
0.275024
0.255359
0.344256
0.343465
0.342652
0.341818
0.340977
0.340117
0.33924
0.338352
0.337449
0.336531
0.3356
0.334658
0.333705
0.332741
0.331773
0.330793
0.329806
0.328814
0.327825
0.32683
0.325819
0.324803
0.323784
0.322764
0.321754
0.320744
0.319717
0.318695
0.317666
0.316623
0.315583
0.314552
0.313515
0.312468
0.311425
0.310377
0.309325
0.308272
0.307218
0.306163
0.305108
0.304053
0.303008
0.301981
0.300969
0.299963
0.29896
0.297957
0.296956
0.295962
0.294975
0.293995
0.293024
0.292062
0.291107
0.290158
0.289218
0.288285
0.287361
0.286446
0.28554
0.284644
0.283758
0.282884
0.282022
0.281172
0.280334
0.279511
0.278701
0.277905
0.277125
0.276358
0.275607
0.274868
0.274138
0.273421
0.27271
0.27201
0.271322
0.270641
0.26998
0.269338
0.268703
0.26807
0.267449
0.266844
0.266261
0.265712
0.265176
0.264644
0.264123
0.26362
0.263139
0.262673
0.262222
0.261788
0.261371
0.260971
0.260587
0.260218
0.259866
0.25953
0.259208
0.2589
0.258607
0.258331
0.258076
0.257842
0.257628
0.257435
0.257262
0.25711
0.25698
0.25687
0.256781
0.256715
0.25667
0.256649
0.256652
0.25668
0.256736
0.256819
0.256934
0.257083
0.257267
0.257478
0.25773
0.258095
0.258168
0.25903
0.25853
0.26048
0.25879
0.262219
0.25901
0.264262
0.257799
0.27085
0.239812
0.346989
0.346137
0.345258
0.344373
0.343468
0.342537
0.341586
0.340636
0.339667
0.33868
0.337685
0.336672
0.335653
0.334624
0.33357
0.332514
0.331459
0.330387
0.329284
0.328176
0.327066
0.325977
0.324882
0.323753
0.322595
0.321412
0.320253
0.319102
0.317942
0.316796
0.315644
0.314471
0.313296
0.312147
0.311014
0.309883
0.308753
0.307625
0.306499
0.305377
0.304258
0.303141
0.302022
0.300901
0.299778
0.298658
0.297544
0.296439
0.295342
0.294253
0.293173
0.292102
0.29104
0.289986
0.288942
0.287908
0.286885
0.285873
0.284872
0.283883
0.282906
0.281941
0.280988
0.280048
0.279118
0.2782
0.277292
0.276397
0.275511
0.274635
0.273768
0.272908
0.272057
0.271218
0.270395
0.269589
0.268801
0.268026
0.267266
0.266521
0.265785
0.265066
0.26437
0.26369
0.263031
0.262392
0.261759
0.261127
0.26051
0.25992
0.25935
0.258796
0.258253
0.257728
0.257227
0.256742
0.256278
0.255831
0.255402
0.254993
0.254603
0.254232
0.253884
0.253558
0.253255
0.252974
0.25271
0.252465
0.252238
0.252031
0.251844
0.251676
0.251529
0.251404
0.2513
0.25122
0.251162
0.251129
0.251122
0.25114
0.251184
0.251254
0.25135
0.251471
0.251621
0.251793
0.251908
0.252278
0.252167
0.252875
0.252426
0.253472
0.252838
0.253869
0.253718
0.254224
0.253941
0.260718
0.228737
0.3505
0.349559
0.348615
0.347639
0.346625
0.345644
0.344654
0.34359
0.3425
0.341405
0.340312
0.339192
0.338039
0.336873
0.3357
0.334505
0.333272
0.332047
0.330831
0.329607
0.328371
0.327085
0.325789
0.324524
0.323267
0.322045
0.320851
0.319623
0.31835
0.317068
0.315793
0.314528
0.313259
0.311968
0.310663
0.309373
0.308088
0.30681
0.305539
0.304275
0.303017
0.301767
0.300524
0.299286
0.298055
0.29683
0.295612
0.294402
0.2932
0.292005
0.290817
0.289636
0.288464
0.287302
0.28615
0.285009
0.28388
0.282763
0.281659
0.280568
0.27949
0.278425
0.277371
0.27633
0.2753
0.27428
0.273274
0.272277
0.271285
0.270307
0.269341
0.268394
0.267463
0.266544
0.26564
0.264751
0.263879
0.263029
0.262203
0.261399
0.26062
0.259862
0.259124
0.258409
0.257717
0.257044
0.256385
0.255749
0.25513
0.254523
0.253939
0.253366
0.252808
0.252265
0.251733
0.251215
0.250715
0.25023
0.249766
0.24932
0.248893
0.248488
0.248102
0.247739
0.247395
0.247072
0.246769
0.246485
0.246223
0.24598
0.245758
0.245556
0.245375
0.245214
0.245074
0.244955
0.244857
0.244779
0.244721
0.244681
0.244658
0.244651
0.244655
0.244672
0.244698
0.244762
0.244729
0.244924
0.244803
0.245134
0.244958
0.245361
0.245233
0.245402
0.2458
0.245021
0.244871
0.251878
0.222784
0.354932
0.353898
0.352817
0.351703
0.350588
0.3494
0.348172
0.34696
0.345762
0.344534
0.343246
0.341948
0.340648
0.339325
0.337989
0.336667
0.335392
0.334056
0.332674
0.331284
0.329878
0.328522
0.32717
0.32574
0.324302
0.322877
0.321429
0.31999
0.318568
0.317124
0.315686
0.314244
0.312814
0.31141
0.310014
0.308602
0.307179
0.305762
0.304348
0.302937
0.30153
0.300128
0.298732
0.297343
0.295961
0.294592
0.293232
0.291882
0.290544
0.289219
0.287907
0.286608
0.285323
0.28405
0.282789
0.281542
0.280306
0.279082
0.277871
0.276673
0.275488
0.274316
0.27316
0.272018
0.270895
0.269788
0.268698
0.267628
0.266584
0.26556
0.264555
0.263568
0.262599
0.261654
0.260729
0.259821
0.258932
0.258063
0.257203
0.25635
0.255511
0.254689
0.253871
0.253075
0.252289
0.251517
0.250781
0.250054
0.249347
0.248672
0.248014
0.247379
0.246769
0.246178
0.245609
0.245064
0.244537
0.244031
0.243542
0.24307
0.242616
0.242178
0.241758
0.241355
0.240968
0.2406
0.24025
0.239919
0.239606
0.239312
0.239038
0.238782
0.238546
0.23833
0.238131
0.237949
0.237784
0.237635
0.2375
0.237379
0.237269
0.237174
0.237088
0.237013
0.236942
0.236923
0.236812
0.236896
0.236732
0.236928
0.236722
0.236975
0.237013
0.236692
0.237176
0.236307
0.234878
0.241676
0.216284
0.360258
0.359036
0.35779
0.356553
0.35526
0.353933
0.352646
0.351323
0.349918
0.3485
0.347075
0.345633
0.344229
0.342832
0.341347
0.339806
0.338233
0.336653
0.33514
0.333631
0.332047
0.330417
0.328799
0.327209
0.325648
0.324057
0.322397
0.320743
0.319132
0.31754
0.315936
0.314319
0.312705
0.311101
0.309504
0.307921
0.306363
0.304812
0.303263
0.301716
0.300172
0.298633
0.297095
0.295562
0.294026
0.292485
0.290954
0.289463
0.288006
0.286559
0.285123
0.283701
0.282294
0.280901
0.279524
0.278162
0.276815
0.275484
0.27417
0.272871
0.27159
0.270325
0.269081
0.267854
0.266647
0.26546
0.26429
0.263141
0.262012
0.260901
0.25981
0.258738
0.257681
0.256637
0.255603
0.254589
0.253592
0.252608
0.251658
0.250737
0.249829
0.248949
0.248109
0.247279
0.246468
0.245689
0.244916
0.244159
0.243428
0.242703
0.241991
0.241302
0.240626
0.239965
0.239327
0.238705
0.238103
0.237523
0.236962
0.236424
0.235906
0.235408
0.234932
0.234474
0.234037
0.233619
0.23322
0.232839
0.232477
0.232132
0.231804
0.231493
0.231197
0.230918
0.230654
0.230403
0.230166
0.229943
0.229732
0.229535
0.22935
0.229177
0.229024
0.228878
0.228735
0.228659
0.228495
0.22851
0.228337
0.228411
0.228303
0.228282
0.22859
0.228214
0.228134
0.227468
0.226215
0.232046
0.209986
0.366494
0.365145
0.363792
0.362351
0.360891
0.359429
0.357873
0.356303
0.354748
0.353171
0.351552
0.349914
0.348201
0.346443
0.344736
0.343037
0.341339
0.339617
0.337824
0.33603
0.334273
0.332518
0.330753
0.328974
0.327168
0.325363
0.323609
0.321841
0.320016
0.31818
0.316358
0.314542
0.31273
0.310934
0.30915
0.307368
0.305592
0.303821
0.302064
0.300324
0.298604
0.296901
0.295215
0.293554
0.291894
0.290237
0.2886
0.286945
0.285294
0.283684
0.282101
0.280538
0.278993
0.277468
0.275963
0.274477
0.273013
0.271569
0.270147
0.268745
0.267365
0.266005
0.264664
0.263342
0.262038
0.260755
0.259494
0.258252
0.257027
0.25582
0.254637
0.253467
0.252324
0.251205
0.250114
0.249046
0.247994
0.246978
0.245973
0.244975
0.244004
0.243048
0.242112
0.2412
0.240316
0.239445
0.238603
0.237795
0.236994
0.236211
0.235465
0.234733
0.234016
0.233327
0.232652
0.231997
0.231363
0.230746
0.23015
0.229571
0.229011
0.22847
0.227948
0.227444
0.226959
0.226492
0.226043
0.225611
0.225195
0.224797
0.224413
0.224045
0.223691
0.223351
0.223026
0.222714
0.222415
0.222131
0.22186
0.221604
0.221364
0.221137
0.220931
0.22075
0.220559
0.220448
0.220268
0.220225
0.220062
0.220071
0.219979
0.219801
0.219871
0.219346
0.218946
0.218363
0.217411
0.222339
0.203067
0.373199
0.371616
0.369966
0.368321
0.366662
0.364904
0.363127
0.361375
0.359538
0.35766
0.355792