/*--------------------------------*- C++ -*----------------------------------*\
| =========                 |                                                 |
| \\      /  F ield         | OpenFOAM: The Open Source CFD Toolbox           |
|  \\    /   O peration     | Version:  5.x                                   |
|   \\  /    A nd           | Web:      www.OpenFOAM.org                      |
|    \\/     M anipulation  |                                                 |
\*---------------------------------------------------------------------------*/
/*   Windows 32 and 64 bit porting by blueCAPE: http://www.bluecape.com.pt   *\
|  Based on Windows porting (2.0.x v4) by Symscape: http://www.symscape.com   |
\*---------------------------------------------------------------------------*/
FoamFile
{
    version     2.0;
    format      ascii;
    class       surfaceScalarField;
    location    "270";
    object      phi;
}
// * * * * * * * * * * * * * * * * * * * * * * * * * * * * * * * * * * * * * //

dimensions      [0 3 -1 0 0 0 0];

internalField   nonuniform List<scalar> 
87341
(
0.365658
39.5574
0.529225
39.7595
0.495906
39.9564
0.602905
39.816
0.639452
39.8865
0.683576
39.8789
0.719795
39.8868
0.756172
39.8867
0.791772
39.8874
0.82149
39.8933
0.852965
39.8916
0.883953
39.892
0.911848
39.8951
0.936501
39.8984
0.961024
39.8985
0.982992
39.9011
1.001
39.905
1.01933
39.9047
1.03633
39.906
1.05261
39.9068
1.07002
39.9056
1.08519
39.9079
1.09956
39.9087
1.11472
39.9079
1.12801
39.9098
1.14165
39.9094
1.15571
39.909
1.16739
39.9114
39.9113
1.17914
0.970684
38.5867
1.36254
39.3676
1.47401
39.8449
1.61103
39.679
1.65136
39.8462
1.81094
39.7193
1.91435
39.7834
2.04772
39.7533
2.14301
39.7922
2.24273
39.7936
2.32818
39.8061
2.41026
39.81
2.49211
39.8133
2.5715
39.819
2.64243
39.8276
2.70656
39.8369
2.77329
39.8383
2.83645
39.8415
2.89313
39.8494
2.94767
39.8522
2.9949
39.8584
3.03927
39.8635
3.08416
39.8638
3.12357
39.8685
3.16162
39.8717
3.19799
39.873
3.22925
39.8777
3.26176
39.8788
39.8782
3.29485
2.03475
36.5519
3.35131
38.0511
4.12961
39.0666
4.21177
39.5969
4.37015
39.6878
4.30477
39.7847
4.33628
39.7519
4.31484
39.7747
4.34014
39.7669
4.36171
39.772
4.38948
39.7783
4.41913
39.7803
4.45183
39.7806
4.48703
39.7838
4.525
39.7896
4.57083
39.7911
4.61394
39.7952
4.65308
39.8024
4.69752
39.8049
4.73951
39.8102
4.78223
39.8157
4.82776
39.818
4.86696
39.8246
4.90647
39.829
4.94749
39.8307
4.98538
39.8351
5.02609
39.837
5.0665
39.8384
39.8444
5.10031
1.69661
34.8553
3.4971
36.2506
4.9477
37.616
5.83482
38.7097
6.13523
39.3874
6.22363
39.6963
6.23893
39.7366
6.26916
39.7445
6.29035
39.7457
6.31084
39.7515
6.33196
39.7572
6.35131
39.761
6.37062
39.7613
6.38734
39.7671
6.41035
39.7666
6.43278
39.7687
6.45446
39.7735
6.48359
39.7733
6.51201
39.7765
6.54325
39.779
6.5791
39.7798
6.61373
39.7833
6.65437
39.7839
6.6992
39.7841
6.7413
39.7886
6.7873
39.7891
6.83284
39.7915
6.87433
39.7969
39.7963
6.92244
1.08945
33.7659
2.45759
34.8824
4.03234
36.0412
5.49903
37.243
6.57068
38.3157
7.15993
39.1071
7.36975
39.5268
7.41572
39.6985
7.46028
39.7011
7.51079
39.701
7.56341
39.7046
7.6176
39.7068
7.67044
39.7084
7.72229
39.7152
7.76751
39.7214
7.8147
39.7215
7.86809
39.7201
7.91757
39.7238
7.96689
39.7272
8.01854
39.7273
8.06806
39.7303
8.12197
39.7294
8.17894
39.727
8.23277
39.7303
8.28968
39.7317
8.34359
39.7352
8.39567
39.7394
8.45622
39.7364
39.7352
8.51732
0.855857
32.91
1.87035
33.8679
3.04181
34.8698
4.37447
35.9104
5.73081
36.9594
6.86941
37.9685
7.59823
38.798
7.95212
39.3446
8.08294
39.5703
8.16468
39.6193
8.25172
39.6176
8.33591
39.6226
8.4101
39.6342
8.48346
39.6419
8.56737
39.6375
8.65139
39.6375
8.72401
39.6475
8.8011
39.6467
8.88486
39.6434
8.96406
39.6481
9.04686
39.6475
9.12758
39.6487
9.19948
39.6551
9.268
39.6618
9.33724
39.6624
9.41469
39.6578
9.49939
39.6547
9.57608
39.6597
39.6709
9.64033
0.747935
32.1621
1.59751
33.0183
2.55026
33.917
3.61019
34.8504
4.76697
35.8026
5.98099
36.7545
7.09373
37.6852
7.92161
38.5167
8.37769
39.1142
8.57494
39.422
8.68539
39.5071
8.79751
39.5105
8.91649
39.5153
9.03268
39.5257
9.14274
39.5274
9.25309
39.5271
9.37368
39.5269
9.49102
39.5294
9.59753
39.5369
9.70773
39.5379
9.81036
39.5449
9.90584
39.5532
10.0117
39.5492
10.132
39.5415
10.2482
39.5462
10.352
39.5539
10.4381
39.5686
10.521
39.5767
39.5663
10.6256
0.694735
31.4674
1.45855
32.2545
2.29537
33.0802
3.2074
33.9384
4.19202
34.818
5.24029
35.7062
6.33712
36.5884
7.41008
37.4438
8.28061
38.2437
8.83201
38.8706
9.09323
39.2459
9.23247
39.3712
9.36921
39.3785
9.51328
39.3816
9.65213
39.3886
9.78757
39.3917
9.92301
39.3915
10.0642
39.3881
10.2082
39.3929
10.3453
39.4008
10.4862
39.404
10.6371
39.4023
10.7786
39.4078
10.8941
39.426
11.0071
39.4332
11.1184
39.4426
11.2517
39.4354
11.3968
39.4317
39.4359
11.5272
0.667229
30.8001
1.38468
31.5371
2.15693
32.3079
2.986
33.1094
3.87136
33.9326
4.80947
34.7681
5.79274
35.6051
6.80501
36.4315
7.81619
37.2325
8.69815
37.9887
9.31713
38.6269
9.63805
39.0503
9.81685
39.1997
9.9866
39.2119
10.1584
39.2167
10.3306
39.2195
10.4934
39.2287
10.6454
39.2361
10.7997
39.2387
10.9687
39.2318
11.1386
39.2341
11.2866
39.2542
11.4303
39.2642
11.5875
39.2687
11.7536
39.2671
11.9253
39.2709
12.0756
39.2851
12.2096
39.2976
39.315
12.3305
0.650053
30.1501
1.34309
30.844
2.07797
31.5731
2.85641
32.3309
3.67865
33.1104
4.54315
33.9036
5.4461
34.7022
6.38041
35.4972
7.33421
36.2787
8.28841
37.0345
9.16851
37.7468
9.83958
38.3792
10.2229
38.8165
10.443
38.9918
10.6499
39.0098
10.8515
39.0178
11.0616
39.0186
11.2647
39.033
11.4619
39.0415
11.6441
39.0496
11.8234
39.0549
12.0217
39.0559
12.226
39.0599
12.4231
39.0716
12.6057
39.0845
12.7775
39.0991
12.9471
39.1155
13.127
39.1178
39.1228
13.3192
0.64663
29.5035
1.3269
30.1638
2.04188
30.8581
2.79225
31.5806
3.57791
32.3247
4.39779
33.0837
5.24962
33.8503
6.12958
34.6173
7.0317
35.3766
7.94671
36.1195
8.85863
36.8349
9.7316
37.5063
10.4285
38.1195
10.8543
38.566
11.1117
38.7524
11.3573
38.7723
11.5822
38.7936
11.8249
38.7903
12.0691
38.7974
12.3074
38.8112
12.5376
38.8247
12.7526
38.8409
12.9578
38.8546
13.1597
38.8698
13.3671
38.8771
13.5755
38.8906
13.7785
38.9126
13.9665
38.9297
38.9322
14.1571
0.6477
28.8558
1.32361
29.4879
2.02929
30.1524
2.76498
30.8449
3.53038
31.5593
4.32441
32.2897
5.14523
33.0295
5.99009
33.7724
6.85498
34.5117
7.73406
35.2404
8.61826
35.9507
9.49167
36.6328
10.3375
37.2737
11.0423
37.8612
11.4891
38.3056
11.7742
38.4872
12.0519
38.5159
12.3036
38.5386
12.5482
38.5528
12.7939
38.5655
13.0372
38.5815
13.2821
38.5961
13.5317
38.605
13.7822
38.6193
14.0153
38.6439
14.2516
38.6543
14.4911
38.6731
14.7279
38.6929
38.7086
14.9516
0.651921
28.2038
1.33012
28.8097
2.03456
29.448
2.76515
30.1143
3.52144
30.803
4.30254
31.5086
5.10682
32.2252
5.932
32.9472
6.77502
33.6687
7.63169
34.3837
8.49622
35.0861
9.36014
35.7689
10.2105
36.4234
11.0342
37.0376
11.738
37.6018
12.1901
38.035
12.4994
38.2066
12.8006
38.2374
13.081
38.2724
13.3447
38.3018
13.6294
38.2968
13.9213
38.3041
14.1988
38.3275
14.4666
38.3515
14.7343
38.3762
14.9843
38.4043
15.2142
38.4432
15.4511
38.456
38.4679
15.6918
0.662893
27.5409
1.34952
28.123
2.06019
28.7373
2.7947
29.3798
3.5523
30.0454
4.33206
30.7288
5.1327
31.4246
5.95231
32.1276
6.78845
32.8325
7.63797
33.5342
8.49678
34.2273
9.35938
34.9063
10.218
35.5648
11.0607
36.1948
11.8771
36.7854
12.5834
37.3287
13.0456
37.7443
13.3763
37.9067
13.7126
37.9362
14.048
37.9664
14.3588
37.9859
14.6496
38.0133
14.9351
38.0421
15.2198
38.0668
15.5095
38.0866
15.8108
38.103
16.1245
38.1295
16.4146
38.166
38.203
16.6795
0.676061
26.8649
1.37413
27.425
2.09426
28.0172
2.83641
28.6376
3.59987
29.282
4.38342
29.9453
5.18581
30.6222
6.00549
31.3079
6.84038
31.9976
7.68792
32.6867
8.54496
33.3703
9.40748
34.0438
10.2702
34.7021
11.1256
35.3394
11.9625
35.9485
12.7717
36.5195
13.4709
37.0451
13.931
37.4465
14.283
37.5842
14.6358
37.6136
14.9551
37.6665
15.2618
37.7066
15.5741
37.7298
15.8956
37.7453
16.1842
37.798
16.4449
37.8423
16.686
37.8884
16.9426
37.9093
37.9096
17.236
0.690672
26.1742
1.40215
26.7135
2.13418
27.2851
2.88647
27.8853
3.65854
28.5099
4.44925
29.1546
5.257
29.8145
6.0803
30.4846
6.91734
31.1606
7.76592
31.8381
8.62337
32.5128
9.48648
33.1807
10.3512
33.8374
11.2125
34.4782
12.063
35.0979
12.8925
35.69
13.6914
36.2462
14.3791
36.7588
14.8348
37.1286
15.1728
37.2756
15.5281
37.3113
15.8763
37.3584
16.218
37.3881
16.5476
37.4157
16.8941
37.4515
17.2634
37.473
17.6075
37.5444
17.9049
37.6118
37.6639
18.1507
0.708123
25.4661
1.43613
25.9855
2.18374
26.5375
2.95043
27.1186
3.73556
27.7248
4.53835
28.3518
5.35733
28.9955
6.19075
29.6512
7.03694
30.3144
7.89395
30.9811
8.75952
31.6473
9.63104
32.3092
10.5054
32.963
11.3787
33.6049
12.2461
34.2305
13.1012
34.835
13.9349
35.4125
14.7372
35.9565
15.4111
36.4547
15.8821
36.8046
16.2582
36.9351
16.6528
36.9638
17.0377
37.0032
17.4058
37.0475
17.7294
37.128
18.0116
37.1907
18.3291
37.2268
18.6991
37.2419
37.2843
19.0787
0.72663
24.7395
1.47257
25.2395
2.23744
25.7727
3.02065
26.3354
3.82137
26.924
4.63874
27.5344
5.47167
28.1625
6.31849
28.8044
7.17738
29.4555
8.04656
30.1119
8.92395
30.7699
9.80725
31.4259
10.6939
32.0764
11.5807
32.718
12.4641
33.3471
13.3393
33.9598
14.2002
34.5516
15.0389
35.1178
15.8396
35.654
16.4987
36.1454
16.9706
36.4633
17.3571
36.5773
17.7189
36.6414
18.0707
36.6958
18.4548
36.7439
18.8434
36.8021
19.1674
36.9028
19.4196
36.9897
37.0401
19.6639
0.744999
23.9945
1.50892
24.4756
2.29128
24.9903
3.09142
25.5353
3.90849
26.107
4.74142
26.7015
5.58913
27.3148
6.45024
27.9433
7.32287
28.5829
8.20522
29.2295
9.09539
29.8797
9.99121
30.5301
10.8903
31.1774
11.7899
31.8184
12.6871
32.4499
13.5781
33.0688
14.4584
33.6713
15.3226
34.2536
16.1647
34.8118
16.9663
35.3438
17.6077
35.8219
18.0521
36.1329
18.4586
36.2349
18.8332
36.3212
19.1748
36.4022
19.5207
36.4562
19.9486
36.4749
20.4161
36.5222
36.6555
20.8006
0.762676
23.2318
1.54398
23.6943
2.34341
24.1909
3.16025
24.7185
3.99361
25.2736
4.84241
25.8527
5.70542
26.4518
6.58141
27.0673
7.4687
27.6956
8.36531
28.3329
9.26942
28.9756
10.1791
29.6204
11.0922
30.2643
12.0062
30.9043
12.9187
31.5375
13.8266
32.1609
14.7264
32.7715
15.6141
33.3659
16.4855
33.9405
17.338
34.4913
18.1406
35.0193
18.7575
35.5161
19.1982
35.7941
19.6305
35.889
20.0783
35.9544
20.4641
36.0705
20.7557
36.1833
21.038
36.2399
36.2643
21.4291
0.778631
22.4532
1.57571
22.8972
2.39068
23.3759
3.2228
23.8863
4.07115
24.4253
4.93462
24.9892
5.81195
25.5745
6.70179
26.1774
7.60274
26.7946
8.51292
27.4228
9.4303
28.0582
10.353
28.6977
11.2789
29.3384
12.2058
29.9774
13.1314
30.6119
14.053
31.2393
14.9676
31.8569
15.8718
32.4617
16.7614
33.0508
17.6315
33.6213
18.4802
34.1706
19.2779
34.7184
19.8784
35.1936
20.2884
35.4789
20.6855
35.5574
21.1226
35.6334
21.586
35.72
21.9674
35.8584
35.9825
22.2492
0.792482
21.6607
1.60328
22.0864
2.43179
22.5474
3.27727
23.0409
4.13877
23.5638
5.01518
24.1128
5.90522
24.6844
6.80742
25.2752
7.72033
25.8817
8.64236
26.5007
9.57147
27.1291
10.5057
27.7635
11.4429
28.4011
12.3811
29.0392
13.3179
29.6751
14.2509
30.3064
15.1772
30.9305
16.094
31.5449
16.9977
32.1472
17.8842
32.7348
18.7486
33.3061
19.6027
33.8643
20.3895
34.4067
20.9966
34.8719
21.4348
35.1191
21.8321
35.2361
22.2063
35.3458
22.659
35.4057
35.5719
23.0697
0.804061
20.8566
1.62632
21.2642
2.46617
21.7075
3.32288
22.1842
4.19551
22.6911
5.08296
23.2253
5.98394
23.7835
6.89704
24.3621
7.82067
24.9581
8.75328
25.5681
9.69305
26.1893
10.6379
26.8187
11.5858
27.4532
12.5348
28.0902
13.4826
28.7273
14.4269
29.362
15.3654
29.992
16.2954
30.615
17.2141
31.2285
18.1185
31.8304
19.0059
32.4187
19.8775
32.9927
20.7302
33.5539
21.4959
34.1062
22.0518
34.5632
22.4894
34.7985
22.8927
34.9425
23.2289
35.0695
35.1813
23.6195
0.813094
20.0435
1.64429
20.433
2.49301
20.8588
3.35851
21.3187
4.23988
21.8098
5.13604
22.3292
6.04573
22.8738
6.96753
23.4404
7.89987
24.0258
8.84112
24.6269
9.78962
25.2408
10.7434
25.8649
11.7003
26.4963
12.6583
27.1322
13.6153
27.7703
14.569
28.4083
15.5171
29.0439
16.4571
29.6749
17.3865
30.2992
18.3024
30.9145
19.2021
31.519
20.0837
32.1112
20.947
32.6906
21.7855
33.2677
22.5043
33.8444
23.0401
34.2628
23.4606
34.5219
23.896
34.634
34.8107
24.2666
0.819663
19.2239
1.65732
19.5953
2.51242
20.0037
3.38428
20.4468
4.27201
20.922
5.17458
21.4266
6.09076
21.9576
7.01914
22.512
7.95819
23.0867
8.90622
23.6788
9.86154
24.2855
10.8223
24.9042
11.7865
25.5321
12.752
26.1667
13.7167
26.8056
14.6785
27.4465
15.6351
28.0874
16.5841
28.726
17.523
29.3602
18.4493
29.9881
19.3606
30.6077
20.2544
31.2173
21.1292
31.8158
21.9923
32.4046
22.8242
33.0125
23.5218
33.5653
24.0459
33.9978
24.4655
34.2144
34.3941
24.8821
0.823734
18.4001
1.66535
18.7537
2.52435
19.1447
3.40008
19.5711
4.29173
20.0304
5.19831
20.52
6.11864
21.0373
7.05138
21.5792
7.99502
22.1431
8.94793
22.7259
9.90838
23.3251
10.8746
23.938
11.8445
24.5622
12.8161
25.1951
13.7873
25.8344
14.7558
26.478
15.7196
27.1236
16.6764
27.7692
17.6237
28.4129
18.5593
29.0526
19.4806
29.6864
20.3853
30.3126
21.2712
30.9299
22.1375
31.5382
23.001
32.1489
23.7896
32.7767
24.4389
33.3485
24.9441
33.7092
33.9314
25.4068
0.825502
17.5746
1.66875
17.9105
2.5293
18.2842
3.40658
18.6938
4.29985
19.1371
5.20818
19.6117
6.13046
20.115
7.0654
20.6443
8.01155
21.1969
8.96729
21.7702
9.93089
22.3615
10.9006
22.9683
11.8745
23.5883
12.8504
24.2191
13.8264
24.8584
14.8002
25.5042
15.7695
26.1542
16.7322
26.8065
17.686
27.4592
18.6284
28.1102
19.5571
28.7577
20.4698
29.4
21.3642
30.0355
22.2388
30.6636
23.0999
31.2878
23.9554
31.9212
24.7298
32.5742
25.2961
33.1428
33.4682
25.7593
0.82507
16.7495
1.66772
17.0678
2.52758
17.4243
3.40416
17.8172
4.29683
18.2444
5.20472
18.7038
6.12681
19.1929
7.06186
19.7092
8.00848
20.2503
8.9651
20.8136
9.93001
21.3966
10.9014
21.9969
11.8773
22.6123
12.8559
23.2406
13.8349
23.8794
14.8123
24.5268
15.7858
25.1807
16.753
25.8393
17.7118
26.5004
18.6596
27.1623
19.5942
27.8231
20.5132
28.481
21.4144
29.1343
22.2963
29.7818
23.1601
30.424
24.0149
31.0664
24.868
31.721
25.5936
32.4172
32.9522
26.1095
0.822548
15.927
1.66247
16.2279
2.51949
16.5673
3.39322
16.9435
4.28311
17.3545
5.18841
17.7985
6.10815
18.2731
7.0412
18.7762
7.98624
19.3053
8.94176
19.858
9.90615
20.4322
10.8776
21.0255
11.8542
21.6357
12.834
22.2608
13.8147
22.8986
14.7943
23.5472
15.7705
24.2045
16.741
24.8688
17.7035
25.538
18.6555
26.2103
19.5947
26.8839
20.5187
27.557
21.4252
28.2277
22.3124
28.8946
23.1796
29.5568
24.0302
30.2158
24.8758
30.8754
25.7227
31.5703
32.3018
26.3731
0.818088
15.1089
1.6533
15.3927
2.50546
15.7151
3.37432
16.0746
4.25943
16.4694
5.16014
16.8978
6.07558
17.3577
7.00472
17.8471
7.94629
18.3637
8.89889
18.9054
9.86092
19.4702
10.8306
20.0558
11.8062
20.6602
12.7856
21.2814
13.7666
21.9176
14.747
22.5668
15.7246
23.227
16.6969
23.8964
17.6617
24.5732
18.6163
25.2557
19.5584
25.9419
20.4853
26.63
21.3948
27.3183
22.2845
28.0049
23.1526
28.6886
23.9992
29.3692
24.8264
30.0483
25.6641
30.7326
31.4994
26.4665
0.811794
14.2971
1.64042
14.564
2.48582
14.8697
3.34788
15.2126
4.22628
15.591
5.12048
16.0036
6.02974
16.4484
6.9531
16.9237
7.88941
17.4274
8.83732
17.9575
9.79529
18.5122
10.7616
19.0894
11.7344
19.6874
12.7117
20.3041
13.6915
20.9379
14.6713
21.5869
15.6489
22.2494
16.6218
22.9235
17.5875
23.6076
18.5434
24.2998
19.4869
24.9984
20.4153
25.7015
21.3261
26.4075
22.2167
27.1144
23.0847
27.8206
23.9287
28.5252
24.7486
29.2284
25.5528
29.9283
30.6715
26.3807
0.803744
13.4934
1.62397
13.7438
2.46076
14.0329
3.31416
14.3592
4.18399
14.7212
5.06983
15.1177
5.97107
15.5472
6.88685
16.0079
7.81612
16.4981
8.75763
17.016
9.70991
17.5599
10.6713
18.128
11.64
18.7187
12.6139
19.3302
13.591
19.9608
14.569
20.6089
15.5454
21.2729
16.5177
21.9512
17.4833
22.642
18.4393
23.3437
19.3832
24.0545
20.312
24.7727
21.2229
25.4965
22.1133
26.2241
22.9803
26.9536
23.8218
27.6837
24.6366
28.4136
25.4238
29.1411
29.8811
26.2142
0.793995
12.6994
1.60408
12.9337
2.43048
13.2065
3.27341
13.5162
4.13285
13.8618
5.00854
14.2421
5.89997
14.6558
6.80644
15.1014
7.72699
15.5776
8.66048
16.0825
9.60552
16.6149
10.5605
17.173
11.5238
17.7555
12.4932
18.3608
13.4665
18.9874
14.4416
19.6339
15.4158
20.2987
16.3866
20.9804
17.3512
21.6774
18.3067
22.3882
19.2501
23.1111
20.1785
23.8444
21.0887
24.5863
21.9779
25.3349
22.843
26.0885
23.6815
26.8453
24.4913
27.6038
25.2703
28.3621
29.1207
26.0307
0.782587
11.9168
1.58081
12.1355
2.39507
12.3923
3.22578
12.6855
4.07308
13.0145
4.93685
13.3783
5.81677
13.7759
6.71224
14.206
7.62245
14.6673
8.54637
15.1586
9.48271
15.6785
10.43
16.2257
11.3865
16.799
12.3502
17.397
13.319
18.0187
14.2903
18.6625
15.2618
19.3273
16.2305
20.0117
17.1936
20.7143
18.1481
21.4338
19.0907
22.1685
20.0182
22.9169
20.9272
23.6772
21.8146
24.4476
22.6771
25.226
23.5118
26.0106
24.3162
26.7994
25.0881
27.5901
28.3796
25.8292
0.769534
11.1473
1.55421
11.3508
2.35461
11.5919
3.17135
11.8688
4.00477
12.1811
4.85492
12.5281
5.72163
12.9091
6.60447
13.3231
7.50277
13.769
8.41564
14.2458
9.3419
14.7523
10.2801
15.2875
11.2287
15.8504
12.1856
16.4401
13.1488
17.0555
14.1158
17.6955
15.084
18.3591
16.0504
19.0453
17.0119
19.7528
17.9653
20.4804
18.9071
21.2267
19.8337
21.9903
20.7415
22.7694
21.6269
23.5622
22.4862
24.3667
23.3162
25.1806
24.1137
26.0018
24.8762
26.8277
27.6546
25.6012
0.754829
10.3924
1.52426
10.5814
2.30908
10.8071
3.11013
11.0677
3.92794
11.3632
4.76276
11.6933
5.61457
12.0573
6.48313
12.4546
7.36794
12.8842
8.26823
13.3455
9.18298
13.8375
10.1109
14.3596
11.0504
14.9109
11.9997
15.4908
12.9565
16.0986
13.9185
16.7335
14.883
17.3946
15.8469
18.0814
16.807
18.7927
17.7596
19.5277
18.7011
20.2853
19.6274
21.0639
20.5345
21.8623
21.4183
22.6784
22.2747
23.5103
23.0997
24.3556
23.8897
25.2118
24.6414
26.076
26.9444
25.3516
0.738443
9.65398
1.49092
9.82893
2.25843
10.0395
3.04206
10.2841
3.84253
10.5628
4.6603
10.8755
5.49553
11.2221
6.34817
11.6019
7.21788
12.0145
8.10407
12.4593
9.00587
12.9357
9.92216
13.4433
10.8515
13.9816
11.7921
14.5502
12.742
15.1488
13.6985
15.7769
14.659
16.4341
15.6205
17.1199
16.5793
17.8339
17.5318
18.5753
18.4737
19.3433
19.4008
20.1369
20.3084
20.9547
21.1917
21.7951
22.0461
22.6559
22.8669
23.5348
23.6499
24.4288
24.3912
25.3347
26.2486
25.087
0.720329
8.93365
1.45412
9.09514
2.20257
9.29109
2.96703
9.51965
3.74844
9.78135
4.54744
10.0765
5.3644
10.4051
6.19946
10.7669
7.05246
11.1615
7.92302
11.5887
8.81044
12.0483
9.71375
12.54
10.6317
13.0637
11.5626
13.6193
12.5046
14.2068
13.4552
14.8263
14.4116
15.4777
15.3707
16.1608
16.3289
16.8757
17.282
17.6221
18.2257
18.3997
19.1549
19.2076
20.0646
20.0451
20.9492
20.9104
21.8033
21.8018
22.6215
22.7166
23.3986
23.6517
24.13
24.6034
25.5671
24.8115
0.700424
8.23323
1.41374
8.38183
2.14137
8.56346
2.88491
8.77611
3.64552
9.02074
4.42404
9.29802
5.22104
9.60814
6.03684
9.95109
6.8715
10.3269
7.72482
10.7354
8.59631
11.1768
9.48521
11.6511
10.3904
12.1585
11.3105
12.6992
12.2436
13.2736
13.1877
13.8823
14.1399
14.5255
15.0969
15.2038
16.055
15.9176
17.0099
16.6672
17.9567
17.4528
18.8901
18.2743
19.8041
19.1311
20.6924
20.0221
21.5486
20.9456
22.3663
21.8989
23.1392
22.8788
23.8617
23.8809
24.8999
24.5289
0.678661
7.55457
1.3697
7.69079
2.07473
7.85842
2.79561
8.05524
3.53369
8.28265
4.29002
8.5417
5.06534
8.83281
5.86018
9.15625
6.67479
9.51224
7.50918
9.90102
8.36309
10.3229
9.23595
10.7782
10.1269
11.2675
11.0349
11.7913
11.9582
12.3503
12.895
12.9455
13.8424
13.5782
14.7973
14.2489
15.7559
14.9589
16.7138
15.7093
17.6657
16.5009
18.6055
17.3344
19.5267
18.2099
20.4219
19.1269
21.2835
20.084
22.1037
21.0787
22.8749
22.1075
23.5903
23.1654
24.2463
24.244
0.654997
6.89957
1.32195
7.02384
2.00264
7.17773
2.69914
7.35874
3.413
7.56879
4.14542
7.80927
4.89736
8.08088
5.66949
8.38411
6.46229
8.71944
7.27595
9.08736
8.11045
9.48839
8.9655
9.92317
9.84055
10.3924
10.7347
10.8971
11.6467
11.4383
12.5748
12.0174
13.5168
12.6362
14.4695
13.2962
15.4292
13.9993
16.3913
14.7473
17.3501
15.5421
18.2992
16.3853
19.231
17.2781
20.1372
18.2208
21.0084
19.2127
21.8354
20.2518
22.6087
21.3342
23.3197
22.4544
23.6049
23.9612
0.62944
6.27013
1.27057
6.38272
1.92524
6.52306
2.59571
6.68827
3.2837
6.88081
3.99054
7.10243
4.71735
7.35407
5.46499
7.63648
6.23408
7.95035
7.02504
8.2964
7.83808
8.67535
8.67322
9.08803
9.5302
9.53544
10.4085
10.0188
11.3072
10.5395
12.2252
11.0994
13.1605
11.7008
14.1104
12.3464
15.071
13.0386
16.0381
13.7802
17.0058
14.5744
17.9671
15.424
18.9135
16.3316
19.8354
17.2989
20.7219
18.3262
21.5614
19.4124
22.342
20.5536
23.0529
21.7435
22.9732
23.6846
0.602084
5.66805
1.21578
5.76902
1.84287
5.89597
2.48577
6.04537
3.14629
6.22028
3.82591
6.42281
4.52585
6.65413
5.24711
6.91522
5.99046
7.207
6.75653
7.53033
7.54578
7.8861
8.35851
8.2753
9.19488
8.69907
10.0548
9.15887
10.9379
9.65647
11.8432
10.1941
12.7697
10.7744
13.7151
11.401
14.6761
12.0776
15.6484
12.8079
16.6262
13.5965
17.6024
14.4479
18.5676
15.3664
19.5108
16.3557
20.4191
17.4179
21.2783
18.5532
22.0735
19.7584
22.7903
21.0267
22.3472
23.4163
0.573134
5.09491
1.15799
5.18416
1.75611
5.29785
2.37
5.43149
3.00154
5.58874
3.65228
5.77206
4.32355
5.98287
5.01642
6.22234
5.73183
6.49159
6.47056
6.7916
7.23333
7.12333
8.02079
7.48784
8.83349
7.88637
9.67185
8.32051
10.536
8.79229
11.4258
9.3043
12.3405
9.85971
13.2789
10.4626
14.2383
11.1181
15.2149
11.8314
16.2032
12.6081
17.196
13.4551
18.1835
14.379
19.1533
15.3858
20.0906
16.4806
20.9781
17.6657
21.7968
18.9397
22.5278
20.2957
21.7206
23.1544
0.542914
4.552
1.09779
4.62929
1.6657
4.72993
2.24925
4.84794
2.85033
4.98766
3.47053
5.15186
4.11123
5.34217
4.77357
5.56
5.45861
5.80656
6.16729
6.08291
6.9006
6.39002
7.65954
6.72891
8.4451
7.10081
9.25824
7.50737
10.0997
7.95079
10.9701
8.43392
11.8694
8.96048
12.797
9.53498
13.7516
10.1635
14.7302
10.8528
15.7277
11.6106
16.7372
12.4456
17.7489
13.3672
18.7497
14.385
19.7227
15.5076
20.6472
16.7413
21.4996
18.0873
22.255
19.5403
21.0852
22.8904
0.511846
4.04015
1.03583
4.10531
1.57248
4.19329
2.12444
4.29598
2.69361
4.4185
3.28156
4.5639
3.88969
4.73404
4.51921
4.93047
5.17126
5.15451
5.84701
5.40717
6.54769
5.68934
7.27468
6.00192
8.02943
6.34605
8.81344
6.72336
9.62815
7.13609
10.4748
7.58726
11.3542
8.08105
12.2668
8.62242
13.2121
9.21818
14.1884
9.87654
15.1917
10.6073
16.2159
11.4214
17.2516
12.3315
18.2855
13.3512
19.2991
14.494
20.2686
15.7718
21.1651
17.1908
21.9558
18.7496
20.4314
22.6095
0.480395
3.55976
0.972826
3.61288
1.47728
3.68884
1.99651
3.77674
2.53234
3.88268
3.08631
4.00993
3.65983
4.16052
4.25417
4.33613
4.87062
4.53806
5.51056
4.76723
6.17552
5.02437
6.86727
5.31018
7.58769
5.62563
8.3388
5.97225
9.12263
6.35226
9.94113
6.76876
10.796
7.22618
11.6885
7.72995
12.6192
8.28746
13.5876
8.90815
14.5913
9.60351
15.6255
10.3872
16.682
11.275
17.748
12.2852
18.8046
13.4374
19.8249
14.7515
20.7745
16.2411
21.6112
17.913
19.7492
22.2935
0.448988
3.11077
0.909384
3.15248
1.38088
3.21734
1.86639
3.29123
2.36755
3.38151
2.88591
3.49158
3.42289
3.62354
3.97988
3.77914
4.55834
3.95959
5.15995
4.16562
5.78658
4.39775
6.44033
4.65642
7.1235
4.94246
7.83852
5.25723
8.58793
5.60285
9.37427
5.98242
10.2
6.40041
11.0672
6.8628
11.9774
7.3773
12.9311
7.9544
13.928
8.60665
14.9652
9.35003
16.0364
10.2038
17.1302
11.1914
18.2285
12.3392
19.3022
13.6778
20.3124
15.2309
21.2047
17.0207
19.0286
21.9252
0.417942
2.69283
0.846028
2.72439
1.28407
2.7793
1.7351
2.8402
2.20056
2.91605
2.68199
3.01015
3.1809
3.12463
3.69884
3.26119
4.23758
3.42086
4.79907
3.60412
5.38556
3.81127
5.99946
4.04252
6.64338
4.29854
7.32006
4.58055
8.03237
4.89054
8.78324
5.23156
9.57562
5.60802
10.4121
6.02629
11.2953
6.49416
12.2272
7.02251
13.209
7.62478
14.2405
8.31859
15.3179
9.12635
16.4321
10.0772
17.5673
11.204
18.6935
12.5515
19.7692
14.1553
20.7249
16.0649
18.2601
21.4935
0.387439
2.30539
0.783225
2.32861
1.1877
2.37483
1.60395
2.42395
2.03317
2.48683
2.47697
2.56635
2.937
2.66461
3.41507
2.78312
3.91325
2.92268
4.43387
3.08351
4.97945
3.26568
5.55266
3.46931
6.15628
3.69492
6.79319
3.94364
7.46634
4.21739
8.17881
4.51909
8.93387
4.85297
9.73489
5.22527
10.5852
5.64381
11.4884
6.11939
12.4472
6.66595
13.4633
7.30246
14.5367
8.053
15.6612
8.9527
16.8252
10.0399
17.9994
11.3773
19.1429
13.0118
20.1685
15.0393
17.4332
20.9954
0.357586
1.9478
0.721503
1.96469
1.09288
2.00345
1.47466
2.04217
1.86786
2.09362
2.2742
2.16001
2.69551
2.2433
3.13392
2.34471
3.59182
2.46477
4.07181
2.60352
4.5766
2.76088
5.10895
2.93696
5.6717
3.13217
6.26783
3.34751
6.90035
3.58486
7.57242
3.84702
8.28745
4.13794
9.04926
4.46345
9.86196
4.83111
10.73
5.25138
11.6579
5.738
12.6494
6.31094
13.7079
6.99456
14.8309
7.8297
16.0135
8.85733
17.2277
10.1631
18.4393
11.8002
19.5394
13.9392
16.5344
20.4382
0.328534
1.61927
0.661542
1.63168
1.00093
1.66406
1.34931
1.69379
1.70759
1.73535
2.07761
1.78999
2.46144
1.85947
2.86144
1.94471
3.2802
2.04601
3.72047
2.16326
4.18513
2.29623
4.67705
2.44504
5.19909
2.61013
5.75418
2.79242
6.34532
2.99373
6.97564
3.21669
7.64865
3.46493
8.36839
3.74372
9.13948
4.06002
9.96709
4.42377
10.8573
4.8478
11.8156
5.35262
12.849
5.96119
13.9586
6.72006
15.1483
7.66765
16.3924
8.91896
17.6713
10.5213
18.8514
12.7591
15.544
19.8418
0.300564
1.3187
0.604174
1.32807
0.913376
1.35486
1.23015
1.37702
1.55541
1.41009
1.89116
1.45424
2.2396
1.51103
2.6032
1.58111
2.98469
1.66451
3.38697
1.76098
3.81291
1.87028
4.26541
1.99255
4.74727
2.12826
5.26135
2.27835
5.81059
2.44449
6.39816
2.62912
7.02758
2.8355
7.70306
3.06824
8.42956
3.33352
9.21278
3.64055
10.0599
4.00068
10.9781
4.43445
11.9779
4.96136
13.0637
5.63421
14.25
6.48144
15.5146
7.65431
16.8619
9.17406
18.1363
11.4846
14.4276
19.2527
0.274076
1.04463
0.550255
1.05189
0.831587
1.07353
1.11909
1.08952
1.41389
1.11529
1.71805
1.15008
2.03382
1.19525
2.36378
1.25115
2.71069
1.31761
3.07732
1.39435
3.46646
1.48114
3.88089
1.57813
4.32335
1.6858
4.79663
1.80506
5.30368
1.93744
5.84771
2.0851
6.43232
2.25089
7.0618
2.43876
7.74138
2.65394
8.47725
2.90468
9.27752
3.20041
10.1507
3.56131
11.1107
4.00135
12.1652
4.57971
13.3401
5.30651
14.6209
6.3735
16.0404
7.75454
17.4474
10.0776
13.1199
18.7552
0.249498
0.795129
0.500484
0.800909
0.75656
0.817451
1.01743
0.828649
1.28467
0.848053
1.56029
0.874461
1.84658
0.908964
2.14606
0.951668
2.46133
1.00234
2.795
1.06067
3.14966
1.12648
3.52789
1.1999
3.9323
1.28139
4.36558
1.37178
4.83066
1.47235
5.33082
1.58494
5.86978
1.71193
6.45194
1.8566
7.08275
2.02313
7.76896
2.21847
8.5194
2.44998
9.3442
2.73651
10.2596
3.08591
11.2785
3.5608
12.4361
4.149
13.737
5.07254
15.2344
6.25722
16.8644
8.44752
11.5054
18.4789
0.227237
0.567893
0.455245
0.572901
0.688718
0.583978
0.925671
0.591697
1.16829
0.605433
1.41848
0.624272
1.67845
0.648992
1.95058
0.679545
2.23725
0.715668
2.54083
0.757088
2.86365
0.80366
3.20803
0.85551
3.57639
0.913034
3.97128
0.976896
4.39553
1.0481
4.8524
1.12807
5.34568
1.21864
5.87993
1.32235
6.46076
1.4423
7.09542
1.58382
7.79316
1.75223
8.56632
1.96335
9.4319
2.22033
10.4114
2.5813
11.5421
3.01835
12.867
3.74756
14.4436
4.68069
16.4468
6.44429
9.40554
18.5467
0.207635
0.360258
0.414503
0.366032
0.627881
0.3706
0.843438
0.37614
1.0642
0.384675
1.29181
0.396657
1.52839
0.412416
1.77609
0.43184
2.03707
0.454693
2.31339
0.480766
2.60709
0.509961
2.92022
0.542377
3.25495
0.578306
3.61363
0.618213
3.99895
0.66279
4.41403
0.712987
4.86263
0.770043
5.34935
0.835632
5.87985
0.911802
6.46154
1.00212
7.10379
1.10998
7.82058
1.24657
8.62896
1.41194
9.55844
1.65183
10.6445
1.93226
11.9625
2.42959
13.6043
3.03888
15.9991
4.0495
6.72861
18.676
0.19063
0.169627
0.37779
0.178873
0.573412
0.174977
0.769717
0.179835
0.970977
0.183415
1.17846
0.189173
1.39417
0.196704
1.62005
0.205962
1.85795
0.216793
2.10964
0.229082
2.37682
0.242778
2.66126
0.257937
2.96485
0.274715
3.28971
0.293351
3.63831
0.314191
4.01359
0.337709
4.41911
0.36452
4.85932
0.395427
5.3397
0.431421
5.86755
0.474266
6.45205
0.525483
7.10751
0.591116
7.85041
0.66904
8.71444
0.787793
9.73069
0.916015
10.9887
1.17157
12.5813
1.44634
15.0491
1.58162
3.70623
18.0715
0.169627
0.348501
0.523478
0.703313
0.886728
1.0759
1.2726
1.47857
1.69536
1.92444
2.16722
2.42516
2.69987
2.99322
3.30741
3.64512
4.00964
4.40507
4.83649
5.31076
5.83624
6.42736
7.0964
7.88419
8.8002
9.97177
11.4181
12.9997
16.706
1.19435
54.125
1.20643
54.1282
1.22115
54.1255
1.24034
54.121
1.25572
54.1249
1.26152
54.1344
1.26514
54.1366
1.27634
54.129
1.29457
54.122
1.31147
54.1233
1.31815
54.1336
1.31846
54.1399
1.32446
54.1342
1.34213
54.1226
1.36482
54.1175
1.38039
54.1247
1.38285
54.1378
1.3799
54.1432
1.37675
54.1434
1.3742
54.1428
1.37045
54.144
1.36569
54.145
1.3604
54.1455
1.35399
54.1466
1.34646
54.1478
1.33946
54.1472
1.3372
54.1425
1.34107
54.1364
1.3473
54.134
1.35203
54.1355
1.35239
54.1399
1.34986
54.1428
1.34595
54.1441
1.34116
54.145
1.33584
54.1456
1.3303
54.1458
1.3246
54.1459
1.31857
54.1463
1.3124
54.1464
1.30654
54.1461
1.30128
54.1455
1.29701
54.1445
1.29388
54.1434
1.29134
54.1428
1.28864
54.1429
1.2852
54.1437
1.28104
54.1444
1.27584
54.1454
1.27019
54.1459
1.26383
54.1466
1.2571
54.147
1.24985
54.1475
1.24231
54.1478
1.23447
54.1481
1.2262
54.1485
1.21752
54.1489
1.20887
54.1489
1.19969
54.1494
1.19048
54.1494
1.18073
54.15
1.17078
54.1502
1.1605
54.1505
1.14961
54.1511
1.13877
54.1511
1.12728
54.1517
1.11575
54.1518
1.10364
54.1523
1.09178
54.1521
1.07887
54.1531
1.06647
54.1526
1.05361
54.1531
1.03968
54.1542
1.02775
54.1522
1.01298
54.155
1.00003
54.1532
0.985823
54.1544
0.971968
54.1541
0.958344
54.1539
0.943559
54.155
0.930494
54.1533
0.915375
54.1554
0.901743
54.1539
0.885604
54.1564
0.868264
54.1576
0.850542
54.158
0.832695
54.1581
0.815619
54.1573
0.797261
54.1586
0.779356
54.1581
0.760112
54.1595
0.74042
54.1599
0.72035
54.1603
0.699855
54.1607
0.679172
54.1609
0.658453
54.161
0.637406
54.1613
0.616825
54.1608
0.595738
54.1613
0.574944
54.161
0.554088
54.1611
0.533272
54.161
0.512574
54.1609
0.491949
54.1609
0.471572
54.1606
0.451216
54.1606
0.431207
54.1602
0.411085
54.1604
0.39151
54.1598
0.372015
54.1597
0.352936
54.1593
0.334086
54.1591
0.315892
54.1584
0.297936
54.1582
0.280666
54.1575
0.263779
54.1571
0.247694
54.1563
0.232205
54.1557
0.217343
54.1551
0.202562
54.155
0.187544