/*--------------------------------*- C++ -*----------------------------------*\
| =========                 |                                                 |
| \\      /  F ield         | OpenFOAM: The Open Source CFD Toolbox           |
|  \\    /   O peration     | Version:  5.x                                   |
|   \\  /    A nd           | Web:      www.OpenFOAM.org                      |
|    \\/     M anipulation  |                                                 |
\*---------------------------------------------------------------------------*/
/*   Windows 32 and 64 bit porting by blueCAPE: http://www.bluecape.com.pt   *\
|  Based on Windows porting (2.0.x v4) by Symscape: http://www.symscape.com   |
\*---------------------------------------------------------------------------*/
FoamFile
{
    version     2.0;
    format      ascii;
    class       volVectorField;
    location    "270";
    object      U;
}
// * * * * * * * * * * * * * * * * * * * * * * * * * * * * * * * * * * * * * //

dimensions      [0 1 -1 0 0 0 0];

internalField   nonuniform List<vector> 
43900
(
(1.16163 -0.000739159 -1.65105e-027)
(1.16714 0.00218039 -4.42458e-027)
(1.16973 0.000361473 1.42843e-030)
(1.16838 0.0018302 2.80326e-030)
(1.16976 0.000801488 3.66248e-030)
(1.16993 0.00198753 3.64893e-030)
(1.17015 0.00119681 5.90693e-027)
(1.17053 0.00186132 -1.17947e-026)
(1.17044 0.00165939 9.69079e-030)
(1.17001 0.00178001 -1.17653e-026)
(1.16971 0.00191886 1.17874e-026)
(1.16985 0.0019287 1.15673e-029)
(1.16995 0.00199751 -1.17301e-026)
(1.17001 0.00206303 2.49619e-029)
(1.1701 0.00212104 2.56206e-029)
(1.16995 0.00217083 2.62901e-029)
(1.16995 0.00221499 -2.33537e-026)
(1.16998 0.0022532 5.50053e-029)
(1.16992 0.00229911 2.33773e-026)
(1.17001 0.0023261 2.85647e-029)
(1.17 0.00237232 2.90376e-029)
(1.16994 0.0024109 2.94898e-029)
(1.17002 0.00242977 2.9916e-029)
(1.16999 0.00248232 3.02889e-029)
(1.16996 0.00250196 3.06776e-029)
(1.17005 0.00252872 -2.30808e-026)
(1.17 0.00257518 6.26962e-029)
(1.16998 0.00259088 6.33851e-029)
(1.17005 0.00261595 9.21306e-026)
(1.15869 0.0114541 0)
(1.16551 -0.00496815 0)
(1.17143 0.00905991 0)
(1.16651 -0.000168379 0)
(1.16841 0.00619353 0)
(1.16801 0.00276377 0)
(1.16835 0.00491037 0)
(1.16778 0.00468659 0)
(1.16824 0.00464313 0)
(1.1688 0.0054152 0)
(1.16902 0.00530952 0)
(1.16882 0.00554251 0)
(1.16884 0.00581295 0)
(1.16892 0.00598926 0)
(1.16879 0.00614158 0)
(1.16904 0.00630969 0)
(1.16924 0.00645653 0)
(1.16917 0.00662308 0)
(1.16928 0.00674856 0)
(1.16921 0.00688844 0)
(1.16914 0.00700924 0)
(1.16931 0.00709803 0)
(1.16927 0.00723517 0)
(1.16925 0.00730286 0)
(1.16937 0.00739811 0)
(1.16926 0.00751741 0)
(1.16928 0.0075503 0)
(1.16943 0.00764865 0)
(1.16935 0.00774573 0)
(1.10203 0.0321083 0)
(1.14472 -0.0175652 0)
(1.16305 0.0287911 0)
(1.16321 -0.00369451 0)
(1.16627 0.0208662 0)
(1.16424 0.00398593 0)
(1.16563 0.0150025 0)
(1.16629 0.00834565 0)
(1.16654 0.0118359 0)
(1.16668 0.0105493 0)
(1.16698 0.0107418 0)
(1.16735 0.0110683 0)
(1.16737 0.0110427 0)
(1.16734 0.0110852 0)
(1.16765 0.0112357 0)
(1.16772 0.0113025 0)
(1.16745 0.0114466 0)
(1.16757 0.0115152 0)
(1.16772 0.0116325 0)
(1.16778 0.0117606 0)
(1.16803 0.0118243 0)
(1.16799 0.0119737 0)
(1.16792 0.0120518 0)
(1.16812 0.0121382 0)
(1.16808 0.0122923 0)
(1.16817 0.0123123 0)
(1.16834 0.0124574 0)
(1.1682 0.0125756 0)
(1.16819 0.0126008 1.62029e-027)
(1.0408 0.0200011 0)
(1.0867 -0.00674753 0)
(1.12964 0.020115 0)
(1.15562 0.00815297 0)
(1.16327 0.0222392 0)
(1.16596 0.0106892 0)
(1.16476 0.0205816 0)
(1.16346 0.0135905 0)
(1.16451 0.0181219 0)
(1.16483 0.0157159 0)
(1.16506 0.0168565 0)
(1.16523 0.0166097 0)
(1.16547 0.0166435 0)
(1.1657 0.0167693 0)
(1.16559 0.0167545 0)
(1.16559 0.0168557 0)
(1.16609 0.0168765 0)
(1.16634 0.0169636 0)
(1.16623 0.017087 0)
(1.16634 0.0170794 0)
(1.1663 0.0172433 0)
(1.1664 0.0172896 0)
(1.16675 0.0173817 0)
(1.16673 0.0175635 0)
(1.16677 0.0175743 0)
(1.16685 0.0177624 0)
(1.16673 0.0178974 0)
(1.16686 0.0179091 0)
(1.16714 0.0181401 1.72792e-027)
(1.00363 0.0101929 3.46165e-027)
(1.03913 -0.000915135 0)
(1.07599 0.0108206 0)
(1.11426 0.0128859 0)
(1.14455 0.0183055 0)
(1.16011 0.0173288 0)
(1.16345 0.0228181 0)
(1.16442 0.0185271 0)
(1.16343 0.0216683 0)
(1.16351 0.0203131 0)
(1.16362 0.0208221 0)
(1.16364 0.0211541 0)
(1.16361 0.0211543 0)
(1.16376 0.0212208 0)
(1.16395 0.0214735 0)
(1.16424 0.0215121 0)
(1.16413 0.021683 0)
(1.16394 0.0218852 0)
(1.16434 0.0218909 0)
(1.1645 0.0221718 0)
(1.16468 0.0222253 0)
(1.16481 0.022374 0)
(1.16461 0.0226111 0)
(1.16467 0.0226273 0)
(1.16487 0.0229041 0)
(1.16489 0.0230409 0)
(1.16517 0.0230761 0)
(1.16536 0.0233879 0)
(1.16516 0.0234802 -7.26795e-027)
(0.97631 0.00683861 -3.61273e-027)
(1.0062 0.000663374 0)
(1.03744 0.00758514 0)
(1.06985 0.0110206 0)
(1.10231 0.0148856 0)
(1.13262 0.0181806 0)
(1.15297 0.0221251 0)
(1.16118 0.0222192 0)
(1.16233 0.0245127 0)
(1.16187 0.02294 0)
(1.16171 0.0243211 0)
(1.1619 0.0241492 0)
(1.16193 0.0244088 0)
(1.16184 0.0247162 0)
(1.16217 0.0248073 0)
(1.1621 0.0251761 0)
(1.16212 0.0253851 0)
(1.16259 0.0255272 0)
(1.16245 0.0258894 0)
(1.16233 0.026007 0)
(1.1624 0.0262655 0)
(1.16232 0.0266165 0)
(1.16251 0.0266637 0)
(1.16262 0.027027 0)
(1.1626 0.0271765 0)
(1.16286 0.0272838 0)
(1.16286 0.0277131 0)
(1.16263 0.0278257 0)
(1.16284 0.0280218 3.84962e-027)
(0.953298 0.00524644 0)
(0.979626 0.00141106 0)
(1.00721 0.00640524 0)
(1.03586 0.00960885 0)
(1.06498 0.012922 0)
(1.09391 0.0165326 0)
(1.12195 0.0202782 0)
(1.14523 0.0231442 0)
(1.1567 0.0257959 0)
(1.15971 0.0263155 0)
(1.15952 0.0262375 0)
(1.15924 0.0271481 0)
(1.15944 0.0272186 0)
(1.15973 0.0276368 0)
(1.15937 0.0280958 0)
(1.15956 0.0282931 0)
(1.15998 0.0286798 0)
(1.15963 0.0291912 0)
(1.15961 0.0293039 0)
(1.15984 0.0297839 0)
(1.15972 0.0301696 0)
(1.15993 0.0302564 0)
(1.16017 0.0307768 0)
(1.16043 0.0310258 0)
(1.16051 0.0313415 0)
(1.16012 0.0318727 0)
(1.15999 0.0319864 0)
(1.16049 0.0322744 0)
(1.16104 0.0326151 0)
(0.932324 0.00444317 0)
(0.956313 0.00185909 0)
(0.981459 0.00597492 0)
(1.00759 0.00900732 0)
(1.03433 0.0120334 0)
(1.06123 0.0153105 0)
(1.08781 0.0188381 0)
(1.11326 0.0223845 0)
(1.13645 0.0256844 0)
(1.15096 0.0280356 0)
(1.15592 0.029819 0)
(1.1563 0.0295009 0)
(1.15605 0.0303418 0)
(1.15612 0.0306959 0)
(1.15653 0.0311589 0)
(1.15631 0.0316875 0)
(1.15594 0.0321136 0)
(1.15641 0.0323866 0)
(1.15676 0.0330933 0)
(1.15662 0.0334981 0)
(1.15704 0.0337125 0)
(1.15722 0.0345214 0)
(1.15682 0.0348334 0)
(1.15618 0.0351937 0)
(1.15636 0.0357681 0)
(1.15725 0.035897 0)
(1.15827 0.0363601 0)
(1.15829 0.0369231 0)
(1.1574 0.0373265 0)
(0.91257 0.00386126 0)
(0.934794 0.00228111 0)
(0.958091 0.00588093 0)
(0.982315 0.00884994 0)
(1.00718 0.0117769 0)
(1.03238 0.0148772 0)
(1.05754 0.0181843 0)
(1.08224 0.0216436 0)
(1.10595 0.0251588 0)
(1.12797 0.0284059 0)
(1.14453 0.0311825 0)
(1.15127 0.0331963 0)
(1.15192 0.0331708 0)
(1.15169 0.0341115 0)
(1.15162 0.0345809 0)
(1.15214 0.0351847 0)
(1.15249 0.0357948 0)
(1.15184 0.0363817 0)
(1.15171 0.0367872 0)
(1.1523 0.0372614 0)
(1.1521 0.0382126 0)
(1.1518 0.0384668 0)
(1.15239 0.0388783 0)
(1.15399 0.0396995 0)
(1.15425 0.0400817 0)
(1.15398 0.0405919 0)
(1.15267 0.0414033 0)
(1.15243 0.0416334 0)
(1.15357 0.0421133 0)
(0.893314 0.00333207 0)
(0.914234 0.00270436 0)
(0.936159 0.00598499 0)
(0.958948 0.00894418 0)
(0.982373 0.0118535 0)
(1.00618 0.0148882 0)
(1.03012 0.0180909 0)
(1.05387 0.0214357 0)
(1.07712 0.024887 0)
(1.09943 0.0283765 0)
(1.12019 0.0316942 0)
(1.13784 0.0346275 0)
(1.14562 0.0370554 0)
(1.14632 0.0372752 0)
(1.14632 0.0384742 0)
(1.14594 0.0389095 0)
(1.14623 0.039832 0)
(1.14724 0.0403879 0)
(1.14755 0.0412487 0)
(1.14686 0.0421557 0)
(1.14717 0.0423334 0)
(1.1485 0.043221 0)
(1.14855 0.0442506 0)
(1.14728 0.0445564 0)
(1.14689 0.0453725 0)
(1.14734 0.0461947 0)
(1.14936 0.0464422 0)
(1.15041 0.0474928 0)
(1.15058 0.0479864 -1.01404e-026)
(0.874333 0.00318668 0)
(0.894174 0.00300327 0)
(0.915005 0.00623341 0)
(0.936665 0.00924945 0)
(0.958958 0.0122067 0)
(0.981668 0.0152615 0)
(1.00457 0.0184595 0)
(1.02744 0.021783 0)
(1.05001 0.0252079 0)
(1.072 0.0287093 0)
(1.093 0.0322365 0)
(1.1124 0.035633 0)
(1.12985 0.0387356 0)
(1.1389 0.0414105 0)
(1.13951 0.0419607 0)
(1.13993 0.0432839 0)
(1.13963 0.0438787 0)
(1.13964 0.044927 0)
(1.13984 0.0458551 0)
(1.14102 0.0464578 0)
(1.14122 0.0478454 0)
(1.14018 0.0485933 0)
(1.1402 0.049015 0)
(1.14203 0.0501147 0)
(1.14343 0.0509963 0)
(1.14386 0.0515385 0)
(1.14288 0.0524347 0)
(1.14218 0.0531824 0)
(1.14234 0.0538017 1.07132e-026)
(0.855425 0.00313158 0)
(0.874347 0.00329702 0)
(0.894236 0.0065675 0)
(0.914946 0.0096885 0)
(0.936296 0.0127459 0)
(0.958097 0.0158836 0)
(0.98015 0.0191472 0)
(1.00225 0.022523 0)
(1.0242 0.0259903 0)
(1.04577 0.0295295 0)
(1.06669 0.0331157 0)
(1.08662 0.036698 0)
(1.1051 0.0401475 0)
(1.12185 0.0433607 0)
(1.13147 0.046208 0)
(1.13182 0.0470464 0)
(1.13305 0.0484017 0)
(1.13271 0.0491999 0)
(1.13294 0.0502831 0)
(1.1329 0.0515819 0)
(1.13356 0.0520598 0)
(1.13533 0.0532049 0)
(1.13626 0.0545652 0)
(1.13541 0.0552505 0)
(1.13429 0.0560984 0)
(1.13447 0.0572661 0)
(1.13664 0.0582099 0)
(1.13858 0.0592251 0)
(1.13885 0.0601694 1.17423e-026)
(0.836425 0.00304455 0)
(0.854557 0.0036407 0)
(0.87364 0.00698566 0)
(0.893539 0.0102464 0)
(0.914087 0.013449 0)
(0.935115 0.0167213 0)
(0.956446 0.0201074 0)
(0.977901 0.0235963 0)
(0.999299 0.0271697 0)
(1.02046 0.0308112 0)
(1.04117 0.0345016 0)
(1.06121 0.0382148 0)
(1.08027 0.0419012 0)
(1.09792 0.0454399 0)
(1.11401 0.0487838 0)
(1.12361 0.0517585 0)
(1.12369 0.0528422 0)
(1.12514 0.0543027 0)
(1.1256 0.055274 0)
(1.12635 0.0564105 0)
(1.1269 0.0579579 0)
(1.12629 0.058944 0)
(1.12588 0.0600436 0)
(1.12744 0.0612666 0)
(1.13006 0.0626512 0)
(1.13081 0.0637173 0)
(1.12984 0.064433 0)
(1.12891 0.0656004 0)
(1.12951 0.0665204 -1.24059e-026)
(0.817199 0.00303212 0)
(0.834604 0.00401724 0)
(0.852952 0.00750368 0)
(0.872126 0.0109523 0)
(0.891967 0.0143499 0)
(0.912311 0.0178111 0)
(0.933002 0.0213791 0)
(0.953879 0.0250449 0)
(0.974779 0.0287926 0)
(0.995542 0.0326081 0)
(1.016 0.0364758 0)
(1.03598 0.0403761 0)
(1.05526 0.0442824 0)
(1.07358 0.0481447 0)
(1.09054 0.051844 0)
(1.10605 0.0553707 0)
(1.11533 0.0585253 0)
(1.11528 0.0597798 0)
(1.11681 0.0613046 0)
(1.11795 0.062905 0)
(1.11722 0.0641201 0)
(1.11839 0.0655366 0)
(1.12049 0.0671434 0)
(1.12036 0.0680156 0)
(1.11894 0.0694207 0)
(1.11975 0.0708352 0)
(1.12296 0.0718717 0)
(1.12505 0.0741213 0)
(1.12572 0.074799 -1.36522e-026)
(0.797588 0.00307089 0)
(0.814325 0.00441308 0)
(0.831999 0.00809009 0)
(0.850498 0.0117577 0)
(0.869692 0.0153819 0)
(0.88942 0.0190667 0)
(0.909527 0.0228518 0)
(0.929869 0.0267308 0)
(0.9503 0.030689 0)
(0.970675 0.0347139 0)
(0.99085 0.0387921 0)
(1.01067 0.0429074 0)
(1.02999 0.0470394 0)
(1.04859 0.0511596 0)
(1.06625 0.0552139 0)
(1.0826 0.059085 0)
(1.0975 0.0628527 0)
(1.10623 0.0659921 0)
(1.106 0.0674968 0)
(1.10649 0.0691193 0)
(1.10866 0.0709211 0)
(1.10943 0.0721717 0)
(1.1091 0.0736612 0)
(1.11085 0.0751651 0)
(1.11374 0.0768922 0)
(1.11396 0.0780717 0)
(1.11231 0.0791203 0)
(1.11233 0.0801286 0)
(1.11372 0.0815692 1.44456e-026)
(0.777588 0.00315151 0)
(0.793701 0.00483209 0)
(0.810755 0.00874128 0)
(0.828637 0.0126595 0)
(0.847228 0.0165376 0)
(0.866394 0.0204756 0)
(0.885979 0.0245106 0)
(0.905841 0.028634 0)
(0.925849 0.0328333 0)
(0.94587 0.0370965 0)
(0.965774 0.0414114 0)
(0.985431 0.0457638 0)
(1.00471 0.0501361 0)
(1.02345 0.054507 0)
(1.04149 0.0588452 0)
(1.0586 0.0630904 0)
(1.07448 0.0671497 0)
(1.08885 0.0711212 0)
(1.09609 0.0742256 0)
(1.09691 0.0761396 0)
(1.09777 0.0772799 0)
(1.09938 0.0794999 0)
(1.1015 0.0814637 0)
(1.10071 0.0824642 0)
(1.10048 0.0844406 0)
(1.10238 0.086292 0)
(1.10645 0.0879088 0)
(1.10881 0.0904628 0)
(1.10813 0.090827 0)
(0.757118 0.00327409 0)
(0.772636 0.00529291 0)
(0.789104 0.00948049 0)
(0.806415 0.0136924 0)
(0.824447 0.0178658 0)
(0.843081 0.0220984 0)
(0.862187 0.0264289 0)
(0.881616 0.0308471 0)
(0.901239 0.0353388 0)
(0.920935 0.0398939 0)
(0.940586 0.0445008 0)
(0.960075 0.049147 0)
(0.979286 0.0538174 0)
(0.998094 0.0584943 0)
(1.01636 0.0631559 0)
(1.03393 0.0677691 0)
(1.05061 0.0722708 0)
(1.06615 0.0765993 0)
(1.07997 0.0808206 0)
(1.08665 0.0838307 0)
(1.08793 0.0864428 0)
(1.08916 0.0875583 0)
(1.08899 0.0902437 0)
(1.09159 0.091892 0)
(1.09421 0.094395 0)
(1.09379 0.0954822 0)
(1.09374 0.096714 0)
(1.09509 0.0988445 0)
(1.09871 0.100713 0)
(0.736105 0.003428 0)
(0.751049 0.00579045 0)
(0.766953 0.0102943 0)
(0.783717 0.0148344 0)
(0.801226 0.0193395 0)
(0.819357 0.0239026 0)
(0.837994 0.0285637 0)
(0.857009 0.0333149 0)
(0.876269 0.0381402 0)
(0.895656 0.0430283 0)
(0.91506 0.047969 0)
(0.934371 0.0529498 0)
(0.953486 0.0579572 0)
(0.972297 0.0629754 0)
(0.990692 0.0679864 0)
(1.00854 0.0729675 0)
(1.02571 0.0778824 0)
(1.04203 0.0826635 0)
(1.05737 0.087296 0)
(1.07077 0.0916302 0)
(1.07627 0.0948837 0)
(1.07706 0.0974537 0)
(1.07974 0.0992098 0)
(1.07952 0.101034 0)
(1.08136 0.103137 0)
(1.085 0.105187 0)
(1.08772 0.107736 0)
(1.08841 0.109732 0)
(1.08752 0.11 0)
(0.714548 0.00360791 4.15941e-026)
(0.728933 0.00631974 0)
(0.744291 0.0111712 0)
(0.760527 0.0160685 0)
(0.777532 0.0209337 0)
(0.79519 0.0258585 0)
(0.813383 0.0308806 0)
(0.831998 0.0359943 0)
(0.850913 0.0411838 0)
(0.870007 0.0464356 0)
(0.889177 0.0517405 0)
(0.908321 0.0570859 0)
(0.927339 0.0624582 0)
(0.946136 0.0678424 0)
(0.964613 0.0732217 0)
(0.982666 0.0785773 0)
(1.00018 0.0838851 0)
(1.01704 0.0891058 0)
(1.03312 0.0941722 0)
(1.0484 0.0991046 0)
(1.06097 0.103746 0)
(1.06597 0.106864 0)
(1.0672 0.109503 0)
(1.071 0.111412 0)
(1.07234 0.11406 0)
(1.07218 0.115752 0)
(1.07455 0.117378 0)
(1.07818 0.120539 0)
(1.08269 0.124045 0)
(0.692457 0.00381235 1.3884e-027)
(0.706291 0.00687895 0)
(0.721114 0.0121067 0)
(0.736836 0.0173884 0)
(0.753352 0.0226406 0)
(0.770552 0.0279553 0)
(0.788322 0.0333692 0)
(0.806552 0.0388757 0)
(0.825135 0.0444611 0)
(0.843952 0.0501115 0)
(0.862896 0.0558138 0)
(0.881875 0.0615585 0)
(0.900797 0.0673318 0)
(0.919572 0.0731193 0)
(0.93811 0.0789052 0)
(0.95632 0.0846722 0)
(0.974107 0.0904015 0)
(0.991366 0.0960699 0)
(1.00798 0.101639 0)
(1.02385 0.107018 0)
(1.03909 0.112333 0)
(1.05192 0.117338 0)
(1.05637 0.120337 0)
(1.05773 0.122885 0)
(1.06085 0.12535 0)
(1.06449 0.128752 0)
(1.06476 0.130958 0)
(1.06462 0.132311 0)
(1.0675 0.1338 0)
(0.669865 0.00403761 -4.8045e-026)
(0.683156 0.00746064 0)
(0.697453 0.0130875 0)
(0.712668 0.0187749 0)
(0.728705 0.024435 0)
(0.745458 0.0301608 0)
(0.762817 0.0359898 0)
(0.780672 0.0419123 0)
(0.798926 0.0479164 0)
(0.817473 0.0539889 0)
(0.836204 0.0601159 0)
(0.855023 0.0662843 0)
(0.873845 0.0724818 0)
(0.892584 0.0786939 0)
(0.911159 0.0849052 0)
(0.929488 0.0910988 0)
(0.947485 0.0972566 0)
(0.965062 0.103359 0)
(0.982121 0.10938 0)
(0.998566 0.115275 0)
(1.0143 0.120929 0)
(1.0303 0.126522 0)
(1.04188 0.132079 0)
(1.04637 0.134263 0)
(1.04741 0.138204 0)
(1.04993 0.139466 0)
(1.05456 0.142596 0)
(1.05845 0.146722 0)
(1.05822 0.148342 0)
(0.646836 0.00428303 0)
(0.659588 0.00806121 0)
(0.673363 0.014107 0)
(0.688079 0.0202187 0)
(0.703644 0.0263048 0)
(0.719957 0.0324603 0)
(0.736915 0.0387233 0)
(0.754411 0.0450842 0)
(0.772343 0.0515266 0)
(0.790619 0.0580402 0)
(0.809141 0.0646117 0)
(0.827809 0.0712252 0)
(0.846542 0.0778686 0)
(0.865256 0.0845262 0)
(0.883874 0.0911823 0)
(0.902319 0.09782 0)
(0.920514 0.104421 0)
(0.938383 0.110966 0)
(0.955845 0.117432 0)
(0.972825 0.123793 0)
(0.98928 0.129987 0)
(1.00538 0.136016 0)
(1.02098 0.141796 0)
(1.03248 0.147901 0)
(1.03583 0.150061 0)
(1.03857 0.154243 0)
(1.04067 0.156412 0)
(1.04441 0.158117 0)
(1.05056 0.162675 0)
(0.62343 0.00454835 -5.88312e-026)
(0.635647 0.00867849 0)
(0.648905 0.0151615 0)
(0.663127 0.0217146 0)
(0.678224 0.0282432 0)
(0.694103 0.0348461 0)
(0.710663 0.0415619 0)
(0.727805 0.0483808 0)
(0.745429 0.0552854 0)
(0.763443 0.0622635 0)
(0.781757 0.0693025 0)
(0.800278 0.0763879 0)
(0.818918 0.0835028 0)
(0.837603 0.0906342 0)
(0.856258 0.0977653 0)
(0.87481 0.104879 0)
(0.893188 0.111958 0)
(0.911323 0.118984 0)
(0.929143 0.125936 0)
(0.946581 0.132794 0)
(0.963587 0.139529 0)
(0.980166 0.14611 0)
(0.996418 0.152484 0)
(1.01212 0.158681 0)
(1.02318 0.164809 0)
(1.02658 0.16678 0)
(1.03064 0.170123 0)
(1.03203 0.174732 0)
(1.03574 0.174858 5.51526e-026)
(0.599721 0.00483169 -1.7196e-027)
(0.611406 0.00930872 0)
(0.62415 0.0162444 0)
(0.637878 0.0232531 0)
(0.65251 0.0302381 0)
(0.667955 0.0373027 0)
(0.684119 0.0444868 0)
(0.700907 0.0517797 0)
(0.718222 0.0591642 0)
(0.735972 0.0666248 0)
(0.754075 0.0741508 0)
(0.772447 0.0817273 0)
(0.790998 0.0893364 0)
(0.809654 0.0969629 0)
(0.828342 0.10459 0)
(0.846992 0.1122 0)
(0.865537 0.119775 0)
(0.883911 0.127295 0)
(0.902047 0.134741 0)
(0.919884 0.142092 0)
(0.937364 0.149327 0)
(0.954447 0.15642 0)
(0.971135 0.163297 0)
(0.987936 0.170044 0)
(1.0037 0.176749 0)
(1.01402 0.181657 0)
(1.01869 0.185589 0)
(1.02289 0.187033 0)
(1.02579 0.193468 1.0632e-027)
(0.575783 0.00513274 6.78481e-026)
(0.586939 0.00995122 0)
(0.59917 0.0173542 0)
(0.612408 0.0248319 0)
(0.626575 0.0322862 0)
(0.641586 0.0398262 0)
(0.657354 0.0474935 0)
(0.673786 0.0552767 0)
(0.690792 0.0631577 0)
(0.708283 0.0711212 0)
(0.726174 0.0791532 0)
(0.744387 0.0872392 0)
(0.762842 0.0953633 0)
(0.781461 0.103506 0)
(0.800176 0.111653 0)
(0.818919 0.119784 0)
(0.837626 0.12788 0)
(0.856231 0.135923 0)
(0.874674 0.143891 0)
(0.892894 0.151764 0)
(0.910833 0.159522 0)
(0.928444 0.167143 0)
(0.945703 0.174593 0)
(0.962704 0.181764 0)
(0.980717 0.189329 0)
(0.99518 0.195529 0)
(1.00602 0.200933 0)
(1.00979 0.205629 0)
(1.01645 0.206513 -6.31293e-026)
(0.551688 0.00544939 0)
(0.562318 0.0106042 0)
(0.574039 0.0184876 0)
(0.586786 0.026446 0)
(0.600487 0.0343809 0)
(0.615063 0.0424085 0)
(0.63043 0.0505722 0)
(0.646502 0.0588603 0)
(0.663193 0.0672539 0)
(0.680417 0.0757376 0)
(0.698092 0.0842953 0)
(0.716144 0.0929138 0)
(0.734498 0.101575 0)
(0.753074 0.11026 0)
(0.771807 0.118951 0)
(0.790631 0.127628 0)
(0.809483 0.136272 0)
(0.828303 0.144864 0)
(0.84703 0.153382 0)
(0.865607 0.161805 0)
(0.883977 0.170113 0)
(0.90209 0.178285 0)
(0.919911 0.186297 0)
(0.937462 0.194059 0)
(0.955242 0.201778 0)
(0.973548 0.209439 0)
(0.988291 0.216118 0)
(0.996691 0.220499 0)
(1.0011 0.225792 0)
(0.527508 0.00578082 0)
(0.537615 0.0112682 0)
(0.548828 0.0196452 0)
(0.561085 0.0280957 0)
(0.574319 0.0365225 0)
(0.588456 0.0450499 0)
(0.603417 0.0537236 0)
(0.619123 0.0625309 0)
(0.63549 0.0714528 0)
(0.652437 0.080473 0)
(0.669887 0.0895758 0)
(0.687765 0.0987448 0)
(0.706001 0.107963 0)
(0.724524 0.117212 0)
(0.743266 0.12647 0)
(0.762162 0.135718 0)
(0.781149 0.144935 0)
(0.800169 0.154099 0)
(0.819164 0.163189 0)
(0.838077 0.172183 0)
(0.856853 0.181058 0)
(0.87544 0.189794 0)
(0.893798 0.19837 0)
(0.911919 0.206739 0)
(0.929978 0.214928 0)
(0.948536 0.222887 0)
(0.967614 0.231403 0)
(0.9813 0.237373 0)
(0.988571 0.241469 7.43364e-026)
(0.503308 0.00612509 0)
(0.512898 0.011943 0)
(0.523605 0.0208258 0)
(0.535371 0.0297792 0)
(0.548135 0.0387086 0)
(0.561828 0.0477475 0)
(0.576378 0.0569438 0)
(0.591709 0.0662845 0)
(0.607743 0.07575 0)
(0.624405 0.0853237 0)
(0.64162 0.0949897 0)
(0.659315 0.104729 0)
(0.677423 0.114525 0)
(0.695876 0.124358 0)
(0.714609 0.134205 0)
(0.733562 0.144048 0)
(0.752673 0.153862 0)
(0.771884 0.163626 0)
(0.791136 0.173315 0)
(0.810374 0.182906 0)
(0.829544 0.192376 0)
(0.848595 0.201701 0)
(0.867479 0.210861 0)
(0.886168 0.219829 0)
(0.90471 0.228601 0)
(0.923369 0.237105 0)
(0.942795 0.245693 0)
(0.963047 0.254338 0)
(0.974595 0.260066 9.99456e-028)
(0.479152 0.00648008 0)
(0.488228 0.0126282 0)
(0.498433 0.0220285 0)
(0.509709 0.0314944 0)
(0.522001 0.040936 0)
(0.535245 0.050497 0)
(0.549376 0.0602277 0)
(0.564322 0.0701146 0)
(0.580011 0.0801378 0)
(0.596373 0.0902807 0)
(0.613338 0.100527 0)
(0.630836 0.110858 0)
(0.648804 0.121255 0)
(0.667176 0.131697 0)
(0.685888 0.142161 0)
(0.704882 0.152624 0)
(0.724099 0.163063 0)
(0.743484 0.173453 0)
(0.762979 0.183771 0)
(0.78253 0.193989 0)
(0.802083 0.204084 0)
(0.821584 0.214028 0)
(0.840984 0.223798 0)
(0.86024 0.233371 0)
(0.879343 0.242735 0)
(0.89839 0.251868 0)
(0.917585 0.260798 0)
(0.938754 0.269852 0)
(0.95852 0.278527 -1.69664e-025)
(0.455098 0.00684391 0)
(0.463668 0.0133242 0)
(0.473374 0.0232532 0)
(0.484161 0.0332407 0)
(0.495977 0.0432041 0)
(0.508768 0.0532979 0)
(0.522471 0.0635749 0)
(0.537022 0.0740214 0)
(0.552354 0.0846172 0)
(0.568401 0.0953457 0)
(0.585098 0.10619 0)
(0.60238 0.117132 0)
(0.620185 0.12815 0)
(0.638457 0.139224 0)
(0.657132 0.150329 0)
(0.676153 0.16144 0)
(0.695463 0.172532 0)
(0.715007 0.183578 0)
(0.734732 0.194551 0)
(0.754584 0.205424 0)
(0.774508 0.216169 0)
(0.794451 0.226756 0)
(0.814361 0.237159 0)
(0.834189 0.24735 0)
(0.853901 0.257306 0)
(0.87351 0.267012 0)
(0.8931 0.276463 0)
(0.913157 0.285718 0)
(0.936422 0.295268 -8.11906e-028)
(0.431201 0.00721412 0)
(0.439274 0.0140308 0)
(0.448485 0.0244986 0)
(0.458783 0.0350158 0)
(0.470122 0.0455096 0)
(0.482452 0.0561463 0)
(0.495719 0.0669811 0)
(0.509863 0.0779999 0)
(0.524824 0.0891826 0)
(0.54054 0.100513 0)
(0.556952 0.111973 0)
(0.574001 0.123545 0)
(0.591627 0.135206 0)
(0.609775 0.146934 0)
(0.628391 0.158704 0)
(0.647419 0.17049 0)
(0.666806 0.182262 0)
(0.686496 0.193993 0)
(0.706439 0.205653 0)
(0.726582 0.21721 0)
(0.746871 0.228634 0)
(0.767255 0.239893 0)
(0.787679 0.250955 0)
(0.808093 0.261788 0)
(0.828451 0.272364 0)
(0.848733 0.282653 0)
(0.86897 0.292672 0)
(0.88916 0.302254 0)
(0.911268 0.31223 9.60138e-026)
(0.407514 0.0075879 0)
(0.415099 0.014747 0)
(0.423821 0.0257625 0)
(0.433631 0.0368159 0)
(0.44449 0.0478475 0)
(0.456354 0.059036 0)
(0.469175 0.0704387 0)
(0.4829 0.0820415 0)
(0.497474 0.0938246 0)
(0.512842 0.105772 0)
(0.52895 0.117866 0)
(0.545743 0.130089 0)
(0.563169 0.142416 0)
(0.581175 0.154823 0)
(0.599709 0.167285 0)
(0.618723 0.179773 0)
(0.638166 0.192257 0)
(0.657987 0.204705 0)
(0.678136 0.217084 0)
(0.698561 0.22936 0)
(0.719211 0.241496 0)
(0.740034 0.253459 0)
(0.760979 0.265211 0)
(0.781991 0.276717 0)
(0.803022 0.287943 0)
(0.824034 0.298851 0)
(0.84502 0.309441 0)
(0.865913 0.319608 0)
(0.887495 0.329508 1.02463e-025)
(0.384088 0.00796216 0)
(0.391195 0.0154715 0)
(0.399434 0.0270416 0)
(0.408759 0.0386358 0)
(0.419135 0.0502112 0)
(0.430527 0.0619589 0)
(0.442892 0.0739386 0)
(0.456184 0.0861361 0)
(0.470355 0.0985325 0)
(0.485355 0.111112 0)
(0.501136 0.123858 0)
(0.517651 0.136751 0)
(0.534851 0.149768 0)
(0.552692 0.162883 0)
(0.571124 0.176067 0)
(0.5901 0.18929 0)
(0.609578 0.202519 0)
(0.62951 0.215721 0)
(0.649849 0.228857 0)
(0.670547 0.241889 0)
(0.691553 0.254777 0)
(0.712818 0.267482 0)
(0.734288 0.279961 0)
(0.755911 0.292174 0)
(0.777634 0.304079 0)
(0.799411 0.315639 0)
(0.821207 0.326829 0)
(0.842973 0.337598 0)
(0.864846 0.347941 -1.08212e-025)
(0.360971 0.00833347 0)
(0.367612 0.0162022 0)
(0.375378 0.0283314 0)
(0.384219 0.0404688 0)
(0.394111 0.0525917 0)
(0.405023 0.0649044 0)
(0.416921 0.0774685 0)
(0.429766 0.0902703 0)
(0.443514 0.103292 0)
(0.458125 0.116518 0)
(0.473556 0.129934 0)
(0.489765 0.143518 0)
(0.506712 0.157249 0)
(0.524356 0.171099 0)
(0.542659 0.185038 0)
(0.561576 0.199033 0)
(0.581066 0.213048 0)
(0.601088 0.227044 0)
(0.621601 0.240981 0)
(0.64256 0.254815 0)
(0.663917 0.268501 0)
(0.685624 0.281993 0)
(0.707628 0.295243 0)
(0.729877 0.308203 0)
(0.752314 0.320826 0)
(0.774885 0.333067 0)
(0.797542 0.344891 0)
(0.820229 0.356258 0)
(0.842867 0.367153 1.14392e-025)
(0.338212 0.00869813 0)
(0.344402 0.0169359 0)
(0.351701 0.029626 0)
(0.360062 0.0423058 0)
(0.369466 0.0549775 0)
(0.379892 0.0678587 0)
(0.391312 0.0810126 0)
(0.403693 0.0944262 0)
(0.416999 0.108083 0)
(0.431197 0.12197 0)
(0.44625 0.136073 0)
(0.462125 0.15037 0)
(0.478788 0.16484 0)
(0.496204 0.179454 0)
(0.514341 0.19418 0)
(0.533166 0.208986 0)
(0.552642 0.223829 0)
(0.572732 0.238669 0)
(0.5934 0.253458 0)
(0.614606 0.268149 0)
(0.636308 0.282688 0)
(0.658458 0.297022 0)
(0.681008 0.311095 0)
(0.703901 0.324852 0)
(0.727081 0.338236 0)
(0.750487 0.351194 0)
(0.774058 0.363676 0)
(0.797724 0.375642 0)
(0.821383 0.38703 -2.41325e-025)
(0.315858 0.00905217 0)
(0.321612 0.0176682 0)
(0.328455 0.0309171 0)
(0.336339 0.044135 0)
(0.345253 0.0573536 0)
(0.355185 0.0708037 0)
(0.366114 0.0845498 0)
(0.378013 0.09858 0)
(0.390856 0.11288 0)
(0.404614 0.12744 0)
(0.419261 0.142244 0)
(0.434769 0.157275 0)
(0.451112 0.172509 0)
(0.468265 0.187917 0)
(0.486202 0.203468 0)
(0.504895 0.219125 0)
(0.52432 0.234844 0)
(0.544447 0.250581 0)
(0.565246 0.266281 0)
(0.586682 0.281891 0)
(0.608719 0.297349 0)
(0.631314 0.312593 0)
(0.654421 0.327557 0)
(0.677984 0.342174 0)
(0.701945 0.356376 0)
(0.726237 0.370097 0)
(0.750791 0.383275 0)
(0.775526 0.395856 0)
(0.800341 0.407769 8.52974e-028)
(0.293959 0.00939141 0)
(0.299293 0.0183933 0)
(0.305691 0.0321945 0)
(0.3131 0.0459416 0)
(0.321522 0.0597013 0)
(0.330952 0.0737168 0)
(0.341376 0.0880538 0)
(0.352775 0.102702 0)
(0.36513 0.117651 0)
(0.378421 0.132891 0)
(0.392628 0.14841 0)
(0.407733 0.164192 0)
(0.423717 0.180214 0)
(0.440563 0.196448 0)
(0.458258 0.212864 0)
(0.476781 0.229418 0)
(0.496112 0.246064 0)
(0.516236 0.262755 0)
(0.537132 0.279433 0)
(0.558773 0.296034 0)
(0.58113 0.31249 0)
(0.604167 0.328725 0)
(0.627842 0.344663 0)
(0.652102 0.36022 0)
(0.676888 0.375316 0)
(0.702129 0.389868 0)
(0.727746 0.403798 0)
(0.75365 0.417036 0)
(0.779734 0.429513 1.29851e-027)
(0.272565 0.00971144 0)
(0.277496 0.0191032 0)
(0.283458 0.033445 0)
(0.290397 0.0477073 0)
(0.298323 0.0619975 0)
(0.307242 0.0765706 0)
(0.317147 0.0914932 0)
(0.328027 0.106757 0)
(0.33987 0.122355 0)
(0.352663 0.138282 0)
(0.366396 0.154527 0)
(0.381056 0.171076 0)
(0.396636 0.187909 0)
(0.413128 0.204998 0)
(0.430527 0.222312 0)
(0.44883 0.239809 0)
(0.468023 0.257441 0)
(0.488098 0.275153 0)
(0.509048 0.292883 0)
(0.530859 0.310559 0)
(0.553512 0.328103 0)
(0.576982 0.345427 0)
(0.601231 0.362438 0)
(0.626213 0.379037 0)
(0.651869 0.395122 0)
(0.678126 0.410592 0)
(0.704896 0.425348 0)
(0.732077 0.439299 0)
(0.759551 0.452365 1.3991e-025)
(0.251726 0.0100077 0)
(0.256271 0.0197883 0)
(0.261808 0.0346526 0)
(0.26828 0.0494102 0)
(0.275708 0.0642147 0)
(0.284107 0.0793325 0)
(0.293478 0.0948302 0)
(0.303818 0.110703 0)
(0.315122 0.126946 0)
(0.327386 0.14356 0)
(0.340606 0.160537 0)
(0.35478 0.177866 0)
(0.369909 0.195529 0)
(0.385995 0.2135 0)
(0.403043 0.231747 0)
(0.421062 0.250232 0)
(0.440053 0.26891 0)
(0.460022 0.287714 0)
(0.480975 0.306579 0)
(0.502911 0.325427 0)
(0.525826 0.344165 0)
(0.549707 0.362694 0)
(0.57453 0.3809 0)
(0.600256 0.398664 0)
(0.62683 0.41586 0)
(0.654176 0.432359 0)
(0.682199 0.448035 0)
(0.710782 0.46277 0)
(0.739788 0.476461 -1.43584e-025)
(0.231496 0.0102756 0)
(0.235671 0.0204368 0)
(0.240793 0.0357986 0)
(0.2468 0.0510248 0)
(0.253726 0.0663215 0)
(0.261596 0.081965 0)
(0.270419 0.0980214 0)
(0.280198 0.114489 0)
(0.290936 0.131369 0)
(0.302637 0.148665 0)
(0.315305 0.166374 0)
(0.328947 0.184489 0)
(0.343573 0.202994 0)
(0.359195 0.221868 0)
(0.375827 0.241083 0)
(0.393494 0.260606 0)
(0.412216 0.280382 0)
(0.432008 0.300349 0)
(0.452894 0.32044 0)
(0.474894 0.340564 0)
(0.498021 0.360621 0)
(0.522282 0.380492 0)
(0.547667 0.400043 0)
(0.574152 0.419127 0)
(0.601689 0.437587 0)
(0.630205 0.45526 0)
(0.659595 0.471982 0)
(0.689727 0.4876 0)
(0.72044 0.501974 1.51688e-025)
(0.211932 0.0105109 0)
(0.21575 0.0210351 0)
(0.220466 0.0368627 0)
(0.22601 0.0525238 0)
(0.232429 0.068284 0)
(0.23976 0.0844276 0)
(0.248019 0.10102 0)
(0.257215 0.118062 0)
(0.267361 0.135562 0)
(0.278467 0.153527 0)
(0.290544 0.17196 0)
(0.303608 0.190858 0)
(0.317676 0.21021 0)
(0.332771 0.230002 0)
(0.348919 0.250209 0)
(0.366155 0.2708 0)
(0.384526 0.291727 0)
(0.404055 0.312936 0)
(0.42479 0.334345 0)
(0.446772 0.355862 0)
(0.470042 0.377376 0)
(0.494628 0.398749 0)
(0.520547 0.419824 0)
(0.547795 0.440421 0)
(0.576338 0.460344 0)
(0.606108 0.47938 0)
(0.636997 0.497319 0)
(0.66885 0.513955 0)
(0.701475 0.529102 0)
(0.193088 0.0107106 0)
(0.19656 0.0215692 0)
(0.200877 0.0378244 0)
(0.205958 0.0538798 0)
(0.211866 0.0700678 0)
(0.218649 0.0866788 0)
(0.226328 0.103776 0)
(0.234924 0.121365 0)
(0.244452 0.139459 0)
(0.254931 0.15807 0)
(0.26638 0.177207 0)
(0.278819 0.196873 0)
(0.292274 0.217064 0)
(0.306778 0.237773 0)
(0.322367 0.258982 0)
(0.339088 0.280664 0)
(0.357002 0.302791 0)
(0.376171 0.325303 0)
(0.39665 0.348119 0)
(0.418513 0.371148 0)
(0.44183 0.394267 0)
(0.466662 0.417324 0)
(0.493061 0.440135 0)
(0.521053 0.462481 0)
(0.550631 0.484117 0)
(0.581742 0.50477 0)
(0.614274 0.524157 0)
(0.648053 0.542003 0)
(0.682842 0.558055 1.57081e-025)
(0.175019 0.0108735 0)
(0.178152 0.0220256 0)
(0.182074 0.0386647 0)
(0.186692 0.0550671 0)
(0.192085 0.0716402 0)
(0.19831 0.0886778 0)
(0.205399 0.10624 0)
(0.213377 0.124336 0)
(0.222266 0.142986 0)
(0.232091 0.162207 0)
(0.242875 0.182014 0)
(0.254646 0.202416 0)
(0.267435 0.223419 0)
(0.281281 0.245026 0)
(0.296233 0.267229 0)
(0.312349 0.290013 0)
(0.3297 0.313355 0)
(0.348385 0.33721 0)
(0.368484 0.361516 0)
(0.390097 0.386168 0)
(0.413333 0.411045 0)
(0.438296 0.43598 0)
(0.465085 0.460764 0)
(0.493771 0.485138 0)
(0.52439 0.508796 0)
(0.556915 0.531389 0)
(0.591246 0.552541 0)
(0.627186 0.571871 0)
(0.664447 0.589026 -5.53196e-027)
(0.157777 0.0110019 0)
(0.160568 0.0223927 0)
(0.1641 0.0393685 0)
(0.168255 0.0560637 0)
(0.17313 0.0729712 0)
(0.178794 0.0903849 0)
(0.185283 0.108361 0)
(0.19263 0.126913 0)
(0.200864 0.146066 0)
(0.210012 0.165842 0)
(0.220103 0.186264 0)
(0.231167 0.20735 0)
(0.243239 0.229115 0)
(0.256364 0.251574 0)
(0.270599 0.274736 0)
(0.286014 0.2986 0)
(0.302696 0.323152 0)
(0.320756 0.348375 0)
(0.340328 0.374214 0)
(0.361531 0.40058 0)
(0.384522 0.427352 0)
(0.40946 0.454356 0)
(0.436501 0.481363 0)
(0.465784 0.508074 0)
(0.497405 0.534117 0)