/*--------------------------------*- C++ -*----------------------------------*\
| =========                 |                                                 |
| \\      /  F ield         | OpenFOAM: The Open Source CFD Toolbox           |
|  \\    /   O peration     | Version:  5.x                                   |
|   \\  /    A nd           | Web:      www.OpenFOAM.org                      |
|    \\/     M anipulation  |                                                 |
\*---------------------------------------------------------------------------*/
/*   Windows 32 and 64 bit porting by blueCAPE: http://www.bluecape.com.pt   *\
|  Based on Windows porting (2.0.x v4) by Symscape: http://www.symscape.com   |
\*---------------------------------------------------------------------------*/
FoamFile
{
    version     2.0;
    format      ascii;
    class       volScalarField;
    location    "400";
    object      epsilon;
}
// * * * * * * * * * * * * * * * * * * * * * * * * * * * * * * * * * * * * * //

dimensions      [0 2 -3 0 0 0 0];

internalField   nonuniform List<scalar> 
43900
(
0.00152925
0.00151909
0.00151979
0.00151971
0.00151968
0.00151966
0.00151967
0.00151967
0.00151967
0.00151968
0.00151968
0.00151968
0.00151968
0.00151968
0.00151968
0.00151968
0.00151968
0.00151968
0.00151968
0.00151969
0.00151969
0.00151968
0.00151968
0.00151969
0.0015197
0.0015197
0.00151968
0.00151968
0.00151968
0.000414078
3.81992e-005
3.16657e-005
3.15196e-005
3.27286e-005
3.27922e-005
3.28045e-005
3.27902e-005
3.27916e-005
3.27959e-005
3.27966e-005
3.27994e-005
3.27995e-005
3.28026e-005
3.2805e-005
3.28044e-005
3.28062e-005
3.28079e-005
3.28078e-005
3.28095e-005
3.28095e-005
3.28072e-005
3.28064e-005
3.28123e-005
3.28218e-005
3.28215e-005
3.28089e-005
3.28002e-005
3.28042e-005
0.0508393
0.00575416
0.000289871
1.14938e-005
1.71122e-006
1.32766e-006
1.32658e-006
1.40956e-006
1.41859e-006
1.41736e-006
1.41634e-006
1.41663e-006
1.41705e-006
1.41741e-006
1.41778e-006
1.41815e-006
1.41837e-006
1.41837e-006
1.41865e-006
1.41914e-006
1.41927e-006
1.41942e-006
1.41979e-006
1.42024e-006
1.42023e-006
1.41974e-006
1.41929e-006
1.41968e-006
1.42056e-006
0.146534
0.0437905
0.00968284
0.00132224
8.38674e-005
3.42871e-006
3.43039e-007
1.22624e-007
1.08335e-007
1.15502e-007
1.19852e-007
1.20213e-007
1.19624e-007
1.19456e-007
1.19585e-007
1.19667e-007
1.19667e-007
1.19671e-007
1.19712e-007
1.19757e-007
1.19787e-007
1.19834e-007
1.19869e-007
1.19883e-007
1.19872e-007
1.19858e-007
1.19879e-007
1.19934e-007
1.19999e-007
0.197693
0.0844964
0.0338568
0.011247
0.0026485
0.00035759
2.25548e-005
9.72812e-007
8.50491e-008
2.23468e-008
1.65063e-008
1.70901e-008
1.84125e-008
1.86277e-008
1.84501e-008
1.84206e-008
1.84797e-008
1.84842e-008
1.84711e-008
1.84802e-008
1.84882e-008
1.84888e-008
1.84902e-008
1.84946e-008
1.8498e-008
1.84989e-008
1.85048e-008
1.85111e-008
1.85156e-008
0.222776
0.109193
0.0533644
0.0251575
0.0105404
0.00334639
0.000714395
7.85358e-005
4.35963e-006
2.06496e-007
1.93428e-008
5.57331e-009
4.10238e-009
4.42335e-009
4.72616e-009
4.71478e-009
4.63468e-009
4.64405e-009
4.67333e-009
4.6684e-009
4.6667e-009
4.67188e-009
4.67489e-009
4.67682e-009
4.67833e-009
4.67831e-009
4.6788e-009
4.68016e-009
4.68137e-009
0.233988
0.123505
0.0660195
0.0352375
0.0183275
0.0088831
0.0035458
0.000970804
0.000152698
1.17139e-005
6.08224e-007
3.36005e-008
4.40955e-009
1.74508e-009
1.51942e-009
1.66551e-009
1.75037e-009
1.71592e-009
1.69672e-009
1.70917e-009
1.71078e-009
1.70602e-009
1.70626e-009
1.70693e-009
1.70637e-009
1.70637e-009
1.70729e-009
1.70805e-009
1.70851e-009
0.237443
0.131393
0.074046
0.0421518
0.0239397
0.013302
0.00697492
0.00318466
0.00104443
0.000217975
2.30238e-005
1.42007e-006
7.9619e-008
5.64239e-009
1.24654e-009
7.33994e-010
7.51928e-010
8.16022e-010
8.13354e-010
7.96534e-010
7.99512e-010
8.0525e-010
8.04325e-010
8.0462e-010
8.06005e-010
8.06135e-010
8.05954e-010
8.06065e-010
8.06138e-010
0.23627
0.135135
0.0789109
0.0467857
0.0279433
0.0166294
0.00969674
0.00538378
0.00269036
0.0010272
0.000249803
3.22771e-005
2.33223e-006
1.42781e-007
9.38578e-009
1.132e-009
4.81988e-010
4.00341e-010
4.44609e-010
4.6288e-010
4.52761e-010
4.50836e-010
4.52912e-010
4.52494e-010
4.51444e-010
4.51947e-010
4.53088e-010
4.53285e-010
4.53498e-010
0.231926
0.135793
0.0813562
0.0496363
0.0306656
0.0190461
0.0117742
0.00713676
0.00413619
0.00218096
0.000922582
0.000247494
3.65226e-005
3.01468e-006
2.04043e-007
1.41115e-008
1.30761e-009
3.96294e-010
2.64647e-010
2.75212e-010
2.92852e-010
2.88938e-010
2.85849e-010
2.87704e-010
2.88436e-010
2.87573e-010
2.8733e-010
2.87569e-010
2.87622e-010
0.22481
0.134061
0.0817569
0.0508858
0.0321708
0.0205507
0.0131742
0.00839546
0.00524366
0.00313541
0.00171651
0.000775173
0.000221097
3.55015e-005
3.25799e-006
2.43826e-007
1.83013e-008
1.61855e-009
3.30483e-010
1.96638e-010
1.86877e-010
2.00851e-010
2.01344e-010
1.9808e-010
1.98456e-010
1.99553e-010
1.99345e-010
1.98984e-010
1.99249e-010
0.216788
0.131225
0.0812899
0.0514022
0.0330714
0.0215573
0.0141655
0.00932213
0.006088
0.00389198
0.00238152
0.00133779
0.00062751
0.000185808
3.183e-005
3.20683e-006
2.65466e-007
2.1866e-008
1.98343e-009
3.18002e-010
1.62251e-010
1.34482e-010
1.44502e-010
1.49229e-010
1.46914e-010
1.46628e-010
1.47427e-010
1.47544e-010
1.47036e-010
0.207828
0.127453
0.0799994
0.0512612
0.0334588
0.0221655
0.0148432
0.00999826
0.00673066
0.00448761
0.00292386
0.0018212
0.00104144
0.00049873
0.000150393
2.68755e-005
2.9388e-006
2.69059e-007
2.44281e-008
2.35857e-009
3.36378e-010
1.39829e-010
1.07092e-010
1.10027e-010
1.15382e-010
1.14022e-010
1.13021e-010
1.13725e-010
1.14474e-010
0.198127
0.122888
0.0780175
0.0506039
0.0334212
0.0224421
0.0152611
0.0104684
0.00720794
0.00494951
0.00335905
0.002223
0.00140351
0.000811743
0.000392098
0.000118367
2.15016e-005
2.51884e-006
2.5428e-007
2.54547e-008
2.66099e-009
3.65359e-010
1.23297e-010
8.94427e-011
8.74092e-011
9.20564e-011
9.19677e-011
9.06639e-011
9.09607e-011
0.187937
0.117739
0.0755091
0.0494883
0.0330668
0.0224476
0.0154658
0.0107695
0.00754948
0.00530125
0.00370455
0.00255286
0.00171136
0.00109141
0.00063513
0.000306483
9.14127e-005
1.66405e-005
2.07911e-006
2.31145e-007
2.55209e-008
2.9097e-009
4.01879e-010
1.15398e-010
7.91881e-011
7.05618e-011
7.42379e-011
7.59754e-011
7.5051e-011
0.177432
0.112183
0.0726069
0.0480389
0.0324161
0.0222584
0.0155004
0.0109333
0.0077798
0.00556218
0.00397543
0.00282158
0.0019703
0.00133488
0.000857427
0.000499817
0.00023853
7.00798e-005
1.28983e-005
1.7241e-006
2.10144e-007
2.54635e-008
3.16036e-009
4.49558e-010
1.15365e-010
7.14208e-011
6.06072e-011
6.20894e-011
6.42387e-011
0.166767
0.106354
0.0694282
0.0463381
0.0315564
0.0218778
0.0154043
0.0109845
0.0079172
0.00574614
0.00418235
0.00303716
0.00218558
0.00154376
0.00105499
0.000680945
0.000396359
0.000185755
5.37441e-005
1.0073e-005
1.44361e-006
1.92241e-007
2.54543e-008
3.43068e-009
5.11198e-010
1.20362e-010
6.46923e-011
5.34899e-011
5.35164e-011
0.156073
0.100362
0.0660579
0.0444574
0.0305354
0.0213627
0.0151895
0.0109478
0.00798176
0.005869
0.00433744
0.00320856
0.00236335
0.00172137
0.00122772
0.000844711
0.000546674
0.000316657
0.000144653
4.14054e-005
7.97874e-006
1.23096e-006
1.78991e-007
2.58619e-008
3.78423e-009
5.95213e-010
1.31213e-010
6.10852e-011
4.92214e-011
0.145452
0.0942925
0.0625629
0.0424477
0.0293974
0.0207433
0.0148834
0.0108355
0.0079803
0.00593857
0.00444888
0.0033437
0.00251071
0.00187352
0.00137959
0.000992441
0.000686755
0.000445152
0.000256258
0.000113706
3.23857e-005
6.47212e-006
1.07608e-006
1.70329e-007
2.67471e-008
4.23147e-009
7.03925e-010
1.49324e-010
6.07227e-011
0.135
0.0882205
0.0589998
0.040351
0.0281731
0.0200461
0.0145093
0.0106609
0.00793541
0.00596634
0.00452312
0.00344634
0.00262999
0.00200163
0.00151119
0.00112366
0.000814414
0.000566208
0.000367184
0.000209732
9.01266e-005
2.57435e-005
5.36926e-006
9.61009e-007
1.64819e-007
2.80384e-008
4.78805e-009
8.46672e-010
1.75434e-010
0.1248
0.082211
0.0554175
0.0382032
0.0268888
0.0192899
0.0140803
0.0104378
0.00784209
0.00595687
0.00456644
0.0035227
0.00272662
0.00211017
0.00162597
0.00124069
0.000930666
0.000679074
0.000474028
0.000307405
0.000174194
7.24269e-005
2.09142e-005
4.57973e-006
8.81761e-007
1.63371e-007
2.99594e-008
5.50509e-009
1.01652e-009
0.114917
0.0763155
0.0518553
0.0360341
0.0255671
0.0184922
0.0136115
0.0101779
0.00771651
0.00592025
0.00458398
0.00357616
0.00280314
0.00220113
0.00172551
0.0013447
0.00103611
0.000783527
0.000575289
0.000403145
0.000261528
0.000147211
5.93184e-005
1.746e-005
4.02897e-006
8.32012e-007
1.65858e-007
3.27006e-008
6.31217e-009
0.105405
0.0705771
0.048346
0.0338678
0.0242256
0.0176658
0.0131115
0.00988747
0.00756222
0.00585456
0.00457831
0.0036098
0.00286252
0.00227718
0.00181204
0.00143742
0.00113193
0.000880078
0.000670597
0.00049533
0.000348514
0.000226349
0.000126856
4.99405e-005
1.50493e-005
3.6589e-006
8.08024e-007
1.72754e-007
3.57153e-008
0.0963075
0.0650308
0.0449163
0.0317249
0.0228799
0.0168227
0.0125902
0.00957502
0.00738701
0.00577071
0.00455657
0.0036279
0.00290753
0.00234022
0.00188699
0.00151994
0.00121891
0.000969173
0.000759936
0.000583267
0.000433409
0.00030632
0.000199419
0.000111622
4.38875e-005
1.35083e-005
3.44858e-006
8.10586e-007
1.80782e-007
0.087658
0.0597044
0.0415883
0.0296221
0.0215427
0.0159723
0.0120541
0.00924486
0.00719327
0.00566836
0.00451537
0.00362888
0.00293822
0.00239102
0.00195131
0.00159319
0.00129783
0.00105137
0.00084355
0.000666766
0.000515389
0.000385327
0.000273737
0.000178874
0.000100067
3.97193e-005
1.25472e-005
3.36309e-006
8.18167e-007
0.0794782
0.0546183
0.0383787
0.0275726
0.0202242
0.0151226
0.0115098
0.00890247
0.00698613
0.00555295
0.00446297
0.00362065
0.00295911
0.00243232
0.00200682
0.00165848
0.00136966
0.00112735
0.000921861
0.000745936
0.000594148
0.000462461
0.000347947
0.000248593
0.000163211
9.16762e-005
3.69313e-005
1.20327e-005
3.30195e-006
0.0717826
0.0497874
0.0353006
0.0255871
0.0189329
0.0142802
0.0109625
0.00855184
0.0067685
0.00542627
0.00439917
0.00360082
0.00296997
0.00246471
0.00205436
0.00171663
0.00143514
0.00119774
0.000995327
0.000821037
0.000669686
0.000537359
0.000421142
0.000318925
0.000229285
0.00015151
8.58e-005
3.52703e-005
1.16134e-005
0.0645777
0.045221
0.0323632
0.0236735
0.0176753
0.0134502
0.010416
0.00819599
0.00654261
0.00529002
0.00432541
0.00357071
0.00297105
0.00248862
0.00209448
0.00176827
0.0014949
0.00126312
0.00106444
0.00089244
0.0007422
0.00060998
0.000492939
0.000388959
0.000296522
0.000214658
0.000142966
8.20968e-005
3.38694e-005
0.0578632
0.0409243
0.0295725
0.0218376
0.0164562
0.0126368
0.00987369
0.0078377
0.00631091
0.00514653
0.00424413
0.00353383
0.00296643
0.00250647
0.00212875
0.00181449
0.00154977
0.00132416
0.00112977
0.000960602
0.000812023
0.000680491
0.00056328
0.000458316
0.00036406
0.000279433
0.00020379
0.000137226
7.88228e-005
0.0516343
0.0368987
0.0269322
0.0200833
0.0152794
0.011843
0.00933819
0.00747906
0.00607508
0.0049971
0.00415618
0.00349016
0.00295498
0.00251831
0.00215765
0.00185592
0.0016004
0.00138148
0.00119189
0.00102602
0.000879577
0.000749209
0.000632334
0.000526958
0.000431566
0.000345047
0.00026665
0.000196059
0.000133396
0.0458822
0.0331431
0.0244441
0.0184133
0.0141474
0.0110711
0.00881138
0.0071216
0.00583632
0.00484263
0.00406227
0.00344014
0.002937
0.00252438
0.00218151
0.00189298
0.00164726
0.0014356
0.0012513
0.0010892
0.000945322
0.000816537
0.000700418
0.000595075
0.000499048
0.000411238
0.000330856
0.000257425
0.000190886
0.040595
0.0296541
0.0221085
0.0168291
0.0130621
0.0103229
0.00829472
0.00676649
0.00559555
0.00468387
0.00396302
0.00338457
0.00291371
0.00252505
0.00220063
0.00192599
0.00169072
0.00148689
0.00130843
0.00115059
0.00100972
0.000882919
0.000767938
0.000663002
0.00056673
0.000478064
0.000396219
0.000320662
0.000251133
0.0357585
0.026427
0.0199245
0.0153316
0.0120248
0.00959969
0.00778936
0.00641467
0.00535353
0.00452144
0.00385903
0.003324
0.00288578
0.00252203
0.00221607
0.00195563
0.00173128
0.00153583
0.00136372
0.00121064
0.00107322
0.000948822
0.000835351
0.000731167
0.000634982
0.000545797
0.00046286
0.00038563
0.000313763
0.0313566
0.0234557
0.0178908
0.0139212
0.0110366
0.00890261
0.00729631
0.00606693
0.00511082
0.00435573
0.0037505
0.00325845
0.00285291
0.00251428
0.00222749
0.00198192
0.00176914
0.00158267
0.0014175
0.00126973
0.00113627
0.00101472
0.000903152
0.000800069
0.000704281
0.000614866
0.000531119
0.000452525
0.000378727
0.0273717
0.0207332
0.0160051
0.012598
0.0100985
0.00823275
0.00681656
0.00572404
0.00486798
0.00418706
0.00363757
0.0031879
0.00281492
0.00250147
0.00223463
0.00200471
0.00180426
0.00162752
0.00147
0.00132817
0.00119925
0.00108106
0.000971856
0.000870262
0.0007752
0.000685831
0.000601516
0.000521784
0.000446302
0.0237849
0.0182517
0.0142651
0.0113619
0.00921122
0.00759125
0.00635113
0.00538682
0.00462557
0.00401579
0.00352042
0.00311245
0.00277194
0.00248403
0.00223745
0.00202393
0.00183662
0.00167042
0.00152133
0.00138619
0.00126251
0.00114831
0.00104201
0.000942366
0.000848411
0.000759392
0.000674745
0.000594057
0.000517048
0.0205758
0.0160024
0.0126676
0.0102127
0.00837571
0.0069793
0.0059012
0.00505624
0.0043843
0.00384238
0.00339931
0.00303219
0.002724
0.00246193
0.00223619
0.00203966
0.00186623
0.0017114
0.00157161
0.00144403
0.0013264
0.00121693
0.00111421
0.00101709
0.000924717
0.000836417
0.000751703
0.000670237
0.0005918
0.017723
0.0139757
0.0112093
0.00914966
0.00759274
0.00639817
0.00546804
0.00473339
0.00414502
0.0036674
0.00327456
0.00294723
0.00267102
0.00243501
0.00223088
0.00205175
0.00189293
0.00175035
0.00162082
0.00150178
0.00139118
0.00128738
0.00118908
0.00109524
0.00100508
0.000917984
0.000833551
0.000751513
0.000671731
0.0152038
0.0121613
0.009886
0.00817211
0.00686298
0.00584911
0.00505305
0.00441953
0.00390872
0.00349156
0.00314657
0.00285771
0.00261285
0.00240271
0.00222015
0.00205935
0.0019161
0.00178682
0.00166866
0.00155933
0.00145694
0.00135997
0.0012672
0.00117765
0.00109057
0.00100539
0.000921752
0.000839456
0.00075844
0.0129947
0.0105478
0.00869297
0.00727871
0.0061869
0.00533339
0.0046577
0.00411608
0.00367663
0.00331579
0.00301599
0.00276396
0.00254957
0.002365
0.00220411
0.00206197
0.00193514
0.00182018
0.00171458
0.00161624
0.00152344
0.00143473
0.0013489
0.00126499
0.00118221
0.0011
0.00101799
0.000935986
0.000853998
0.0110716
0.00912307
0.0076248
0.00646778
0.00556479
0.00485228
0.00428368
0.0038248
0.00345037
0.00314151
0.00288395
0.00266684
0.00248178
0.00232223
0.00218302
0.00206001
0.00194994
0.00185003
0.001758
0.00167193
0.00159016
0.0015113
0.00143411
0.00135754
0.00128073
0.00120301
0.0011239
0.00104315
0.000960779
0.00941027
0.00787448
0.00667567
0.00573738
0.00499692
0.00440725
0.00393307
0.00354803
0.00323234
0.00297102
0.00275261
0.00256826
0.0024111
0.00227571
0.00215778
0.0020539
0.00196079
0.00187644
0.00179879
0.00172606
0.00165669
0.00158926
0.0015225
0.00145523
0.00138642
0.00131516
0.00124077
0.00116279
0.0010811
0.00798688
0.00678938
0.00583953
0.00508549
0.00448373
0.00400021
0.00360868
0.0032891
0.00302614
0.00280804
0.00262565
0.00247185
0.00234101
0.00222868
0.00213128
0.00204585
0.00196977
0.00190115
0.00183829
0.0017796
0.00172362
0.00166896
0.00161427
0.00155823
0.00149955
0.00143702
0.00136957
0.00129638
0.00121696
0.00677871
0.00585539
0.00511049
0.0045103
0.00402602
0.00363371
0.00331421
0.00305249
0.00283684
0.00265803
0.00250884
0.0023835
0.00227748
0.00218709
0.00210943
0.0020421
0.00198214
0.00192879
0.00188058
0.00183607
0.00179392
0.0017528
0.00171133
0.00166805
0.00162142
0.00156982
0.00151167
0.00144552
0.00137027
0.0057643
0.00506064
0.00448281
0.00401016
0.0036249
0.00331081
0.00305416
0.00284384
0.00267092
0.00252823
0.00240998
0.00231154
0.00222919
0.00215987
0.00210131
0.0020503
0.00200596
0.00196735
0.00193329
0.00190258
0.00187405
0.00184653
0.00181869
0.00178902
0.00175574
0.00171681
0.00167002
0.00161306
0.00154384
0.00492341
0.00439362
0.0039508
0.00358334
0.0032815
0.00303472
0.0028334
0.00266938
0.00253585
0.00242716
0.00233862
0.00226637
0.00220743
0.00215884
0.00211702
0.00208195
0.00205315
0.00202905
0.00200852
0.0019908
0.00197508
0.00196047
0.00194583
0.00192971
0.0019102
0.00188486
0.00185085
0.00180471
0.00174291
0.00423668
0.0038429
0.0035084
0.00322757
0.00299632
0.00280815
0.00265647
0.00253529
0.00243933
0.00236403
0.00230543
0.00225999
0.00222348
0.00219424
0.00217173
0.00215438
0.00214164
0.00213163
0.00212394
0.00211822
0.0021141
0.00211107
0.00210837
0.00210475
0.00209835
0.00208638
0.00206561
0.00203113
0.00197725
0.00368516
0.00339666
0.00314871
0.00293951
0.00276871
0.00263266
0.00252691
0.00244701
0.0023887
0.00234821
0.00232039
0.0023022
0.00229219
0.00228792
0.00228813
0.00229077
0.00229497
0.00229975
0.00230499
0.00231072
0.00231704
0.00232398
0.00233127
0.00233815
0.00234293
0.00234236
0.00233423
0.00231147
0.00226456
0.00325023
0.00304256
0.00286385
0.0027145
0.00259657
0.00250836
0.00244691
0.00240895
0.00239058
0.00238677
0.00239487
0.00241277
0.00243708
0.00246466
0.00249302
0.00252053
0.00254618
0.0025693
0.00258985
0.00260817
0.00262488
0.00264059
0.00265575
0.00267034
0.00268344
0.00269209
0.00269157
0.00267761
0.00263583
0.00291372
0.00276793
0.00264504
0.00254667
0.0024764
0.00243391
0.00241733
0.00242374
0.00244885
0.00249181
0.00254761
0.00261244
0.00268209
0.00275301
0.00282195
0.00288639
0.00294459
0.00299553
0.00303901
0.00307551
0.00310597
0.00313164
0.00315377
0.00317331
0.00319059
0.00320337
0.00320636
0.00319392
0.003149
0.00265852
0.00256022
0.00248307
0.00242934
0.00240362
0.00240684
0.00243704
0.00249368
0.0025744
0.00267587
0.00279331
0.00292227
0.00305759
0.00319415
0.00332705
0.00345205
0.00356583
0.0036661
0.00375175
0.00382272
0.00387981
0.00392447
0.0039585
0.00398388
0.00400272
0.00401342
0.00401249
0.00399149
0.00392694
0.00246904
0.0024076
0.00236882
0.00235549
0.0023729
0.00242301
0.00250624
0.00262321
0.00277143
0.0029484
0.00314984
0.00337049
0.00360396
0.00384321
0.00408092
0.0043101
0.00452464
0.0047196
0.00489152
0.00503841
0.00515959
0.00525537
0.00532682
0.00537633
0.00540838
0.00542112
0.00541457
0.00537023
0.00525418
0.00233169
0.00229931
0.00229368
0.0023179
0.00237878
0.00247953
0.00262338
0.00281159
0.00304434
0.00332057
0.0036372
0.00398922
0.0043696
0.00476962
0.00517941
0.00558864
0.00598734
0.00636651
0.00671863
0.00703784
0.00731972
0.00756093
0.00775863
0.00791475
0.00803527
0.00810512
0.00812692
0.00806299
0.00784194
0.00223494
0.00222597
0.00224965
0.00231026
0.00241568
0.00257212
0.0027847
0.00305826
0.00339659
0.00380199
0.00427452
0.00481156
0.00540746
0.00605366
0.00673918
0.00745141
0.0081772
0.00890374
0.0096194
0.0103141
0.0109789
0.0116058
0.0121858
0.0127101
0.0131835
0.013573
0.0138726
0.0139796
0.0135557
0.00216926
0.00217952
0.00223003
0.00232634
0.00247849
0.00269529
0.00298616
0.00336087
0.00382892
0.00439883
0.00507708
0.00586719
0.00676905
0.00777866
0.00888851
0.0100884
0.0113668
0.0127124
0.014115
0.015567
0.0170637
0.018602
0.0201805
0.0217823
0.0234244
0.025076
0.0266905
0.0284365
0.0275943
0.00212694
0.00215325
0.00222897
0.00236069
0.00256131
0.00284358
0.00322248
0.00371476
0.00433848
0.00511212
0.00605331
0.00717757
0.00849725
0.0100211
0.0117542
0.0136996
0.0158596
0.0182386
0.0208459
0.0236986
0.0268253
0.0302675
0.034088
0.0383507
0.0431703
0.0486178
0.0549015
0.0637831
0.0629982
0.00210175
0.00214163
0.00224118
0.00240807
0.00265881
0.00301114
0.00348714
0.0041129
0.00491839
0.00593669
0.00720282
0.00875241
0.0106206
0.0128416
0.015449
0.0184782
0.0219691
0.0259712
0.0305504
0.0357978
0.0418414
0.0488596
0.0571194
0.0669528
0.0790173
0.0936885
0.11302
0.140885
0.1472
0.00208892
0.00214021
0.00226257
0.00246407
0.00276606
0.0031921
0.00377295
0.00454653
0.00555844
0.00686179
0.0085166
0.0105891
0.0131513
0.0162812
0.0200653
0.0246016
0.0300074
0.0364291
0.0440568
0.0531461
0.0640518
0.0772671
0.0935415
0.113859
0.140227
0.174014
0.223564
0.288538
0.330849
0.00208554
0.00214618
0.00229064
0.00252594
0.00287981
0.0033822
0.00407419
0.00500803
0.00624889
0.00787594
0.00998314
0.0126802
0.0160939
0.0203714
0.0256852
0.0322427
0.0402996
0.0501816
0.0623165
0.0772799
0.0958751
0.119227
0.149074
0.187754
0.240151
0.30981
0.419656
0.551311
0.709781
0.00151969
0.0015197
0.00151969
0.00151969
0.00151968
0.00151968
0.00151968
0.00151969
0.00151971
0.0015197
0.00151969
0.00151968
0.00151969
0.00151969
0.0015197
0.00151971
0.00151971
0.0015197
0.00151969
0.00151969
0.0015197
0.00151972
0.0015197
0.00151969
0.00151968
0.0015197
0.0015197
0.0015197
0.0015197
0.00151971
0.00151971
0.00151969
0.00151968
0.00151968
0.00151969
0.00151969
0.0015197
0.0015197
0.0015197
0.0015197
0.0015197
0.0015197
0.0015197
0.0015197
0.0015197
0.0015197
0.0015197
0.0015197
0.0015197
0.00151969
0.0015197
0.0015197
0.0015197
0.0015197
0.0015197
0.0015197
0.0015197
0.0015197
0.0015197
0.0015197
0.0015197
0.0015197
0.0015197
0.0015197
0.0015197
0.0015197
0.0015197
0.0015197
0.0015197
0.0015197
0.0015197
0.0015197
0.0015197
0.0015197
0.0015197
0.0015197
0.0015197
0.0015197
0.00151971
0.00151971
0.00151971
0.00151971
0.00151971
0.00151971
0.00151971
0.00151971
0.00151971
0.00151971
0.0015197
0.0015197
0.00151971
0.00151971
0.00151971
0.00151971
0.00151971
0.00151971
0.00151971
0.00151971
0.00151971
0.00151971
0.00151971
0.00151971
0.00151971
0.00151971
0.00151971
0.00151971
0.00151971
0.00151971
0.00151971
0.00151971
0.00151971
0.00151971
0.00151971
0.00151971
0.00151971
0.00151971
0.00151971
0.00151971
0.00151971
0.00151971
0.00151971
0.00151971
0.00151971
0.00151971
0.00151971
0.00151971
0.00151971
0.00151971
0.00151971
0.00151971
0.00151971
0.00151972
0.00151971
0.00151972
0.00151972
0.00151972
0.00151972
0.00151973
0.00154195
3.282e-005
3.28234e-005
3.28151e-005
3.28109e-005
3.28067e-005
3.28025e-005
3.28065e-005
3.28209e-005
3.28329e-005
3.28273e-005
3.28113e-005
3.2808e-005
3.28145e-005
3.28222e-005
3.28294e-005
3.28376e-005
3.28372e-005
3.28242e-005
3.28122e-005
3.28162e-005
3.28328e-005
3.28452e-005
3.28324e-005
3.28174e-005
3.2808e-005
3.28229e-005
3.28263e-005
3.28262e-005
3.28308e-005
3.28424e-005
3.28429e-005
3.28215e-005
3.28037e-005
3.28041e-005
3.28208e-005
3.2823e-005
3.28233e-005
3.28235e-005
3.28237e-005
3.2824e-005
3.28242e-005
3.28244e-005
3.28246e-005
3.28248e-005
3.2825e-005
3.28252e-005
3.28254e-005
3.28259e-005
3.28244e-005
3.28234e-005
3.28249e-005
3.28274e-005
3.28284e-005
3.28286e-005
3.28287e-005
3.2829e-005
3.28292e-005
3.28294e-005
3.28296e-005
3.28299e-005
3.28301e-005
3.28304e-005
3.28307e-005
3.2831e-005
3.28313e-005
3.28316e-005
3.28319e-005
3.28323e-005
3.28326e-005
3.28328e-005
3.28332e-005
3.28335e-005
3.28338e-005
3.28341e-005
3.28342e-005
3.28346e-005
3.28337e-005
3.28345e-005
3.28366e-005
3.28385e-005
3.28381e-005
3.28365e-005
3.28391e-005
3.28356e-005
3.28394e-005
3.28392e-005
3.2845e-005
3.28401e-005
3.28351e-005
3.28337e-005
3.28373e-005
3.28375e-005
3.28359e-005
3.28362e-005
3.28372e-005
3.28408e-005
3.28411e-005
3.2843e-005
3.28426e-005
3.28426e-005
3.28424e-005
3.28423e-005
3.28422e-005
3.28422e-005
3.28422e-005
3.28421e-005
3.28421e-005
3.2842e-005
3.28421e-005
3.28421e-005
3.28422e-005
3.28422e-005
3.28423e-005
3.28423e-005
3.28425e-005
3.28426e-005
3.28427e-005
3.28428e-005
3.28429e-005
3.28429e-005
3.28428e-005
3.28427e-005
3.28426e-005
3.28426e-005
3.28428e-005
3.28429e-005
3.2843e-005
3.28431e-005
3.28432e-005
3.28445e-005
3.28446e-005
3.28474e-005
3.2846e-005
3.28509e-005
3.28482e-005
3.28541e-005
3.28528e-005
3.28705e-005
3.5186e-005
1.42096e-006
1.42062e-006
1.42015e-006
1.41996e-006
1.41984e-006
1.42038e-006
1.42141e-006
1.42214e-006
1.42143e-006
1.42031e-006
1.42011e-006
1.42114e-006
1.42175e-006
1.42167e-006
1.42153e-006
1.42175e-006
1.42138e-006
1.42101e-006
1.42055e-006
1.42176e-006
1.42296e-006
1.42355e-006
1.42227e-006
1.42101e-006
1.42082e-006
1.42186e-006
1.42207e-006
1.42242e-006
1.42318e-006
1.42398e-006
1.42334e-006
1.42164e-006
1.42069e-006
1.42163e-006
1.42253e-006
1.4226e-006
1.42263e-006
1.42265e-006
1.42268e-006
1.42271e-006
1.42275e-006
1.42279e-006
1.42283e-006
1.42288e-006
1.42293e-006
1.42297e-006
1.42302e-006
1.42307e-006
1.42312e-006
1.42328e-006
1.42337e-006
1.42334e-006
1.42327e-006
1.42331e-006
1.4234e-006
1.42347e-006
1.42354e-006
1.4236e-006
1.42367e-006
1.42372e-006
1.42378e-006
1.42384e-006
1.42388e-006
1.42394e-006
1.42399e-006
1.42405e-006
1.42409e-006
1.42416e-006
1.42418e-006
1.42424e-006
1.4243e-006
1.42432e-006
1.42439e-006
1.42442e-006
1.4245e-006
1.4245e-006
1.42456e-006
1.42459e-006
1.4246e-006
1.42482e-006
1.42477e-006
1.42477e-006
1.42477e-006
1.42453e-006
1.42469e-006
1.42472e-006
1.425e-006
1.42473e-006
1.42477e-006
1.42504e-006
1.42519e-006
1.42512e-006
1.42506e-006
1.42507e-006
1.42521e-006
1.42531e-006
1.42534e-006
1.42529e-006
1.4253e-006
1.42528e-006
1.42527e-006
1.42528e-006
1.42528e-006
1.42527e-006
1.42527e-006
1.42525e-006
1.42526e-006
1.42523e-006
1.42524e-006
1.42523e-006
1.42524e-006
1.42521e-006
1.42522e-006
1.42519e-006
1.42521e-006
1.42514e-006
1.42516e-006
1.42507e-006
1.42508e-006
1.42499e-006
1.42493e-006
1.42485e-006
1.42478e-006
1.42471e-006
1.4247e-006
1.42469e-006
1.42468e-006
1.42459e-006
1.42464e-006
1.42461e-006
1.42449e-006
1.4248e-006
1.42483e-006
1.42526e-006
1.42455e-006
1.4288e-006
1.41863e-006
1.33211e-006
1.95232e-006
1.20006e-007
1.1999e-007
1.19956e-007
1.19948e-007
1.20007e-007
1.20117e-007
1.20159e-007
1.20109e-007
1.20009e-007
1.20002e-007
1.20113e-007
1.2019e-007
1.20159e-007
1.20099e-007
1.20149e-007
1.202e-007
1.20175e-007
1.20111e-007
1.20115e-007
1.20282e-007
1.20372e-007
1.20364e-007
1.20211e-007
1.20128e-007
1.20193e-007
1.20318e-007
1.2032e-007
1.20367e-007
1.20457e-007
1.20484e-007
1.20361e-007
1.20222e-007
1.20211e-007
1.20342e-007
1.20401e-007
1.20409e-007
1.2042e-007
1.20431e-007
1.20442e-007
1.20454e-007
1.20465e-007
1.20477e-007
1.20489e-007
1.20501e-007
1.20514e-007
1.20525e-007
1.20538e-007
1.20552e-007
1.20565e-007
1.20566e-007
1.20567e-007
1.20578e-007
1.20603e-007
1.20623e-007
1.20634e-007
1.20644e-007
1.20657e-007
1.20668e-007
1.2068e-007
1.20691e-007
1.20702e-007
1.20714e-007
1.20724e-007
1.20737e-007
1.20747e-007
1.20759e-007
1.20768e-007
1.20782e-007
1.20789e-007
1.20801e-007
1.20812e-007
1.20819e-007
1.20833e-007
1.20843e-007
1.20848e-007
1.20862e-007
1.20877e-007
1.20892e-007
1.20912e-007
1.20933e-007
1.20935e-007
1.20952e-007
1.20958e-007
1.2094e-007
1.20951e-007
1.20962e-007
1.2097e-007
1.20932e-007
1.2095e-007
1.20958e-007
1.2095e-007
1.20942e-007
1.20955e-007
1.20969e-007
1.20974e-007
1.20979e-007
1.20978e-007
1.20988e-007
1.20989e-007
1.2101e-007
1.21006e-007
1.21014e-007
1.21007e-007
1.21012e-007
1.21021e-007
1.21013e-007
1.21025e-007
1.21011e-007
1.21022e-007
1.21006e-007
1.21022e-007
1.21005e-007
1.21017e-007
1.20997e-007
1.21014e-007
1.20992e-007
1.21002e-007
1.20981e-007
1.2098e-007
1.20967e-007
1.20951e-007
1.20926e-007
1.20913e-007
1.20891e-007
1.20876e-007
1.20855e-007
1.20842e-007
1.20817e-007
1.20803e-007
1.20806e-007
1.20765e-007
1.20798e-007
1.20662e-007
1.21413e-007
1.21485e-007
1.09623e-007
1.35632e-007
5.55467e-006
0.00106021
1.85197e-008
1.8521e-008
1.85202e-008
1.85269e-008
1.85417e-008
1.85502e-008
1.85439e-008
1.8534e-008
1.85352e-008
1.85509e-008
1.85714e-008
1.85692e-008
1.85553e-008
1.85554e-008
1.8576e-008
1.85847e-008
1.85795e-008
1.85627e-008
1.85679e-008
1.85945e-008
1.85998e-008
1.85914e-008
1.85697e-008
1.85686e-008
1.85873e-008
1.86068e-008
1.86096e-008
1.86207e-008
1.86322e-008
1.86287e-008
1.86089e-008
1.85966e-008
1.86046e-008
1.86306e-008
1.86394e-008
1.86423e-008
1.86463e-008
1.86496e-008
1.86529e-008
1.86563e-008
1.86599e-008
1.86636e-008
1.86674e-008
1.86715e-008
1.86754e-008
1.86788e-008
1.86823e-008
1.86856e-008
1.86875e-008
1.86899e-008
1.86961e-008
1.87021e-008
1.87058e-008
1.87067e-008
1.871e-008
1.8714e-008
1.87181e-008
1.87216e-008
1.87253e-008
1.87287e-008
1.87321e-008
1.87356e-008
1.87387e-008
1.87423e-008
1.87453e-008
1.87489e-008
1.87516e-008
1.87557e-008
1.87578e-008
1.87617e-008
1.87654e-008
1.87673e-008
1.8773e-008
1.87747e-008
1.87772e-008
1.87798e-008
1.87815e-008
1.87838e-008
1.8788e-008
1.87916e-008
1.87936e-008
1.87978e-008
1.87988e-008
1.87975e-008
1.87987e-008
1.88003e-008
1.88022e-008
1.88005e-008
1.88032e-008
1.88065e-008
1.88092e-008
1.88112e-008
1.8812e-008
1.88108e-008
1.88128e-008
1.88144e-008
1.88162e-008
1.88191e-008
1.88204e-008
1.88214e-008
1.88221e-008
1.88232e-008
1.88233e-008
1.88244e-008
1.88231e-008
1.88235e-008
1.88226e-008
1.88227e-008
1.88224e-008
1.88221e-008
1.88209e-008
1.88196e-008
1.88186e-008
1.88163e-008
1.88148e-008
1.88119e-008
1.88106e-008
1.88071e-008
1.88046e-008
1.88017e-008
1.87977e-008
1.87927e-008
1.87885e-008
1.87838e-008
1.87808e-008
1.87783e-008
1.87717e-008
1.8756e-008
1.87589e-008
1.87604e-008
1.87505e-008
1.86951e-008
1.90686e-008
1.79403e-008
1.6624e-008
4.09106e-008
2.73514e-006
0.000385205
0.0122167
4.68408e-009
4.68385e-009
4.68404e-009
4.68676e-009
4.68997e-009
4.69011e-009
4.68838e-009
4.6894e-009
4.6942e-009
4.69745e-009
4.69806e-009
4.69534e-009
4.69493e-009
4.70025e-009
4.70717e-009
4.70683e-009
4.70251e-009
4.69915e-009
4.70168e-009
4.70776e-009
4.70778e-009
4.70481e-009
4.70221e-009
4.70475e-009
4.71087e-009
4.71551e-009
4.71737e-009
4.71999e-009
4.72118e-009
4.71903e-009
4.71579e-009
4.71633e-009
4.72068e-009
4.72657e-009
4.72801e-009
4.72965e-009
4.73133e-009
4.73281e-009
4.73426e-009
4.73574e-009
4.73722e-009
4.73874e-009
4.74035e-009
4.74199e-009
4.74356e-009
4.74504e-009
4.74613e-009
4.74748e-009
4.74956e-009
4.75203e-009
4.75351e-009
4.7539e-009
4.75454e-009
4.75627e-009
4.7584e-009
4.75985e-009
4.76132e-009
4.76268e-009
4.76417e-009
4.76553e-009
4.76694e-009
4.76834e-009
4.76964e-009
4.77107e-009
4.77232e-009
4.77375e-009
4.77483e-009
4.77646e-009
4.77716e-009
4.77895e-009
4.77981e-009
4.78111e-009
4.78268e-009
4.78366e-009
4.78479e-009
4.78614e-009
4.78686e-009
4.7882e-009
4.78998e-009
4.79111e-009
4.79265e-009
4.79387e-009
4.79444e-009
4.79438e-009
4.79512e-009