/*--------------------------------*- C++ -*----------------------------------*\
| =========                 |                                                 |
| \\      /  F ield         | OpenFOAM: The Open Source CFD Toolbox           |
|  \\    /   O peration     | Version:  5.x                                   |
|   \\  /    A nd           | Web:      www.OpenFOAM.org                      |
|    \\/     M anipulation  |                                                 |
\*---------------------------------------------------------------------------*/
/*   Windows 32 and 64 bit porting by blueCAPE: http://www.bluecape.com.pt   *\
|  Based on Windows porting (2.0.x v4) by Symscape: http://www.symscape.com   |
\*---------------------------------------------------------------------------*/
FoamFile
{
    version     2.0;
    format      ascii;
    class       volScalarField;
    location    "400";
    object      k;
}
// * * * * * * * * * * * * * * * * * * * * * * * * * * * * * * * * * * * * * //

dimensions      [0 2 -2 0 0 0 0];

internalField   nonuniform List<scalar> 
43900
(
0.000985519
0.000989434
0.000990248
0.000990177
0.000990127
0.000990114
0.000990119
0.00099012
0.000990121
0.000990125
0.000990125
0.000990127
0.000990127
0.00099013
0.000990132
0.000990131
0.000990132
0.000990134
0.000990133
0.000990134
0.000990134
0.000990132
0.000990131
0.000990136
0.000990145
0.000990145
0.000990134
0.000990126
0.000990129
0.00165018
5.60359e-005
3.89319e-005
3.81747e-005
4.08091e-005
4.09656e-005
4.09869e-005
4.09549e-005
4.09559e-005
4.09613e-005
4.09625e-005
4.09661e-005
4.09664e-005
4.09702e-005
4.09733e-005
4.09729e-005
4.09751e-005
4.09769e-005
4.09772e-005
4.09796e-005
4.09796e-005
4.09769e-005
4.09764e-005
4.09837e-005
4.09949e-005
4.09939e-005
4.09784e-005
4.09686e-005
4.09742e-005
0.294465
0.0540238
0.00410518
0.000117925
5.00438e-006
3.08342e-006
2.97832e-006
3.34409e-006
3.38058e-006
3.37524e-006
3.37013e-006
3.37055e-006
3.37191e-006
3.37285e-006
3.37367e-006
3.37458e-006
3.37511e-006
3.37508e-006
3.37573e-006
3.3769e-006
3.37723e-006
3.37764e-006
3.37853e-006
3.37951e-006
3.37937e-006
3.37818e-006
3.37731e-006
3.37832e-006
3.38045e-006
0.88053
0.37698
0.120171
0.0238746
0.00208707
8.31918e-005
4.03059e-006
5.91999e-007
4.5802e-007
4.9827e-007
5.33558e-007
5.36601e-007
5.31581e-007
5.30105e-007
5.31011e-007
5.31484e-007
5.31358e-007
5.31356e-007
5.31582e-007
5.31773e-007
5.31898e-007
5.32107e-007
5.32253e-007
5.32302e-007
5.32261e-007
5.32202e-007
5.32328e-007
5.3257e-007
5.32831e-007
1.28939
0.73891
0.394698
0.176449
0.0561094
0.010323
0.000827414
3.7922e-005
1.72427e-006
2.32092e-007
1.28999e-007
1.25833e-007
1.44609e-007
1.48262e-007
1.45533e-007
1.45043e-007
1.45923e-007
1.45971e-007
1.45719e-007
1.45802e-007
1.45886e-007
1.45866e-007
1.45863e-007
1.4589e-007
1.45914e-007
1.45924e-007
1.45977e-007
1.46027e-007
1.46049e-007
1.54754
0.984885
0.617586
0.370674
0.199451
0.083833
0.0233998
0.00332898
0.000216265
1.05514e-005
5.61595e-007
9.85727e-008
5.39954e-008
5.45903e-008
6.1519e-008
6.16246e-008
5.95941e-008
5.98295e-008
6.05487e-008
6.03905e-008
6.03334e-008
6.04564e-008
6.05176e-008
6.05432e-008
6.05672e-008
6.05686e-008
6.05682e-008
6.05806e-008
6.05969e-008
1.71012
1.14931
0.772871
0.513617
0.330381
0.197961
0.100083
0.0349255
0.00705392
0.000653035
3.69732e-005
1.99791e-006
1.40892e-007
4.04116e-008
2.89778e-008
3.13811e-008
3.4878e-008
3.3658e-008
3.2785e-008
3.32568e-008
3.33071e-008
3.31033e-008
3.30983e-008
3.3109e-008
3.30824e-008
3.30824e-008
3.31104e-008
3.31267e-008
3.31365e-008
1.81233
1.25979
0.88149
0.616475
0.426379
0.28685
0.182229
0.102773
0.0434769
0.0113948
0.00146729
0.000100189
5.86694e-006
3.66767e-007
4.36701e-008
2.14861e-008
1.89496e-008
2.14729e-008
2.19778e-008
2.11244e-008
2.12556e-008
2.15779e-008
2.153e-008
2.15383e-008
2.1607e-008
2.16092e-008
2.15861e-008
2.15815e-008
2.15775e-008
1.87301
1.33257
0.957099
0.690677
0.497473
0.354342
0.246109
0.16277
0.0977778
0.046932
0.0142013
0.00223893
0.000180711
1.16811e-005
7.64133e-007
6.5222e-008
1.98861e-008
1.45604e-008
1.50729e-008
1.64006e-008
1.58216e-008
1.55588e-008
1.56888e-008
1.56587e-008
1.55769e-008
1.56086e-008
1.56813e-008
1.56906e-008
1.57024e-008
1.90067
1.37528
1.00649
0.742346
0.549212
0.405111
0.29543
0.210338
0.143176
0.0894784
0.0465258
0.0153767
0.00275309
0.000254165
1.81575e-005
1.28675e-006
1.04509e-007
1.93272e-008
1.22226e-008
1.12215e-008
1.23522e-008
1.23907e-008
1.2154e-008
1.2273e-008
1.23368e-008
1.22608e-008
1.22179e-008
1.22314e-008
1.22324e-008
1.90029
1.39174
1.03205
0.772829
0.582275
0.439457
0.330332
0.245349
0.177952
0.123631
0.0793628
0.0433749
0.0151022
0.0029167
0.000298003
2.34586e-005
1.81759e-006
1.51784e-007
2.16612e-008
1.12766e-008
9.41962e-009
9.90791e-009
1.02596e-008
9.97481e-009
9.96956e-009
1.0082e-008
1.00775e-008
1.00465e-008
1.00651e-008
1.89076
1.39877
1.04828
0.794067
0.606241
0.464907
0.356606
0.272092
0.204948
0.150686
0.106189
0.0693625
0.0390059
0.0141595
0.00288177
0.000320463
2.77543e-005
2.35714e-006
2.10101e-007
2.67531e-008
1.02915e-008
8.21872e-009
8.29591e-009
8.76296e-009
8.65364e-009
8.52007e-009
8.574e-009
8.60196e-009
8.54955e-009
1.86826
1.39431
1.05426
0.806321
0.62226
0.483199
0.376299
0.292686
0.226148
0.172294
0.128016
0.0911309
0.0601677
0.0342516
0.0127059
0.00266574
0.000318561
3.0363e-005
2.83554e-006
2.73998e-007
3.33016e-008
1.00099e-008
7.57738e-009
7.06838e-009
7.49e-009
7.53518e-009
7.44766e-009
7.48612e-009
7.56121e-009
1.83526
1.38036
1.05188
0.811057
0.631576
0.495497
0.390564
0.308288
0.242694
0.189529
0.145747
0.109165
0.0782397
0.051928
0.0296296
0.0108895
0.00229619
0.000290938
3.04673e-005
3.13283e-006
3.30245e-007
4.07038e-008
1.04252e-008
7.11787e-009
6.37774e-009
6.55896e-009
6.70678e-009
6.60145e-009
6.60868e-009
1.79408
1.3584
1.04264
0.809767
0.635474
0.502912
0.40042
0.31986
0.255506
0.203266
0.160186
0.124124
0.093534
0.0673174
0.0447419
0.025442
0.0090159
0.00188204
0.000251854
2.89781e-005
3.28447e-006
3.79223e-007
4.91012e-008
1.1259e-008
6.66841e-009
5.84029e-009
5.87988e-009
6.07846e-009
6.03712e-009
1.74646
1.33041
1.02749
0.803571
0.634972
0.506369
0.406659
0.328124
0.265263
0.214152
0.171942
0.136556
0.106474
0.0805914
0.0581252
0.0385708
0.0217282
0.00747807
0.00155106
0.000219569
2.75834e-005
3.42327e-006
4.30993e-007
5.91162e-008
1.24774e-008
6.40024e-009
5.50851e-009
5.3026e-009
5.4926e-009
1.69382
1.29767
1.00801
0.793056
0.630992
0.506565
0.40993
0.333635
0.272462
0.222645
0.181448
0.146867
0.117423
0.0920247
0.0698795
0.0504304
0.0333328
0.0184428
0.00617773
0.00128408
0.000193074
2.64009e-005
3.57183e-006
4.88634e-007
7.12355e-008
1.42826e-008
6.4113e-009
5.31052e-009
4.9673e-009
1.6373
1.2612
0.985065
0.779406
0.623819
0.504303
0.410895
0.337015
0.277646
0.229212
0.189102
0.155393
0.126656
0.101828
0.0801207
0.0609609
0.0439504
0.0288493
0.0155847
0.00510067
0.00107378
0.000172466
2.56678e-005
3.7813e-006
5.61414e-007
8.7201e-008
1.70944e-008
6.7384e-009
5.08628e-009
1.57779
1.22179
0.959378
0.763235
0.614355
0.499641
0.409879
0.3386
0.2812
0.234282
0.195354
0.162583
0.134605
0.110395
0.0891862
0.0704063
0.0536398
0.0386032
0.0251365
0.0132137
0.00424876
0.000915295
0.000157457
2.5441e-005
4.06516e-006
6.52031e-007
1.07863e-007
2.11738e-008
7.24464e-009
1.5161
1.18014
0.931523
0.745031
0.603008
0.493237
0.407146
0.33852
0.28318
0.237853
0.20019
0.168437
0.14129
0.117764
0.0971183
0.0787932
0.0623718
0.0475532
0.0341377
0.0220255
0.0112393
0.00357784
0.000795098
0.000146499
2.55846e-005
4.42033e-006
7.64504e-007
1.35216e-007
2.65395e-008
1.45293
1.13685
0.90201
0.725234
0.590166
0.485451
0.403096
0.3374
0.284153
0.240459
0.204081
0.17336
0.147056
0.12423
0.104169
0.0863298
0.0703027
0.0557813
0.0425476
0.0304638
0.0194768
0.00964212
0.00306386
0.000707779
0.000139693
2.62968e-005
4.88904e-006
9.09081e-007
1.68374e-007
1.38886
1.09239
0.871248
0.704186
0.57611
0.476498
0.397919
0.335049
0.283988
0.242
0.206968
0.177334
0.15192
0.129833
0.110393
0.0930777
0.0774889
0.0633233
0.0503565
0.0384319
0.027458
0.0174157
0.00837912
0.00268206
0.00064758
0.000136617
2.76171e-005
5.51204e-006
1.07547e-006
1.32439
1.0472
0.839595
0.682191
0.561106
0.466629
0.391879
0.331912
0.283142
0.242873
0.209201
0.180659
0.156138
0.134794
0.11598
0.0991974
0.084062
0.070278
0.057621
0.0459261
0.0350822
0.0250319
0.0157835
0.0074033
0.0024032
0.000607909
0.000136853
2.96326e-005
6.19487e-006
1.25998
1.00163
0.80735
0.659497
0.545358
0.456004
0.385082
0.328011
0.281452
0.242919
0.210659
0.183254
0.159666
0.1391
0.120941
0.104717
0.090061
0.0766866
0.0643744
0.052958
0.0423172
0.032375
0.0231
0.0145341
0.00667555
0.00220603
0.000585185
0.000140271
3.16939e-005
1.19599
0.956013
0.774774
0.636322
0.529053
0.444791
0.377694
0.323538
0.279238
0.242517
0.211643
0.185364
0.162703
0.142908
0.125404
0.109741
0.0955694
0.0826159
0.0706667
0.0595574
0.0491642
0.0393998
0.0302122
0.0215905
0.013599
0.00616214
0.00208061
0.000578752
0.000143655
1.13275
0.910595
0.742083
0.612846
0.512345
0.43312
0.369824
0.318577
0.276535
0.241592
0.212139
0.187004
0.165281
0.14627
0.129428
0.114333
0.100654
0.0881289
0.0765536
0.0657676
0.0556475
0.0461016
0.0370671
0.0285108
0.0204386
0.0129262
0.0058249
0.00201856
0.00057397
1.07052
0.865598
0.709456
0.589219
0.495357
0.421094
0.361556
0.313191
0.273385
0.240192
0.212144
0.188176
0.167413
0.149203
0.133039
0.118525
0.105348
0.0932625
0.0820721
0.0716229
0.0617942
0.0524933
0.0436526
0.0352281
0.0272015
0.0195907
0.0124741
0.00564492
0.00196863
1.00951
0.821199
0.677039
0.565563
0.478193
0.408806
0.352977
0.307471
0.269901
0.238485
0.211883
0.189054
0.169236
0.151819
0.136328
0.122393
0.109719
0.0980748
0.0872734
0.0771677
0.0676406
0.0586008
0.0499789
0.0417252
0.0338102
0.0262268
0.0189994
0.0122357
0.00549208
0.94991
0.777541
0.64495
0.541974
0.460933
0.396322
0.344144
0.301467
0.266115
0.236464
0.211284
0.189616
0.170754
0.154137
0.139327
0.125977
0.113812
0.102612
0.0922042
0.0824466
0.0732277
0.0644586
0.0560701
0.0480105
0.0402443
0.032753
0.0255386
0.0186447
0.0120284
0.891843
0.734735
0.613278
0.518525
0.443639
0.383695
0.335102
0.295213
0.262059
0.234159
0.210391
0.189891
0.171996
0.156191
0.142071
0.129314
0.117664
0.106916
0.0969064
0.0875022
0.0785969
0.0701051
0.0619594
0.0541077
0.0465121
0.0391481
0.0320063
0.0250988
0.0184684
0.835425
0.692871
0.582095
0.495273
0.426355
0.370962
0.325882
0.288739
0.257759
0.231601
0.209244
0.189898
0.172984
0.158005
0.144587
0.132434
0.121309
0.111022
0.101418
0.0923738
0.0837882
0.07558
0.0676841
0.0600496
0.0526377
0.0454214
0.0383853
0.031528
0.0248676
0.780749
0.652022
0.551459
0.472262
0.409115
0.358147
0.316503
0.282064
0.253238
0.228819
0.207885
0.189729
0.173785
0.15963
0.14692
0.135379
0.124788
0.114969
0.10578
0.0971027
0.0888436
0.0809251
0.0732854
0.0658749
0.0586555
0.0515991
0.0446872
0.0379119
0.0312758
0.727891
0.612251
0.521415
0.449526
0.391944
0.345267
0.306979
0.275195
0.248498
0.225807
0.206296
0.189324
0.174373
0.161061
0.149075
0.138162
0.12812
0.118785
0.110022
0.101724
0.0938016
0.0861816
0.0788055
0.0716259
0.0646058
0.0577172
0.0509404
0.0442642
0.0376848
0.676924
0.573615
0.492008
0.427096
0.374861
0.332336
0.297313
0.268132
0.243536
0.222562
0.204471
0.188683
0.174744
0.162297
0.151057
0.140794
0.131321
0.122489
0.114172
0.106269
0.0986976
0.0913885
0.0842865
0.0773466
0.0705331
0.0638189
0.0571843
0.0506167
0.0441098
0.627917
0.536174
0.463283
0.405006
0.357888
0.319365
0.287512
0.260876
0.238349
0.21908
0.202408
0.187817
0.174898
0.163338
0.152868
0.14328
0.134404
0.126099
0.118251
0.110765
0.103565
0.0965841
0.0897711
0.0830831
0.0764861
0.0699539
0.0634674
0.0570139
0.0505865
0.580945
0.499991
0.435293
0.383294
0.341053
0.306371
0.277584
0.253429
0.232935
0.215354
0.200103
0.18672
0.174841
0.164187
0.154513
0.145628
0.137376
0.129628
0.122279
0.115239
0.108436
0.101807
0.0953045
0.0888859
0.0825191
0.0761791
0.0698477
0.0635126
0.0571676
0.536086
0.465141
0.408101
0.362011
0.324395
0.293382
0.267547
0.245798
0.227295
0.211382
0.197547
0.185386
0.174577
0.164842
0.155986
0.147833
0.140239
0.133084
0.12627
0.119712
0.113341
0.107098
0.100934
0.0948106
0.0886947
0.0825623
0.076396
0.0701844
0.0639224
0.49343
0.431713
0.381788
0.341227
0.307969
0.28044
0.25743
0.238004
0.221437
0.207162
0.194731
0.183788
0.174046
0.165265
0.157261
0.149877
0.142981
0.136463
0.130229
0.124199
0.118306
0.112492
0.106709
0.100917
0.0950834
0.0891832
0.0831988
0.0771198
0.070942
0.453079
0.399812
0.356451
0.32103
0.291851
0.267608
0.247283
0.230082
0.215388
0.20271
0.191661
0.181929
0.173259
0.165442
0.15832
0.151741
0.145585
0.139749
0.134146
0.128699
0.123341
0.118015
0.112669
0.107262
0.101758
0.0961298
0.0903575
0.0844296
0.0783428
0.415146
0.369559
0.332212
0.301529
0.276141
0.254973
0.237179
0.222094
0.209194
0.198061
0.18836
0.179822
0.172224
0.165381
0.159154
0.153405
0.148023
0.142914
0.137994
0.13319
0.128433
0.123664
0.11883
0.11388
0.108776
0.103482
0.0979729
0.092234
0.0862594
0.379753
0.341092
0.309209
0.282862
0.260966
0.242652
0.227225
0.214132
0.202934
0.193278
0.184878
0.177501
0.170959
0.165094
0.159754
0.154842
0.150257
0.145909
0.141719
0.137615
0.133528
0.129396
0.125158
0.120759
0.116147
0.111277
0.106114
0.100631
0.0948161
0.347029
0.31456
0.287601
0.265188
0.246482
0.230794
0.21756
0.206326
0.196726
0.188465
0.1813
0.175035
0.169504
0.164571
0.160115
0.156038
0.152255
0.148684
0.145254
0.141894
0.138536
0.135115
0.131563
0.127816
0.123808
0.119479
0.114774
0.10965
0.10408
0.317103
0.290119
0.267558
0.248685
0.232872
0.219581
0.208362
0.198846
0.190732
0.183772
0.177765
0.172542
0.167966
0.163918
0.160298
0.157023
0.154017
0.151211
0.148541
0.145942
0.143348
0.140693
0.137903
0.134905
0.131617
0.127958
0.12385
0.11922
0.114013
0.290092
0.267922
0.249256
0.233542
0.220331
0.209215
0.199836
0.191898
0.185152
0.179395
0.174456
0.170196
0.166497
0.163264
0.160414
0.157875
0.155591
0.153504
0.15156
0.149702
0.147871
0.146001
0.14402
0.141843
0.139375
0.136513
0.133146
0.129163
0.124468
0.266087
0.248099
0.232852
0.219939
0.209059
0.199906
0.192201
0.185705
0.180215
0.17556
0.171597
0.168211
0.165305
0.1628
0.16063
0.158738
0.15709
0.155642
0.154351
0.153173
0.152059
0.150951
0.149779
0.148457
0.146876
0.144911
0.142419
0.139239
0.135212
0.245136
0.230743
0.218472
0.208027
0.199226
0.191844
0.185664
0.18049
0.176153
0.172508
0.169435
0.166836
0.164632
0.162764
0.161156
0.159813
0.158696
0.157777
0.157033
0.156434
0.155948
0.155527
0.155116
0.154629
0.153953
0.152944
0.151434
0.149196
0.145988
0.22722
0.215882
0.206181
0.197903
0.190957
0.185179
0.180396
0.176445
0.173179
0.170473
0.168218
0.166336
0.164745
0.163385
0.162269
0.16137
0.160665
0.16015
0.15982
0.159664
0.159677
0.159815
0.160066
0.16034
0.160525
0.160467
0.160016
0.158835
0.15657
0.212234
0.203465
0.195969
0.189593
0.184311
0.180001
0.17652
0.173724
0.171481
0.169674
0.168199
0.166948
0.165897
0.165028
0.164328
0.163766
0.163354
0.163109
0.163049
0.16317
0.163507
0.164062
0.164813
0.165711
0.166668
0.167537
0.168094
0.167946
0.166798
0.199992
0.19336
0.18775
0.18305
0.179278
0.176338
0.174103
0.172438
0.171214
0.170283
0.16956
0.168993
0.168524
0.168124
0.167772
0.167476
0.167261
0.167163
0.167218
0.167453
0.16794
0.168698
0.169743
0.171064
0.172612
0.174266
0.175819
0.176791
0.176588
0.190231
0.185363
0.181368
0.178162
0.175789
0.174165
0.173168
0.172655
0.17247
0.172515
0.172683
0.172888
0.173056
0.173157
0.17318
0.173149
0.173089
0.173059
0.173115
0.173318
0.173757
0.174496
0.175586
0.177065
0.178935
0.181134
0.183518
0.185564
0.186479
0.182644
0.179224
0.176623
0.174774
0.173732
0.173416
0.173687
0.174401
0.175437
0.176635
0.177856
0.179001
0.179987
0.180767
0.181322
0.181668
0.181841
0.181905
0.181938
0.182028
0.182274
0.182789
0.183665
0.184989
0.186828
0.189201
0.192105
0.19498
0.197096
0.176901
0.174672
0.173293
0.172706
0.172969
0.173985
0.175635
0.177771
0.180216
0.1828
0.185363
0.187773
0.189919
0.191726
0.193154
0.194198
0.194889
0.195285
0.19547
0.195545
0.195633
0.195855
0.196348
0.197249
0.198673
0.200746
0.203675
0.206864
0.209918
0.172681
0.171438
0.171151
0.171766
0.173341
0.175783
0.178972
0.182726
0.18686
0.191181
0.195501
0.19965
0.203483
0.206886
0.209783
0.21214
0.21396
0.215284
0.216184
0.216756
0.217117
0.217398
0.217737
0.218287
0.219178
0.220646
0.223073
0.225798
0.228719
0.169687
0.169267
0.169977
0.171772
0.174701
0.178688
0.183587
0.189221
0.195392
0.201886
0.20849
0.215002
0.221237
0.227043
0.232304
0.236947
0.240944
0.244307
0.247086
0.24936
0.25123
0.252808
0.254208
0.255569
0.256955
0.258545
0.2607
0.262786
0.26359
0.167655
0.167932
0.169575
0.172542
0.176895
0.182545
0.189361
0.197166
0.205761
0.214922
0.224423
0.234036
0.243551
0.252782
0.261582
0.26985
0.277533
0.284628
0.29118
0.297268
0.303003
0.308512
0.313917
0.319368
0.324895
0.330679
0.336122
0.34136
0.337104
0.166359
0.167232
0.169769
0.173919
0.179754
0.1872
0.19614
0.206412
0.217828
0.230173
0.24322
0.256739
0.27051
0.284337
0.298066
0.31159
0.324866
0.337914
0.350818
0.363727
0.37685
0.390447
0.404825
0.420352
0.437346
0.456802
0.47744
0.503183
0.491036
0.165606
0.166994
0.170398
0.175739
0.18312
0.192484
0.203739
0.216755
0.231369
0.247394
0.264628
0.282862
0.301898
0.321564
0.341733
0.362341
0.383402
0.405023
0.427411
0.450888
0.475905
0.503059
0.533153
0.567194
0.606556
0.653619
0.709393
0.786826
0.773577
0.165244
0.167075
0.17133
0.177866
0.186844
0.198227
0.211961
0.227957
0.246099
0.266251
0.288262
0.31198
0.337266
0.364017
0.392188
0.421818
0.453055
0.486179
0.521632
0.560053
0.602335
0.649678
0.703807
0.766899
0.842686
0.935361
1.05452
1.20716
1.22531
0.165187
0.167391
0.172493
0.180221
0.190835
0.204315
0.220656
0.239825
0.261772
0.286436
0.313751
0.34366
0.376133
0.411192
0.448947
0.48962
0.533591
0.581437
0.633985
0.692385
0.758235
0.833684
0.921952
1.02703
1.15673
1.31753
1.53666
1.78719
1.93524
0.000990142
0.000990146
0.000990139
0.000990135
0.000990132
0.000990127
0.00099013
0.000990142
0.000990153
0.000990149
0.000990135
0.000990132
0.000990137
0.000990144
0.00099015
0.000990158
0.000990157
0.000990146
0.000990136
0.000990138
0.000990152
0.000990163
0.000990152
0.00099014
0.000990132
0.000990144
0.000990147
0.000990147
0.00099015
0.00099016
0.000990161
0.000990143
0.000990128
0.000990128
0.000990142
0.000990144
0.000990144
0.000990144
0.000990144
0.000990145
0.000990145
0.000990145
0.000990145
0.000990145
0.000990145
0.000990146
0.000990146
0.000990146
0.000990145
0.000990144
0.000990145
0.000990147
0.000990148
0.000990148
0.000990148
0.000990149
0.000990149
0.000990149
0.000990149
0.000990149
0.000990149
0.00099015
0.00099015
0.00099015
0.00099015
0.00099015
0.000990151
0.000990151
0.000990151
0.000990151
0.000990152
0.000990152
0.000990152
0.000990152
0.000990152
0.000990153
0.000990152
0.000990153
0.000990155
0.000990156
0.000990156
0.000990154
0.000990157
0.000990154
0.000990157
0.000990157
0.000990162
0.000990157
0.000990153
0.000990151
0.000990155
0.000990155
0.000990153
0.000990154
0.000990154
0.000990158
0.000990158
0.00099016
0.000990159
0.000990159
0.000990159
0.000990159
0.000990159
0.000990159
0.000990159
0.000990159
0.000990159
0.000990159
0.000990159
0.000990159
0.000990159
0.000990159
0.000990159
0.000990159
0.000990159
0.000990159
0.000990159
0.00099016
0.00099016
0.00099016
0.00099016
0.00099016
0.00099016
0.00099016
0.00099016
0.00099016
0.00099016
0.00099016
0.00099016
0.000990161
0.000990162
0.000990164
0.000990163
0.000990166
0.000990165
0.00099017
0.000990167
0.000990179
0.00100813
4.09934e-005
4.09969e-005
4.09864e-005
4.09813e-005
4.09761e-005
4.09716e-005
4.09776e-005
4.09956e-005
4.10089e-005
4.10009e-005
4.09817e-005
4.0979e-005
4.09874e-005
4.09965e-005
4.10048e-005
4.10147e-005
4.10137e-005
4.0998e-005
4.09832e-005
4.09894e-005
4.10101e-005
4.10255e-005
4.10088e-005
4.09897e-005
4.09784e-005
4.09972e-005
4.10013e-005
4.10014e-005
4.10077e-005
4.10223e-005
4.1022e-005
4.09949e-005
4.09727e-005
4.09742e-005
4.09949e-005
4.09975e-005
4.09979e-005
4.09982e-005
4.09985e-005
4.09988e-005
4.0999e-005
4.09993e-005
4.09996e-005
4.09998e-005
4.10001e-005
4.10003e-005
4.10006e-005
4.10012e-005
4.09994e-005
4.09984e-005
4.10004e-005
4.10032e-005
4.10043e-005
4.10045e-005
4.10048e-005
4.10051e-005
4.10054e-005
4.10057e-005
4.1006e-005
4.10064e-005
4.10067e-005
4.10071e-005
4.10074e-005
4.10078e-005
4.10082e-005
4.10086e-005
4.1009e-005
4.10095e-005
4.10098e-005
4.10101e-005
4.10106e-005
4.1011e-005
4.10115e-005
4.10118e-005
4.1012e-005
4.10125e-005
4.10114e-005
4.10123e-005
4.10148e-005
4.10173e-005
4.10168e-005
4.10149e-005
4.1018e-005
4.10135e-005
4.10182e-005
4.1018e-005
4.10251e-005
4.1019e-005
4.10132e-005
4.10118e-005
4.10163e-005
4.10163e-005
4.10144e-005
4.10147e-005
4.1016e-005
4.10205e-005
4.10208e-005
4.1023e-005
4.10226e-005
4.10225e-005
4.10223e-005
4.10221e-005
4.1022e-005
4.1022e-005
4.10219e-005
4.10219e-005
4.10218e-005
4.10218e-005
4.10218e-005
4.10218e-005
4.10219e-005
4.1022e-005
4.10221e-005
4.10221e-005
4.10223e-005
4.10224e-005
4.10226e-005
4.10226e-005
4.10227e-005
4.10227e-005
4.10225e-005
4.10224e-005
4.10223e-005
4.10222e-005
4.10225e-005
4.10226e-005
4.10227e-005
4.10228e-005
4.1023e-005
4.10245e-005
4.10246e-005
4.10282e-005
4.10264e-005
4.10327e-005
4.10291e-005
4.10361e-005
4.1036e-005
4.10683e-005
4.4701e-005
3.3812e-006
3.38036e-006
3.37928e-006
3.37882e-006
3.37868e-006
3.38015e-006
3.38257e-006
3.38399e-006
3.38209e-006
3.37952e-006
3.37942e-006
3.38191e-006
3.38325e-006
3.38282e-006
3.38254e-006
3.38306e-006
3.38216e-006
3.38131e-006
3.38033e-006
3.38336e-006
3.38612e-006
3.38734e-006
3.38424e-006
3.38128e-006
3.38106e-006
3.3835e-006
3.38395e-006
3.38481e-006
3.38667e-006
3.38848e-006
3.38673e-006
3.38276e-006
3.38069e-006
3.38306e-006
3.38505e-006
3.3852e-006
3.38527e-006
3.38534e-006
3.3854e-006
3.38549e-006
3.38558e-006
3.38568e-006
3.38579e-006
3.3859e-006
3.38602e-006
3.38613e-006
3.38624e-006
3.38637e-006
3.38652e-006
3.38688e-006
3.38704e-006
3.38696e-006
3.38685e-006
3.38697e-006
3.38716e-006
3.38733e-006
3.38751e-006
3.38765e-006
3.3878e-006
3.38793e-006
3.38807e-006
3.38821e-006
3.38832e-006
3.38847e-006
3.38858e-006
3.38873e-006
3.38882e-006
3.38898e-006
3.38905e-006
3.38919e-006
3.38933e-006
3.38937e-006
3.38955e-006
3.38961e-006
3.38981e-006
3.3898e-006
3.38997e-006
3.39007e-006
3.39009e-006
3.39061e-006
3.3905e-006
3.39053e-006
3.39051e-006
3.38996e-006
3.39031e-006
3.39041e-006
3.39099e-006
3.39036e-006
3.39052e-006
3.39117e-006
3.39145e-006
3.39127e-006
3.39118e-006
3.39123e-006
3.39153e-006
3.39174e-006
3.3918e-006
3.39168e-006
3.3917e-006
3.39169e-006
3.39166e-006
3.39168e-006
3.39167e-006
3.39166e-006
3.39168e-006
3.39162e-006
3.39166e-006
3.39159e-006
3.39162e-006
3.39157e-006
3.39161e-006
3.39152e-006
3.39157e-006
3.39148e-006
3.39154e-006
3.39137e-006
3.39143e-006
3.39121e-006
3.39122e-006
3.39103e-006
3.39087e-006
3.39068e-006
3.3905e-006
3.39033e-006
3.3903e-006
3.39026e-006
3.39022e-006
3.38999e-006
3.39012e-006
3.39004e-006
3.38973e-006
3.39045e-006
3.39063e-006
3.39123e-006
3.3895e-006
3.40649e-006
3.36256e-006
3.08125e-006
5.12936e-006
5.32833e-007
5.32767e-007
5.32638e-007
5.3263e-007
5.32919e-007
5.33394e-007
5.33521e-007
5.33235e-007
5.32827e-007
5.32859e-007
5.33413e-007
5.337e-007
5.33511e-007
5.33233e-007
5.33487e-007
5.3371e-007
5.33596e-007
5.33298e-007
5.33351e-007
5.34087e-007
5.34426e-007
5.34334e-007
5.33667e-007
5.33353e-007
5.33694e-007
5.34213e-007
5.34219e-007
5.34431e-007
5.34821e-007
5.34883e-007
5.3432e-007
5.33751e-007
5.33759e-007
5.34356e-007
5.34581e-007
5.34617e-007
5.34664e-007
5.34712e-007
5.3476e-007
5.3481e-007
5.3486e-007
5.3491e-007
5.34963e-007
5.35019e-007
5.35074e-007
5.35124e-007
5.35181e-007
5.35241e-007
5.35291e-007
5.35292e-007
5.35305e-007
5.35363e-007
5.35476e-007
5.3555e-007
5.35596e-007
5.35642e-007
5.35697e-007
5.35744e-007
5.35798e-007
5.35845e-007
5.35896e-007
5.35948e-007
5.35992e-007
5.36048e-007
5.36091e-007
5.36145e-007
5.36183e-007
5.36244e-007
5.36275e-007
5.36327e-007
5.3638e-007
5.36407e-007
5.36474e-007
5.36514e-007
5.36536e-007
5.36597e-007
5.36661e-007
5.36725e-007
5.3681e-007
5.36897e-007
5.36909e-007
5.36989e-007
5.37008e-007
5.36938e-007
5.36972e-007
5.37024e-007
5.37049e-007
5.36896e-007
5.36982e-007
5.37018e-007
5.36983e-007
5.36957e-007
5.3701e-007
5.37064e-007
5.37084e-007
5.37095e-007
5.37097e-007
5.37143e-007
5.37154e-007
5.37239e-007
5.37228e-007
5.3726e-007
5.37234e-007
5.37254e-007
5.37284e-007
5.37255e-007
5.37297e-007
5.37246e-007
5.37288e-007
5.37224e-007
5.37285e-007
5.37218e-007
5.37262e-007
5.37184e-007
5.37243e-007
5.37156e-007
5.37193e-007
5.37108e-007
5.37097e-007
5.37043e-007
5.36973e-007
5.36868e-007
5.36813e-007
5.36718e-007
5.36654e-007
5.36559e-007
5.36498e-007
5.3641e-007
5.36332e-007
5.36329e-007
5.36173e-007
5.36397e-007
5.35133e-007
5.41015e-007
5.41603e-007
4.48052e-007
6.94665e-007
6.08789e-005
0.00821164
1.46079e-007
1.46087e-007
1.46089e-007
1.46147e-007
1.46263e-007
1.46312e-007
1.46248e-007
1.46171e-007
1.46203e-007
1.4634e-007
1.46482e-007
1.46443e-007
1.46331e-007
1.46353e-007
1.46521e-007
1.46575e-007
1.46525e-007
1.46393e-007
1.4644e-007
1.46632e-007
1.46653e-007
1.46571e-007
1.46424e-007
1.46434e-007
1.4659e-007
1.46719e-007
1.46745e-007
1.46829e-007
1.46901e-007
1.46852e-007
1.46702e-007
1.46636e-007
1.46714e-007
1.46909e-007
1.4696e-007
1.46983e-007
1.47013e-007
1.47038e-007
1.47062e-007
1.47088e-007
1.47115e-007
1.47142e-007
1.4717e-007
1.47201e-007
1.47231e-007
1.47257e-007
1.4728e-007
1.47302e-007
1.47319e-007
1.47346e-007
1.47393e-007
1.47431e-007
1.47449e-007
1.47457e-007
1.47485e-007
1.47515e-007
1.47546e-007
1.47571e-007
1.47599e-007
1.47624e-007
1.4765e-007
1.47676e-007
1.47698e-007
1.47726e-007
1.47748e-007
1.47775e-007
1.47795e-007
1.47826e-007
1.47841e-007
1.4787e-007
1.47896e-007
1.47911e-007
1.47953e-007
1.47965e-007
1.47985e-007
1.48004e-007
1.48017e-007
1.48036e-007
1.48067e-007
1.48091e-007
1.48111e-007
1.48144e-007
1.48149e-007
1.4814e-007
1.48146e-007
1.48158e-007
1.48167e-007
1.48157e-007
1.48177e-007
1.48203e-007
1.48223e-007
1.48237e-007
1.48239e-007
1.48231e-007
1.48247e-007
1.48261e-007
1.48278e-007
1.483e-007
1.48311e-007
1.48315e-007
1.48322e-007
1.48328e-007
1.48331e-007
1.4834e-007
1.48329e-007
1.48334e-007
1.48325e-007
1.48327e-007
1.48322e-007
1.48323e-007
1.4831e-007
1.48304e-007
1.48292e-007
1.48278e-007
1.48261e-007
1.48243e-007
1.4823e-007
1.48207e-007
1.48186e-007
1.48164e-007
1.48135e-007
1.48101e-007
1.48067e-007
1.48033e-007
1.48018e-007
1.48016e-007
1.47962e-007
1.47781e-007
1.4787e-007
1.47897e-007
1.47804e-007
1.47069e-007
1.52257e-007
1.35838e-007
1.28406e-007
5.4047e-007
4.68871e-005
0.00483434
0.0947156
6.0628e-008
6.06237e-008
6.06285e-008
6.06643e-008
6.06998e-008
6.06945e-008
6.06718e-008
6.06892e-008
6.07563e-008
6.07956e-008
6.07905e-008
6.07505e-008
6.07498e-008
6.08252e-008
6.09065e-008
6.08969e-008
6.0832e-008
6.07951e-008
6.08281e-008
6.08939e-008
6.0888e-008
6.08417e-008
6.08203e-008
6.08571e-008
6.09387e-008
6.09872e-008
6.10097e-008
6.10367e-008
6.10404e-008
6.10071e-008
6.09774e-008
6.09919e-008
6.10539e-008
6.1116e-008
6.11301e-008
6.11488e-008
6.11678e-008
6.11842e-008
6.12005e-008
6.12173e-008
6.12342e-008
6.12515e-008
6.12703e-008
6.1289e-008
6.13064e-008
6.13226e-008
6.13364e-008
6.13537e-008
6.13792e-008
6.14047e-008
6.14162e-008
6.14201e-008
6.14311e-008
6.14559e-008
6.14791e-008
6.14941e-008
6.15105e-008
6.15258e-008
6.15429e-008
6.15582e-008
6.15745e-008
6.15904e-008
6.16055e-008
6.16216e-008
6.16363e-008
6.16523e-008
6.16652e-008
6.16833e-008
6.16919e-008
6.1712e-008
6.17221e-008
6.17371e-008
6.17552e-008
6.17663e-008
6.17796e-008
6.17952e-008
6.18027e-008
6.18175e-008
6.18378e-008
6.18486e-008
6.18665e-008
6.18796e-008
6.18872e-008
6.18889e-008
6.18983e-008
6.19011e-008
6.1899e-008
6.18976e-008
6.19044e-008
6.192e-008
6.19348e-008
6.1936e-008
6.19357e-008
6.19446e-008
6.1959e-008
6.19726e-008
6.19804e-008
6.19856e-008
6.19881e-008
6.19951e-008
6.19959e-008
6.20004e-008
6.20017e-008
6.20072e-008
6.20089e-008
6.20124e-008
6.20135e-008
6.20106e-008
6.20065e-008
6.20051e-008
6.20007e-008
6.19947e-008
6.19855e-008
6.19768e-008
6.19673e-008
6.19572e-008
6.19477e-008
6.19366e-008
6.1924e-008
6.19109e-008
6.18969e-008
6.18775e-008
6.18595e-008
6.18353e-008
6.17827e-008
6.17248e-008
6.17298e-008
6.18902e-008
6.15906e-008
6.16483e-008
6.14799e-008
6.3045e-008
5.21069e-008
7.74362e-008
1.05771e-006
8.01182e-005
0.00429464
0.0676064
0.372796
3.31583e-008
3.31666e-008
3.31775e-008
3.319e-008
3.31955e-008
3.31942e-008
3.31954e-008
3.32156e-008
3.32541e-008
3.32669e-008
3.32581e-008
3.32449e-008
3.32545e-008
3.33011e-008
3.33325e-008
3.33258e-008
3.32951e-008
3.32887e-008
3.32961e-008
3.33147e-008
3.33225e-008
3.332e-008
3.33302e-008
3.33527e-008
3.33734e-008
3.33936e-008
3.34175e-008
3.344e-008
3.34439e-008
3.3437e-008
3.34362e-008
3.34434e-008
3.34689e-008
3.34932e-008
3.35171e-008
3.35343e-008
3.35483e-008
3.35607e-008
3.35721e-008
3.35836e-008
3.35955e-008
3.36088e-008
3.36229e-008
3.36375e-008
3.36518e-008
3.36671e-008
3.36827e-008
3.36912e-008
3.3697e-008
3.3702e-008
3.37108e-008
3.37281e-008
3.37473e-008
3.37619e-008
3.37699e-008
3.37816e-008
3.3795e-008
3.38079e-008
3.38202e-008
3.38324e-008
3.3844e-008
3.38562e-008
3.38674e-008
3.38793e-008
3.38904e-008
3.39013e-008
3.39125e-008
3.39231e-008
3.39319e-008
3.39442e-008
3.39509e-008
3.39634e-008
3.39723e-008
3.39808e-008
3.39888e-008
3.39983e-008
3.40014e-008
3.40088e-008
3.40234e-008
3.40253e-008
3.40308e-008
3.40411e-008
3.4053e-008
3.40621e-008
3.40746e-008
3.40791e-008
3.40758e-008
3.40753e-008
3.40821e-008
3.40929e-008
3.41036e-008
3.41081e-008
3.4115e-008
3.41268e-008
3.41317e-008
3.4135e-008
3.41337e-008
3.41354e-008
3.41355e-008
3.41435e-008
3.4145e-008
3.4149e-008
3.41494e-008
3.41483e-008
3.41527e-008
3.41519e-008
3.4157e-008
3.41533e-008
3.41546e-008
3.41488e-008
3.41503e-008
3.41435e-008
3.41427e-008
3.41335e-008
3.41321e-008
3.41237e-008
3.41206e-008
3.41124e-008