/*--------------------------------*- C++ -*----------------------------------*\
| =========                 |                                                 |
| \\      /  F ield         | OpenFOAM: The Open Source CFD Toolbox           |
|  \\    /   O peration     | Version:  5.x                                   |
|   \\  /    A nd           | Web:      www.OpenFOAM.org                      |
|    \\/     M anipulation  |                                                 |
\*---------------------------------------------------------------------------*/
/*   Windows 32 and 64 bit porting by blueCAPE: http://www.bluecape.com.pt   *\
|  Based on Windows porting (2.0.x v4) by Symscape: http://www.symscape.com   |
\*---------------------------------------------------------------------------*/
FoamFile
{
    version     2.0;
    format      ascii;
    class       volScalarField;
    location    "400";
    object      nut;
}
// * * * * * * * * * * * * * * * * * * * * * * * * * * * * * * * * * * * * * //

dimensions      [0 2 -1 0 0 0 0];

internalField   nonuniform List<scalar> 
43900
(
5.71601e-005
5.80006e-005
5.80694e-005
5.80642e-005
5.80595e-005
5.80585e-005
5.80589e-005
5.80589e-005
5.8059e-005
5.80593e-005
5.80593e-005
5.80595e-005
5.80595e-005
5.80597e-005
5.80598e-005
5.80597e-005
5.80599e-005
5.806e-005
5.80599e-005
5.806e-005
5.806e-005
5.80599e-005
5.80598e-005
5.80602e-005
5.80608e-005
5.80608e-005
5.806e-005
5.80594e-005
5.80596e-005
0.000591868
7.39811e-006
4.30789e-006
4.16114e-006
4.57963e-006
4.60585e-006
4.60892e-006
4.60373e-006
4.60375e-006
4.60437e-006
4.60455e-006
4.60497e-006
4.605e-006
4.60543e-006
4.6058e-006
4.60579e-006
4.60604e-006
4.60621e-006
4.60626e-006
4.60657e-006
4.60657e-006
4.6063e-006
4.60628e-006
4.60712e-006
4.6083e-006
4.6081e-006
4.60639e-006
4.60539e-006
4.60611e-006
0.1535
0.045649
0.00523241
0.000108892
1.31715e-006
6.44498e-007
6.01798e-007
7.1403e-007
7.25048e-007
7.23387e-007
7.21716e-007
7.21749e-007
7.22118e-007
7.2234e-007
7.22503e-007
7.22701e-007
7.22815e-007
7.22801e-007
7.22941e-007
7.2319e-007
7.23264e-007
7.23369e-007
7.23559e-007
7.23747e-007
7.23694e-007
7.23436e-007
7.23292e-007
7.23527e-007
7.23986e-007
0.476204
0.292079
0.134227
0.0387975
0.00467436
0.000181666
4.26223e-006
2.57223e-007
1.74278e-007
1.93456e-007
2.13776e-007
2.15573e-007
2.12601e-007
2.11719e-007
2.12213e-007
2.12446e-007
2.12345e-007
2.12337e-007
2.12445e-007
2.12517e-007
2.12564e-007
2.12647e-007
2.12702e-007
2.12717e-007
2.12703e-007
2.12682e-007
2.12745e-007
2.1284e-007
2.12933e-007
0.756867
0.58155
0.41412
0.249141
0.106983
0.0268208
0.0027318
0.000133045
3.14618e-006
2.16943e-007
9.07328e-008
8.33852e-008
1.02217e-007
1.06204e-007
1.03316e-007
1.02786e-007
1.03704e-007
1.03747e-007
1.03462e-007
1.0353e-007
1.03604e-007
1.03572e-007
1.0356e-007
1.03574e-007
1.03589e-007
1.03597e-007
1.03639e-007
1.03676e-007
1.03681e-007
0.967513
0.799501
0.643258
0.491539
0.339673
0.189015
0.0689807
0.0126998
0.000965525
4.8523e-005
1.46747e-006
1.56907e-007
6.39618e-008
6.06349e-008
7.20696e-008
7.24918e-008
6.89652e-008
6.93708e-008
7.06035e-008
7.0309e-008
7.02018e-008
7.04102e-008
7.05073e-008
7.05377e-008
7.05711e-008
7.05748e-008
7.05662e-008
7.05747e-008
7.05945e-008
1.12487
0.962578
0.8143
0.673778
0.536006
0.397042
0.254244
0.113083
0.0293272
0.00327653
0.00020228
1.06918e-005
4.05154e-007
8.42246e-008
4.9739e-008
5.32147e-008
6.25482e-008
5.94187e-008
5.70139e-008
5.82394e-008
5.83609e-008
5.78096e-008
5.77841e-008
5.77988e-008
5.77252e-008
5.77249e-008
5.77916e-008
5.78228e-008
5.78411e-008
1.24497
1.0871
0.944443
0.811442
0.683463
0.556716
0.428488
0.298495
0.162884
0.0536108
0.00841586
0.000636168
3.89089e-005
2.14565e-006
1.3769e-007
5.66061e-008
4.29802e-008
5.08536e-008
5.34481e-008
5.04207e-008
5.08584e-008
5.20393e-008
5.1868e-008
5.1889e-008
5.21306e-008
5.21331e-008
5.2033e-008
5.20038e-008
5.19798e-008
1.33633
1.18264
1.04477
0.917656
0.797083
0.679533
0.562175
0.442898
0.319825
0.192986
0.0726606
0.0139775
0.0012602
8.60085e-005
5.599e-006
3.38208e-007
7.38424e-008
4.76609e-008
4.59891e-008
5.22992e-008
4.97595e-008
4.83252e-008
4.89112e-008
4.87686e-008
4.83727e-008
4.85156e-008
4.88456e-008
4.8882e-008
4.89329e-008
1.40186
1.25357
1.12066
0.999206
0.885263
0.775504
0.667147
0.557924
0.446049
0.330393
0.211167
0.085981
0.0186776
0.00192855
0.000145424
1.05598e-005
7.51749e-007
8.48329e-008
5.08045e-008
4.11795e-008
4.68904e-008
4.78223e-008
4.65096e-008
4.71194e-008
4.74896e-008
4.7047e-008
4.67579e-008
4.68222e-008
4.68213e-008
1.44566
1.30034
1.17253
1.05636
0.948496
0.845762
0.745452
0.645309
0.543514
0.438732
0.330241
0.218435
0.0928411
0.0215664
0.00245319
0.000203127
1.62461e-005
1.28106e-006
1.27779e-007
5.82011e-008
4.27321e-008
4.39877e-008
4.70502e-008
4.52076e-008
4.50744e-008
4.58436e-008
4.58506e-008
4.56514e-008
4.57594e-008
1.48416
1.34189
1.21664
1.10402
1.00019
0.902361
0.807955
0.714761
0.620946
0.525071
0.426133
0.323672
0.218214
0.0971126
0.0234815
0.00288219
0.000261152
2.28689e-005
2.003e-006
2.02563e-007
5.87505e-008
4.5205e-008
4.28642e-008
4.63118e-008
4.5875e-008
4.45565e-008
4.48779e-008
4.51352e-008
4.47409e-008
1.51152
1.37281
1.2504
1.14148
1.04154
0.94802
0.858581
0.771122
0.683862
0.595343
0.504445
0.410408
0.312848
0.211708
0.0966112
0.023797
0.00310785
0.000308379
2.96226e-005
2.86476e-006
2.96718e-007
6.44911e-008
4.82528e-008
4.08679e-008
4.37593e-008
4.48168e-008
4.41697e-008
4.43508e-008
4.49487e-008
1.53
1.39547
1.27638
1.16993
1.07417
0.984604
0.899581
0.8171
0.735445
0.65318
0.569147
0.482469
0.392537
0.29897
0.201511
0.0901628
0.0220692
0.00302442
0.000328548
3.47016e-005
3.68868e-006
4.08124e-007
7.93345e-008
5.09798e-008
4.18812e-008
4.2059e-008
4.40185e-008
4.326e-008
4.32134e-008
1.54139
1.41052
1.29573
1.1925
1.09912
1.01404
0.933045
0.855002
0.778268
0.701446
0.623382
0.543159
0.460088
0.37369
0.283668
0.19008
0.0800303
0.0191573
0.00274575
0.000326962
3.80433e-005
4.4482e-006
5.39922e-007
9.88647e-008
5.05391e-008
4.35053e-008
4.19135e-008
4.37679e-008
4.37064e-008
1.54714
1.42
1.30865
1.20976
1.11941
1.03677
0.9602
0.886271
0.814009
0.742063
0.6693
0.5948
0.517844
0.437903
0.354629
0.267885
0.178134
0.0718173
0.0167867
0.00251665
0.000325853
4.14197e-005
5.28988e-006
6.99632e-007
1.21455e-007
5.16191e-008
4.50595e-008
4.07571e-008
4.22671e-008
1.54835
1.425
1.31714
1.22155
1.13554
1.05563
0.981791
0.912021
0.843887
0.776411
0.708482
0.639182
0.567777
0.493709
0.416577
0.336136
0.252287
0.1648
0.0639101
0.0147323
0.00232404
0.000326313
4.51089e-005
6.26367e-006
8.934e-007
1.52533e-007
5.7185e-008
4.7451e-008
4.14951e-008
1.54586
1.42639
1.32205
1.22978
1.14698
1.07145
1.00037
0.933718
0.869213
0.80566
0.741999
0.677322
0.610892
0.542124
0.47058
0.395947
0.318009
0.236551
0.151117
0.056551
0.0130058
0.00217473
0.000331274
4.97582e-005
7.49602e-006
1.14978e-006
2.00434e-007
6.68991e-008
4.73031e-008
1.54037
1.42482
1.32405
1.23511
1.15551
1.08313
1.0159
0.952283
0.891772
0.831837
0.772032
0.711487
0.649484
0.585442
0.518906
0.449532
0.377065
0.301287
0.22191
0.138199
0.0501665
0.0116498
0.0020736
0.000341997
5.56059e-005
9.0425e-006
1.48752e-006
2.70217e-007
7.77903e-008
1.53238
1.42083
1.32367
1.23805
1.16159
1.09225
1.02825
0.967431
0.909488
0.8534
0.797423
0.740903
0.683141
0.623568
0.561726
0.497263
0.429907
0.35944
0.285645
0.208176
0.126145
0.0447524
0.0105967
0.00200995
0.000357431
6.2719e-005
1.09861e-005
1.9435e-006
3.61339e-007
1.52237
1.41487
1.32135
1.23908
1.16579
1.09952
1.0386
0.981575
0.92665
0.873591
0.820858
0.767828
0.713808
0.658228
0.600626
0.540633
0.477961
0.412385
0.343708
0.271707
0.195995
0.115528
0.0403961
0.0098446
0.00199176
0.000380955
7.18053e-005
1.35109e-005
2.51e-006
1.51069
1.4073
1.31745
1.23852
1.16835
1.10504
1.04695
0.992657
0.940633
0.89029
0.841017
0.791424
0.741012
0.689231
0.63563
0.579841
0.521573
0.460591
0.396705
0.329735
0.259455
0.185431
0.106525
0.0370796
0.00936773
0.00201893
0.000413869
8.36204e-005
1.64916e-005
1.49767
1.39841
1.31227
1.23671
1.16965
1.10931
1.05413
1.00277
0.954119
0.906789
0.860329
0.813729
0.766499
0.718104
0.668097
0.616113
0.561853
0.50508
0.445597
0.383237
0.31783
0.249145
0.176741
0.0987735
0.0345386
0.00909011
0.00208605
0.000457462
9.67058e-005
1.48357
1.38849
1.30606
1.23387
1.16991
1.11246
1.06003
1.0113
0.965124
0.920314
0.876522
0.833094
0.789126
0.744111
0.697625
0.649314
0.598889
0.54611
0.490785
0.432751
0.37186
0.307955
0.240825
0.170322
0.0913853
0.0324237
0.00893693
0.00218463
0.000500081
1.46861
1.37773
1.29904
1.23022
1.16934
1.11478
1.06509
1.01904
0.975588
0.933836
0.892802
0.85216
0.810865
0.768732
0.725335
0.680315
0.633376
0.584271
0.532797
0.478785
0.42209
0.362578
0.300106
0.234543
0.166327
0.0860406
0.0310512
0.00896374
0.00227009
1.45299
1.36633
1.29139
1.22594
1.16814
1.11644
1.06945
1.02603
0.985159
0.945984
0.907524
0.869276
0.830855
0.791644
0.751261
0.709378
0.665716
0.620039
0.572148
0.521873
0.469072
0.413618
0.355391
0.294287
0.230353
0.164031
0.0826847
0.0304763
0.00897947
1.43685
1.35443
1.28325
1.22117
1.16644
1.11755
1.07321
1.03229
0.993804
0.956884
0.920729
0.885057
0.849314
0.812887
0.775397
0.736522
0.69599
0.653572
0.609072
0.56232
0.513176
0.461514
0.407225
0.350213
0.290436
0.227983
0.16322
0.081311
0.0300341
1.42032
1.34214
1.27473
1.21602
1.16435
1.11827
1.07655
1.03813
1.00208
0.967624
0.934132
0.900866
0.867593
0.833554
0.798612
0.762441
0.724767
0.685353
0.643998
0.60053
0.554801
0.506681
0.45606
0.402843
0.346961
0.288395
0.227242
0.164125
0.0801509
1.40348
1.32956
1.26592
1.21058
1.16195
1.11867
1.07955
1.04359
1.00993
0.977816
0.946643
0.915686
0.884605
0.853092
0.820711
0.787173
0.752228
0.715653
0.677254
0.636862
0.594326
0.549517
0.50232
0.452637
0.400386
0.345516
0.288042
0.227989
0.165199
1.38638
1.31672
1.25685
1.20489
1.1593
1.1188
1.08227
1.04874
1.01739
0.987524
0.958521
0.929836
0.901004
0.871862
0.841924
0.810909
0.778573
0.744702
0.709106
0.671619
0.63209
0.590389
0.546399
0.500017
0.451156
0.399747
0.345758
0.289176
0.230124
1.36903
1.30363
1.24755
1.19895
1.15641
1.11868
1.08472
1.0536
1.02455
0.996882
0.970016
0.943424
0.916963
0.890081
0.862472
0.833865
0.804019
0.772726
0.739798
0.705068
0.668388
0.629622
0.588651
0.545369
0.499683
0.451513
0.400806
0.347524
0.291566
1.35143
1.29027
1.23797
1.19274
1.15325
1.11831
1.08692
1.05822
1.03147
1.00605
0.981437
0.957203
0.932866
0.908248
0.882792
0.85643
0.828925
0.800063
0.769657
0.737537
0.70355
0.667557
0.629435
0.589072
0.546366
0.501233
0.453601
0.403411
0.350553
1.33351
1.27659
1.22806
1.18622
1.14977
1.11763
1.08882
1.06255
1.03812
1.01494
0.992537
0.970491
0.948283
0.925712
0.902548
0.878485
0.853313
0.826837
0.798876
0.769268
0.737859
0.70451
0.669093
0.63149
0.591595
0.549315
0.504566
0.457276
0.407354
1.3152
1.26251
1.21775
1.17928
1.1459
1.11655
1.09035
1.06653
1.04442
1.02349
1.00326
0.983326
0.963299
0.942866
0.921949
0.900165
0.877308
0.853188
0.827631
0.800474
0.771566
0.740766
0.707942
0.672972
0.635745
0.596158
0.554121
0.509551
0.462366
1.29642
1.24792
1.20691
1.17182
1.14151
1.11499
1.09141
1.07006
1.05032
1.03166
1.01365
0.995881
0.978017
0.959888
0.941177
0.921644
0.901082
0.879298
0.856118
0.831378
0.804924
0.77661
0.746301
0.713868
0.679193
0.642168
0.602693
0.560678
0.516041
1.27706
1.23272
1.19545
1.16373
1.1365
1.11282
1.0919
1.07305
1.05572
1.03939
1.02365
1.00815
0.992531
0.976709
0.960333
0.94306
0.924796
0.905353
0.88455
0.862221
0.838204
0.812348
0.784509
0.754551
0.722346
0.687778
0.650739
0.611131
0.568868
1.25705
1.21682
1.18327
1.15491
1.13076
1.10994
1.0917
1.07541
1.06052
1.04659
1.03322
1.02009
1.00695
0.993354
0.979278
0.964339
0.948452
0.93142
0.913057
0.893189
0.87165
0.848277
0.822916
0.795419
0.765648
0.733472
0.698774
0.661449
0.621403
1.23639
1.20021
1.17033
1.14532
1.12424
1.10629
1.09076
1.07706
1.06467
1.05319
1.04223
1.03148
1.02068
1.00949
0.997718
0.985342
0.971999
0.957515
0.941714
0.924421
0.905462
0.884663
0.861856
0.836876
0.809567
0.779782
0.747385
0.712259
0.674302
1.21517
1.18297
1.15671
1.13501
1.117
1.10192
1.08912
1.07803
1.06819
1.05919
1.05069
1.04238
1.034
1.02526
1.01609
1.00628
0.995538
0.983699
0.97058
0.955997
0.939763
0.921689
0.901585
0.879261
0.854534
0.827227
0.79718
0.764249
0.728315
1.19365
1.16533
1.14263
1.12421
1.10925
1.09705
1.08699
1.07853
1.07125
1.06476
1.05875
1.05292
1.04704
1.04084
1.0343
1.02716
1.01903
1.00989
0.999555
0.987817
0.974476
0.959319
0.94213
0.922685
0.900762
0.876141
0.848617
0.818004
0.784148
1.17228
1.14774
1.12854
1.11336
1.10144
1.0921
1.08477
1.07894
1.0742
1.07021
1.06665
1.06328
1.05989
1.05633
1.05217
1.04749
1.04205
1.03568
1.0282
1.01942
1.00913
0.997088
0.983058
0.966778
0.947974
0.926369
0.901691
0.873686
0.842139
1.15179
1.13091
1.11514
1.10315
1.09424
1.08774
1.0831
1.07984
1.07758
1.07596
1.07472
1.07362
1.07247
1.0711
1.06929
1.06691
1.06403
1.06032
1.05565
1.04982
1.04263
1.03384
1.02318
1.01037
0.99505
0.976888
0.955519
0.930592
0.901792
1.13309
1.11575
1.10332
1.09448
1.08852
1.08479
1.08275
1.08193
1.08193
1.08243
1.08317
1.08396
1.08462
1.08504
1.08508
1.08466
1.08384
1.08242
1.08024
1.07716
1.07296
1.06743
1.06027
1.05115
1.03969
1.02545
1.00797
0.986749
0.961343
1.11729
1.10332
1.09413
1.08834
1.08522
1.08412
1.08445
1.08574
1.08759
1.08969
1.0918
1.09376
1.09548
1.09688
1.0979
1.09849
1.0992
1.09951
1.09931
1.09852
1.09699
1.09452
1.09082
1.08555
1.07825
1.06842
1.05546
1.03872
1.01754
1.10546
1.09468
1.08856
1.08564
1.08513
1.08632
1.08859
1.09141
1.09437
1.09718
1.09964
1.10167
1.10323
1.10439
1.10511
1.10608
1.10719
1.10819
1.10908
1.10985
1.11041
1.1106
1.11016
1.10873
1.10582
1.10084
1.09309
1.08171
1.06578
1.09848
1.09063
1.0873
1.08691
1.08858
1.09149
1.09494
1.09834
1.10128
1.10347
1.10481
1.10533
1.10506
1.10443
1.10411
1.10407
1.10396
1.10418
1.10496
1.10631
1.10819
1.11043
1.11289
1.11515
1.11671
1.11694
1.11511
1.11006
1.10052
1.09675
1.09148
1.09052
1.09213
1.09528
1.09903
1.10254
1.10518
1.10653
1.10636
1.10468
1.10181
1.09859
1.09492
1.0912
1.08784
1.08477
1.08289
1.08234
1.08314
1.08543
1.08886
1.09369
1.09933
1.10523
1.11076
1.11563
1.11789
1.11583
1.10006
1.09691
1.09771
1.10056
1.10425
1.10764
1.10979
1.11001
1.10793
1.10341
1.0973
1.08959
1.08061
1.07132
1.06214
1.05368
1.04647
1.04116
1.03803
1.037
1.03844
1.04238
1.04865
1.057
1.06706
1.07847
1.08945
1.09823
1.10571
1.10752
1.10595
1.10777
1.11094
1.11403
1.1157
1.1149
1.11092
1.10362
1.09339
1.08046
1.06528
1.04881
1.03215
1.01614
1.00151
0.988876
0.978828
0.971708
0.967591
0.967029
0.969981
0.976427
0.986267
0.99929
1.01526
1.03363
1.05055
1.06475
1.11779
1.1172
1.11926
1.12176
1.12306
1.12165
1.11645
1.10691
1.09322
1.07493
1.05343
1.02974
1.00495
0.980203
0.956509
0.934815
0.915708
0.899822
0.887524
0.879045
0.874838
0.875065
0.879819
0.889189
0.903157
0.921793
0.945342
0.970299
0.993867
1.12931
1.12916
1.1307
1.13164
1.13015
1.12453
1.11408
1.09774
1.07599
1.04937
1.0192
0.986809
0.953558
0.920715
0.889371
0.860439
0.834575
0.812323
0.794065
0.78009
0.770691
0.766232
0.766945
0.773087
0.784823
0.802737
0.827761
0.857213
0.890312
1.14071
1.14053
1.14097
1.13966
1.13474
1.12437
1.10775
1.08425
1.05469
1.02002
0.981751
0.941491
0.900741
0.86082
0.822795
0.787492
0.755496
0.727234
0.703003
0.683037
0.66759
0.656914
0.651366
0.651306
0.656829
0.669033
0.689531
0.717168
0.754806
1.15096
1.15042
1.14939
1.14557
1.13682
1.12158
1.09888
1.06879
1.03224
0.990646
0.945741
0.899277
0.852818
0.807642
0.76472
0.724736
0.688134
0.655187
0.626049
0.600821
0.579612
0.562572
0.549947
0.541827
0.538067
0.540599
0.551077
0.569097
0.600376
1.15951
1.15843
1.15587
1.14944
1.13709
1.11723
1.0893
1.05368
1.01161
0.964814
0.915221
0.864649
0.814638
0.766374
0.720692
0.678121
0.638954
0.60331
0.571202
0.542584
0.517398
0.495622
0.477273
0.462497
0.450738
0.443238
0.440926
0.444583
0.461295
1.16617
1.16453
1.16053
1.15175
1.13628
1.1127
1.08071
1.04101
0.995155
0.945079
0.892817
0.84019
0.788666
0.739314
0.692834
0.649626
0.609861
0.573551
0.540611
0.510897
0.484244
0.460499
0.439481
0.421426
0.405563
0.392461
0.380961
0.368802
0.370637
1.17106
1.16892
1.16373
1.15318
1.13537
1.10915
1.07444
1.03225
0.984311
0.932717
0.879524
0.82651
0.775049
0.726101
0.680258
0.637828
0.598908
0.56346
0.531356
0.502425
0.476469
0.453305
0.432688
0.414664
0.398757
0.386281
0.373677
0.357263
0.344462
1.17439
1.17192
1.16599
1.15428
1.13508
1.10738
1.07133
1.0281
0.979556
0.927846
0.875005
0.822744
0.772352
0.724704
0.680322
0.639464
0.602199
0.568474
0.538166
0.511121
0.487165
0.466155
0.44788
0.432451
0.419047
0.410399
0.400739
0.39549
0.365884
1.17645
1.17384
1.16763
1.15552
1.1359
1.10788
1.07171
1.02865
0.980641
0.929795
0.878115
0.827251
0.778432
0.732484
0.6899
0.650923
0.615623
0.583964
0.555851
0.531165
0.509786
0.491636
0.476591
0.464893
0.455766
0.452497
0.447666
0.454536
0.408419
1.17755
1.175
1.16904
1.15726
1.13814
1.11082
1.07556
1.03363
0.98693
0.937553
0.887455
0.838254
0.791159
0.746987
0.706234
0.66916
0.635857
0.606321
0.580493
0.558304
0.539691
0.52465
0.513166
0.505614
0.50144
0.504276
0.506412
0.521419
0.474885
5.80606e-005
5.80609e-005
5.80603e-005
5.80601e-005
5.80598e-005
5.80595e-005
5.80597e-005
5.80606e-005
5.80615e-005
5.80612e-005
5.80601e-005
5.80598e-005
5.80602e-005
5.80607e-005
5.80612e-005
5.80618e-005
5.80618e-005
5.80609e-005
5.80601e-005
5.80603e-005
5.80614e-005
5.80622e-005
5.80614e-005
5.80605e-005
5.80598e-005
5.80608e-005
5.8061e-005
5.8061e-005
5.80612e-005
5.8062e-005
5.80621e-005
5.80607e-005
5.80595e-005
5.80595e-005
5.80606e-005
5.80607e-005
5.80608e-005
5.80608e-005
5.80608e-005
5.80608e-005
5.80608e-005
5.80608e-005
5.80608e-005
5.80609e-005
5.80609e-005
5.80609e-005
5.80609e-005
5.80609e-005
5.80608e-005
5.80607e-005
5.80608e-005
5.8061e-005
5.80611e-005
5.80611e-005
5.80611e-005
5.80611e-005
5.80611e-005
5.80611e-005
5.80611e-005
5.80612e-005
5.80612e-005
5.80612e-005
5.80612e-005
5.80612e-005
5.80612e-005
5.80613e-005
5.80613e-005
5.80613e-005
5.80613e-005
5.80613e-005
5.80613e-005
5.80614e-005
5.80614e-005
5.80614e-005
5.80614e-005
5.80614e-005
5.80614e-005
5.80614e-005
5.80616e-005
5.80617e-005
5.80617e-005
5.80615e-005
5.80617e-005
5.80615e-005
5.80618e-005
5.80617e-005
5.80621e-005
5.80618e-005
5.80615e-005
5.80613e-005
5.80616e-005
5.80616e-005
5.80615e-005
5.80615e-005
5.80616e-005
5.80618e-005
5.80618e-005
5.8062e-005
5.80619e-005
5.80619e-005
5.80619e-005
5.80619e-005
5.80619e-005
5.80619e-005
5.80619e-005
5.80619e-005
5.80619e-005
5.80619e-005
5.80619e-005
5.80619e-005
5.80619e-005
5.80619e-005
5.80619e-005
5.80619e-005
5.80619e-005
5.80619e-005
5.80619e-005
5.8062e-005
5.8062e-005
5.8062e-005
5.8062e-005
5.8062e-005
5.8062e-005
5.8062e-005
5.8062e-005
5.8062e-005
5.8062e-005
5.8062e-005
5.8062e-005
5.80621e-005
5.80621e-005
5.80623e-005
5.80622e-005
5.80625e-005
5.80623e-005
5.80627e-005
5.80626e-005
5.80635e-005
5.9321e-005
4.6082e-006
4.60851e-006
4.60733e-006
4.60676e-006
4.60618e-006
4.60577e-006
4.60655e-006
4.60857e-006
4.60989e-006
4.60887e-006
4.60679e-006
4.60664e-006
4.60764e-006
4.6086e-006
4.60945e-006
4.61053e-006
4.61035e-006
4.60865e-006
4.60702e-006
4.60784e-006
4.61017e-006
4.61188e-006
4.60992e-006
4.60773e-006
4.60652e-006
4.60865e-006
4.6091e-006
4.60915e-006
4.6099e-006
4.61157e-006
4.61143e-006
4.60834e-006
4.60584e-006
4.60614e-006
4.60844e-006
4.60872e-006
4.60876e-006
4.60879e-006
4.60882e-006
4.60885e-006
4.60888e-006
4.60891e-006
4.60894e-006
4.60897e-006
4.609e-006
4.60904e-006
4.60907e-006
4.60914e-006
4.60895e-006
4.60887e-006
4.60908e-006
4.60938e-006
4.60948e-006
4.6095e-006
4.60954e-006
4.60958e-006
4.60961e-006
4.60965e-006
4.60969e-006
4.60973e-006
4.60977e-006
4.60981e-006
4.60986e-006
4.6099e-006
4.60994e-006
4.61e-006
4.61004e-006
4.6101e-006
4.61013e-006
4.61017e-006
4.61023e-006
4.61027e-006
4.61033e-006
4.61036e-006
4.61039e-006
4.61044e-006
4.61033e-006
4.61043e-006
4.61069e-006
4.61099e-006
4.61093e-006
4.61072e-006
4.61105e-006
4.61054e-006
4.61105e-006
4.61104e-006
4.61183e-006
4.61114e-006
4.61053e-006
4.61042e-006
4.61091e-006
4.61091e-006
4.61069e-006
4.61072e-006
4.61088e-006
4.61136e-006
4.61141e-006
4.61162e-006
4.61158e-006
4.61157e-006
4.61155e-006
4.61153e-006
4.61152e-006
4.61152e-006
4.61151e-006
4.6115e-006
4.6115e-006
4.61149e-006
4.6115e-006
4.6115e-006
4.61151e-006
4.61152e-006
4.61152e-006
4.61153e-006
4.61154e-006
4.61156e-006
4.61157e-006
4.61157e-006
4.61159e-006
4.61158e-006
4.61156e-006
4.61155e-006
4.61152e-006
4.61151e-006
4.61155e-006
4.61155e-006
4.61157e-006
4.61157e-006
4.6116e-006
4.61175e-006
4.61176e-006
4.61218e-006
4.61198e-006
4.6127e-006
4.61227e-006
4.61302e-006
4.61317e-006
4.61795e-006
5.11101e-006
7.24105e-007
7.23917e-007
7.23695e-007
7.23597e-007
7.23599e-007
7.23952e-007
7.24465e-007
7.24699e-007
7.24248e-007
7.2372e-007
7.23777e-007
7.24323e-007
7.24582e-007
7.24442e-007
7.24391e-007
7.24502e-007
7.24305e-007
7.24127e-007
7.23946e-007
7.24624e-007
7.25195e-007
7.25417e-007
7.24738e-007
7.24117e-007
7.24115e-007
7.24636e-007
7.2472e-007
7.24911e-007
7.25318e-007
7.25682e-007
7.25262e-007
7.24428e-007
7.24024e-007
7.24561e-007
7.24958e-007
7.24987e-007
7.25001e-007
7.25017e-007
7.25031e-007
7.25051e-007
7.25072e-007
7.25093e-007
7.25116e-007
7.25141e-007
7.25168e-007
7.25192e-007
7.25216e-007
7.25244e-007
7.25283e-007
7.25356e-007
7.25383e-007
7.25362e-007
7.25347e-007
7.25378e-007
7.25419e-007
7.25455e-007
7.25491e-007
7.25522e-007
7.25554e-007
7.25583e-007
7.25612e-007
7.25642e-007
7.25667e-007
7.257e-007
7.25723e-007
7.25756e-007
7.25775e-007
7.2581e-007
7.25825e-007
7.25855e-007
7.25886e-007
7.25893e-007
7.25933e-007
7.25946e-007
7.25987e-007
7.25989e-007
7.2603e-007
7.26052e-007
7.26059e-007
7.26169e-007
7.26147e-007
7.26162e-007
7.26155e-007
7.26039e-007
7.26107e-007
7.26132e-007
7.26244e-007
7.26107e-007
7.26158e-007
7.26295e-007
7.2634e-007
7.26299e-007
7.26289e-007
7.26305e-007
7.26368e-007
7.26404e-007
7.26414e-007
7.26387e-007
7.26392e-007
7.26397e-007
7.2639e-007
7.26397e-007
7.26392e-007
7.26392e-007
7.26398e-007
7.26385e-007
7.26396e-007
7.26378e-007
7.26388e-007
7.26372e-007
7.26387e-007
7.26365e-007
7.26378e-007
7.26354e-007
7.2637e-007
7.26331e-007
7.26347e-007
7.26299e-007
7.263e-007
7.2626e-007
7.26225e-007
7.26181e-007
7.26143e-007
7.26104e-007
7.26096e-007
7.26086e-007
7.26074e-007
7.26022e-007
7.26048e-007
7.26033e-007
7.25961e-007
7.26109e-007
7.26174e-007
7.26207e-007
7.25836e-007
7.30947e-007
7.1732e-007
6.41441e-007
1.21288e-006
2.12924e-007
2.12898e-007
2.12856e-007
2.12863e-007
2.12989e-007
2.13175e-007
2.13201e-007
2.13062e-007
2.12912e-007
2.1295e-007
2.13197e-007
2.13289e-007
2.13193e-007
2.13078e-007
2.13192e-007
2.13279e-007
2.13233e-007
2.13107e-007
2.13143e-007
2.13435e-007
2.13547e-007
2.13488e-007
2.13225e-007
2.13122e-007
2.13278e-007
2.13471e-007
2.13473e-007
2.1356e-007
2.13712e-007
2.13712e-007
2.1348e-007
2.13273e-007
2.133e-007
2.13544e-007
2.1362e-007
2.13633e-007
2.13652e-007
2.1367e-007
2.13689e-007
2.13708e-007
2.13728e-007
2.13748e-007
2.13769e-007
2.13791e-007
2.13813e-007
2.13832e-007
2.13855e-007
2.13878e-007
2.13895e-007
2.13894e-007
2.13902e-007
2.1393e-007
2.13975e-007
2.14e-007
2.14017e-007
2.14035e-007
2.14057e-007
2.14075e-007
2.14097e-007
2.14115e-007
2.14135e-007
2.14156e-007
2.14173e-007
2.14195e-007
2.14212e-007
2.14233e-007
2.14248e-007
2.14273e-007
2.14284e-007
2.14305e-007
2.14327e-007
2.14336e-007
2.14366e-007
2.14379e-007
2.14389e-007
2.14411e-007
2.14436e-007
2.14461e-007
2.14493e-007
2.14526e-007
2.14531e-007
2.14565e-007
2.1457e-007
2.14546e-007
2.14555e-007
2.14576e-007
2.14581e-007
2.14527e-007
2.14564e-007
2.14579e-007
2.14564e-007
2.14558e-007
2.14577e-007
2.14596e-007
2.14602e-007
2.14603e-007
2.14605e-007
2.14626e-007
2.14631e-007
2.14662e-007
2.1466e-007
2.14672e-007
2.14663e-007
2.14671e-007
2.14679e-007
2.1467e-007
2.14682e-007
2.14666e-007
2.1468e-007
2.14658e-007
2.14678e-007
2.14655e-007
2.14669e-007
2.14641e-007
2.1466e-007
2.14629e-007
2.1464e-007
2.14609e-007
2.14603e-007
2.14583e-007
2.14555e-007
2.14516e-007
2.14493e-007
2.14458e-007
2.14433e-007
2.14393e-007
2.14369e-007
2.14343e-007
2.14305e-007
2.14298e-007
2.14246e-007
2.14366e-007
2.13598e-007
2.16969e-007
2.17311e-007
1.64815e-007
3.20207e-007
6.00507e-005
0.00572415
1.03702e-007
1.03705e-007
1.03712e-007
1.03757e-007
1.0384e-007
1.03861e-007
1.03805e-007
1.03752e-007
1.03791e-007
1.03897e-007
1.03985e-007
1.03941e-007
1.0386e-007
1.0389e-007
1.04013e-007
1.04042e-007
1.03999e-007
1.03907e-007
1.03945e-007
1.04068e-007
1.04067e-007
1.03998e-007
1.03911e-007
1.03931e-007
1.04048e-007
1.04123e-007
1.04144e-007
1.042e-007
1.04238e-007
1.04188e-007
1.04087e-007
1.04062e-007
1.04127e-007
1.04259e-007
1.04282e-007
1.04298e-007
1.04319e-007
1.04335e-007
1.04352e-007
1.04369e-007
1.04386e-007
1.04404e-007
1.04424e-007
1.04444e-007
1.04465e-007
1.04482e-007
1.04495e-007
1.04509e-007
1.04522e-007
1.04547e-007
1.04578e-007
1.046e-007
1.04605e-007
1.04611e-007
1.04632e-007
1.04653e-007
1.04673e-007
1.0469e-007
1.04708e-007
1.04725e-007
1.04742e-007
1.0476e-007
1.04774e-007
1.04793e-007
1.04807e-007
1.04826e-007
1.04839e-007
1.0486e-007
1.04869e-007
1.04889e-007
1.04906e-007
1.04915e-007
1.04944e-007
1.04951e-007
1.04966e-007
1.04978e-007
1.04987e-007
1.05001e-007
1.05021e-007
1.05036e-007
1.05053e-007
1.05076e-007
1.05078e-007
1.05071e-007
1.05074e-007
1.05082e-007
1.05084e-007
1.0508e-007
1.05093e-007
1.05111e-007
1.05124e-007
1.05134e-007
1.05132e-007
1.05126e-007
1.05138e-007
1.0515e-007
1.05164e-007
1.05179e-007
1.05187e-007
1.05187e-007
1.05192e-007
1.05195e-007
1.05199e-007
1.05205e-007
1.05197e-007
1.05202e-007
1.05194e-007
1.05197e-007
1.05191e-007
1.05194e-007
1.05183e-007
1.0518e-007
1.05169e-007
1.05163e-007
1.05148e-007
1.05138e-007
1.05126e-007
1.05113e-007
1.05098e-007
1.05082e-007
1.05064e-007
1.05043e-007
1.05019e-007
1.04997e-007
1.04992e-007
1.05004e-007
1.04963e-007
1.04795e-007
1.04904e-007
1.04934e-007
1.04859e-007
1.04125e-007
1.09415e-007
9.25676e-008
8.92638e-008
6.42613e-007
7.23387e-005
0.00546041
0.0660893
7.0626e-008
7.06196e-008
7.06278e-008
7.06701e-008
7.07045e-008
7.069e-008
7.06631e-008
7.06885e-008
7.07724e-008
7.08148e-008
7.07939e-008
7.07418e-008
7.07461e-008
7.08417e-008
7.09268e-008
7.09093e-008
7.08234e-008
7.07881e-008
7.0827e-008
7.08886e-008
7.08744e-008
7.08114e-008
7.08006e-008
7.08481e-008
7.09461e-008
7.09888e-008
7.10134e-008
7.10369e-008
7.10275e-008
7.09824e-008
7.0962e-008
7.09875e-008
7.10666e-008
7.11223e-008
7.11335e-008
7.11523e-008
7.11714e-008
7.11871e-008
7.12032e-008
7.12201e-008
7.12372e-008
7.12547e-008
7.12741e-008
7.1293e-008
7.13099e-008
7.13254e-008
7.13411e-008
7.13609e-008
7.13891e-008
7.14112e-008
7.14158e-008
7.14189e-008
7.14349e-008
7.14666e-008
7.14886e-008
7.15016e-008
7.15178e-008
7.15328e-008
7.15502e-008
7.15655e-008
7.15822e-008
7.15981e-008
7.16136e-008
7.16296e-008
7.16451e-008
7.16607e-008
7.16745e-008
7.16922e-008
7.17017e-008
7.17214e-008
7.1732e-008
7.17475e-008
7.17659e-008
7.17771e-008
7.1791e-008
7.1807e-008
7.18137e-008
7.18277e-008
7.18484e-008
7.18565e-008
7.18749e-008
7.1887e-008
7.18963e-008
7.19012e-008
7.19119e-008
7.19144e-008
7.19085e-008
7.19088e-008
7.19178e-008
7.19345e-008
7.19509e-008
7.19496e-008
7.19499e-008
7.1962e-008
7.19759e-008
7.19894e-008
7.19955e-008
7.19983e-008
7.19992e-008
7.20078e-008
7.20082e-008
7.2013e-008
7.20135e-008
7.20178e-008
7.2021e-008
7.20242e-008
7.20269e-008
7.20228e-008
7.20196e-008
7.20167e-008
7.20136e-008
7.20071e-008
7.19981e-008
7.19882e-008
7.19792e-008
7.19686e-008
7.19587e-008
7.19478e-008
7.19352e-008
7.19207e-008
7.1907e-008
7.18868e-008
7.18692e-008
7.18445e-008
7.17693e-008
7.16869e-008
7.17146e-008
7.20224e-008
7.15108e-008
7.16212e-008
7.13536e-008
7.38782e-008
5.77824e-008
1.06565e-007
2.24645e-006
0.000170271
0.00710378
0.0739475
0.259713
5.78755e-008
5.78938e-008
5.79117e-008
5.79306e-008
5.79336e-008
5.79266e-008
5.79281e-008
5.79616e-008
5.80222e-008
5.80424e-008
5.80207e-008
5.79971e-008
5.80119e-008
5.80902e-008
5.8128e-008
5.81163e-008
5.80652e-008
5.80585e-008
5.80627e-008
5.80749e-008
5.80864e-008
5.80889e-008
5.8117e-008
5.81533e-008
5.81719e-008
5.81912e-008
5.82307e-008
5.82673e-008
5.82694e-008
5.82552e-008
5.82567e-008
5.8266e-008
5.83052e-008
5.83331e-008
5.83717e-008
5.83982e-008
5.84185e-008
5.84367e-008
5.84523e-008
5.84675e-008
5.84834e-008
5.85026e-008
5.8523e-008
5.85448e-008
5.85664e-008
5.859e-008
5.86131e-008
5.86196e-008
5.862e-008
5.86236e-008
5.86408e-008
5.86728e-008
5.87007e-008
5.8715e-008
5.8722e-008
5.87404e-008
5.87604e-008
5.87798e-008
5.87973e-008
5.88152e-008
5.8832e-008
5.88495e-008
5.88655e-008
5.88826e-008
5.88981e-008
5.89136e-008
5.89299e-008
5.8944e-008
5.8957e-008
5.89738e-008
5.89821e-008
5.90004e-008
5.9011e-008
5.90236e-008
5.90345e-008
5.90476e-008
5.90492e-008
5.90594e-008
5.90813e-008
5.90779e-008
5.9085e-008
5.91021e-008
5.91217e-008
5.91351e-008
5.91569e-008
5.9164e-008
5.91544e-008
5.91518e-008
5.91622e-008
5.91784e-008
5.91937e-008
5.92014e-008
5.92138e-008
5.92325e-008
5.92393e-008
5.92411e-008
5.9238e-008
5.9239e-008
5.92411e-008
5.9252e-008
5.92548e-008
5.92602e-008
5.92613e-008
5.92582e-008
5.92646e-008
5.92613e-008
5.92687e-008
5.92629e-008
5.9265e-008
5.92546e-008
5.92564e-008
5.92444e-008
5.92452e-008
5.92288e-008
5.9228e-008
5.92133e-008
5.92109e-008
5.91966e-008
5.91882e-008
5.9177e-008
5.91628e-008
5.91444e-008
5.91356e-008
5.90959e-008
5.91808e-008
5.91131e-008
5.9008e-008
5.8338e-008
5.9487e-008
5.89038e-008
6.00188e-008
5.48532e-008
1.57149e-007
7.52823e-006
0.000418274
0.0127525
0.101398
0.315752
0.5753
5.19546e-008
5.19782e-008
5.20313e-008
5.20659e-008
5.20667e-008
5.20574e-008
5.2076e-008
5.2136e-008
5.21446e-008
5.21175e-008
5.21011e-008
5.21279e-008
5.21978e-008
5.22478e-008
5.22357e-008
5.21977e-008
5.21555e-008
5.21717e-008
5.22315e-008
5.22802e-008
5.22696e-008
5.22467e-008
5.2248e-008
5.22793e-008
5.23512e-008
5.2403e-008
5.24218e-008
5.24075e-008
5.23797e-008
5.23635e-008
5.23791e-008
5.24305e-008