/*--------------------------------*- C++ -*----------------------------------*\
| =========                 |                                                 |
| \\      /  F ield         | OpenFOAM: The Open Source CFD Toolbox           |
|  \\    /   O peration     | Version:  5.x                                   |
|   \\  /    A nd           | Web:      www.OpenFOAM.org                      |
|    \\/     M anipulation  |                                                 |
\*---------------------------------------------------------------------------*/
/*   Windows 32 and 64 bit porting by blueCAPE: http://www.bluecape.com.pt   *\
|  Based on Windows porting (2.0.x v4) by Symscape: http://www.symscape.com   |
\*---------------------------------------------------------------------------*/
FoamFile
{
    version     2.0;
    format      ascii;
    class       volScalarField;
    location    "400";
    object      p;
}
// * * * * * * * * * * * * * * * * * * * * * * * * * * * * * * * * * * * * * //

dimensions      [0 2 -2 0 0 0 0];

internalField   nonuniform List<scalar> 
43900
(
0.338447
0.338096
0.338056
0.337928
0.337725
0.337498
0.337295
0.336964
0.336721
0.336396
0.336071
0.335739
0.335391
0.335028
0.334656
0.334275
0.333883
0.333483
0.333074
0.332659
0.332233
0.331804
0.331367
0.330924
0.330475
0.330021
0.329562
0.3291
0.328633
0.336446
0.344532
0.338389
0.341682
0.339166
0.339921
0.339004
0.338826
0.338371
0.337936
0.337536
0.337101
0.336669
0.336242
0.335812
0.335379
0.334941
0.3345
0.334057
0.333608
0.333158
0.332704
0.332243
0.331781
0.331314
0.330842
0.330368
0.329887
0.329403
0.329665
0.351474
0.340367
0.346631
0.341533
0.34412
0.341733
0.34207
0.340984
0.340573
0.339984
0.339421
0.338884
0.338352
0.337825
0.337302
0.336786
0.336275
0.335764
0.335258
0.334752
0.334244
0.333739
0.333232
0.332721
0.332209
0.331694
0.331177
0.330659
0.324902
0.352548
0.345825
0.345617
0.345265
0.344838
0.343745
0.343702
0.342905
0.342528
0.341957
0.341437
0.340909
0.340377
0.339844
0.33931
0.338774
0.338236
0.3377
0.337161
0.336619
0.33608
0.335539
0.334994
0.334452
0.333909
0.33336
0.332813
0.332263
0.327421
0.351267
0.346257
0.345643
0.34562
0.345186
0.344987
0.344752
0.344222
0.343913
0.343478
0.343052
0.342625
0.342181
0.341722
0.341254
0.340777
0.34029
0.339792
0.339288
0.338778
0.338259
0.337734
0.337203
0.336666
0.33612
0.335572
0.335019
0.33446
0.332613
0.350651
0.34763
0.347317
0.347241
0.346829
0.346555
0.346306
0.346087
0.345816
0.345446
0.345102
0.344731
0.344344
0.343944
0.34353
0.3431
0.342658
0.342203
0.34173
0.341246
0.340752
0.340242
0.339721
0.339186
0.338644
0.338091
0.337523
0.336945
0.338787
0.352774
0.35095
0.350415
0.350366
0.350222
0.349889
0.349434
0.349109
0.348875
0.34854
0.348174
0.347801
0.347406
0.346995
0.346574
0.346141
0.345688
0.345218
0.34474
0.344246
0.343732
0.343205
0.342667
0.342118
0.341552
0.340972
0.340384
0.339787
0.345719
0.356895
0.35576
0.355146
0.354964
0.35482
0.354601
0.354245
0.353776
0.353325
0.352979
0.352608
0.352195
0.351767
0.351323
0.350865
0.350391
0.349901
0.349397
0.348876
0.348338
0.347787
0.347217
0.346637
0.346039
0.345425
0.344805
0.344163
0.343501
0.353701
0.362614
0.361924
0.361289
0.361005
0.360791
0.360538
0.360227
0.359833
0.359313
0.358791
0.35837
0.357932
0.35745
0.356951
0.356442
0.355913
0.35536
0.354787
0.354205
0.353604
0.352978
0.352339
0.351679
0.351005
0.350316
0.349603
0.34888
0.34815
0.362755
0.369714
0.369307
0.36866
0.368296
0.368014
0.367703
0.367347
0.366946
0.366476
0.365897
0.365276
0.364743
0.36421
0.363641
0.363054
0.362451
0.361824
0.361175
0.360504
0.359809
0.359095
0.358359
0.357609
0.356837
0.356038
0.355231
0.354395
0.353547
0.372226
0.378165
0.377872
0.377201
0.376771
0.376424
0.37605
0.375632
0.375169
0.374658
0.374081
0.373408
0.372671
0.372015
0.371362
0.370684
0.369991
0.369268
0.368522
0.367757
0.36696
0.366145
0.3653
0.364427
0.363546
0.362647
0.361713
0.360775
0.359815
0.382311
0.387739
0.387498
0.386793
0.386306
0.385902
0.385472
0.384992
0.384464
0.383883
0.383246
0.382541
0.381751
0.380893
0.380082
0.379286
0.378474
0.377646
0.376774
0.375878
0.37498
0.374036
0.373066
0.372073
0.371042
0.370004
0.368941
0.367835
0.366721
0.393522
0.398265
0.398053
0.397327
0.396788
0.396329
0.395843
0.395306
0.394715
0.394067
0.393356
0.392579
0.391725
0.390779
0.389761
0.388777
0.387821
0.386855
0.385862
0.384821
0.383749
0.382669
0.381549
0.380395
0.37922
0.378009
0.376768
0.375509
0.374232
0.40549
0.409718
0.409511
0.408759
0.40817
0.407655
0.407112
0.406515
0.40586
0.405141
0.404354
0.403493
0.402554
0.401527
0.400398
0.399198
0.398029
0.396888
0.395722
0.394537
0.393299
0.392018
0.390737
0.389408
0.388038
0.386651
0.38524
0.383794
0.382312
0.418128
0.421989
0.421769
0.420985
0.420346
0.419776
0.419174
0.418514
0.417791
0.416999
0.41613
0.415179
0.414142
0.413015
0.411788
0.410447
0.409035
0.407656
0.406302
0.4049
0.403475
0.402015
0.40051
0.398984
0.397409
0.395811
0.394178
0.392524
0.390836
0.431347
0.434962
0.434722
0.433901
0.43321
0.432583
0.431921
0.431197
0.430402
0.429532
0.428577
0.427532
0.426391
0.425151
0.423808
0.422353
0.420778
0.419135
0.417517
0.415903
0.414249
0.412581
0.410856
0.409096
0.407307
0.405462
0.403605
0.401706
0.399742
0.445076
0.448537
0.448272
0.447411
0.44667
0.445988
0.445267
0.444478
0.443613
0.442663
0.441622
0.440481
0.439235
0.437878
0.436409
0.434824
0.433112
0.431273
0.42937
0.427479
0.425575
0.423636
0.421677
0.419645
0.41758
0.415485
0.413325
0.411157
0.408933
0.459201
0.462584
0.462293
0.461388
0.460597
0.459861
0.45908
0.458225
0.457286
0.456257
0.455126
0.453886
0.45253
0.451051
0.449447
0.447715
0.44585
0.443843
0.441702
0.439489
0.437278
0.435036
0.432759
0.43046
0.428099
0.425693
0.423255
0.420765
0.418244
0.473629
0.476995
0.47668
0.47573
0.474889
0.474099
0.47326
0.472338
0.471326
0.470213
0.46899
0.467648
0.466178
0.464576
0.462835
0.460952
0.458926
0.456752
0.454421
0.451946
0.449402
0.446849
0.44426
0.44165
0.439001
0.436286
0.433548
0.430744
0.427864
0.488256
0.491655
0.491318
0.490322
0.489433
0.488592
0.487694
0.486705
0.485619
0.484425
0.483112
0.48167
0.48009
0.478364
0.476489
0.47446
0.472273
0.469929
0.467421
0.464744
0.46192
0.45902
0.4561
0.453134
0.450118
0.447053
0.443909
0.440716
0.437474
0.50296
0.506437
0.506081
0.505038
0.504101
0.503209
0.502255
0.501203
0.500043
0.498765
0.497357
0.495809
0.494111
0.492255
0.490237
0.488049
0.48569
0.483157
0.480449
0.477559
0.474484
0.471247
0.467929
0.464552
0.461126
0.457654
0.454123
0.450555
0.446933
0.517648
0.521242
0.520869
0.51978
0.518795
0.517852
0.516839
0.515719
0.51448
0.513115
0.51161
0.509954
0.508135
0.506145
0.503977
0.501626
0.499086
0.496356
0.493433
0.490317
0.487001
0.483483
0.479795
0.476006
0.472158
0.46825
0.464303
0.460304
0.456232
0.532213
0.53596
0.535573
0.534436
0.533404
0.532412
0.531342
0.530156
0.528844
0.527392
0.525787
0.524017
0.522072
0.519943
0.517623
0.515104
0.512383
0.509455
0.506318
0.502973
0.499418
0.495649
0.491664
0.487501
0.483207
0.478838
0.474413
0.469908
0.46533
0.546572
0.550504
0.550106
0.548922
0.547844
0.546803
0.545674
0.544419
0.543024
0.541478
0.539768
0.537882
0.535808
0.533535
0.531055
0.528361
0.525448
0.522313
0.518953
0.515366
0.511555
0.507519
0.503255
0.49876
0.494056
0.489218
0.484283
0.479264
0.474175
0.560632
0.564782
0.564375
0.563142
0.562018
0.560925
0.559736
0.558409
0.556932
0.555292
0.553475
0.551467
0.549253
0.546825
0.544174
0.541293
0.538176
0.534819
0.53122
0.527377
0.523291
0.518964
0.514399
0.509596
0.504544
0.499271
0.493849
0.488301
0.482682
0.574331
0.578726
0.578313
0.577031
0.57586
0.574718
0.573468
0.572067
0.570503
0.568762
0.566826
0.564683
0.562319
0.559726
0.556892
0.55381
0.550475
0.546881
0.543026
0.53891
0.534531
0.529893
0.525001
0.519859
0.51447
0.50882
0.502945
0.496884
0.490678
0.587603
0.592273
0.591853
0.590523
0.589306
0.588113
0.586799
0.58532
0.583663
0.581813
0.579752
0.577468
0.574947
0.572176
0.569145
0.565846
0.562272
0.55842
0.554286
0.54987
0.545172
0.540195
0.534944
0.529424
0.523646
0.517609
0.511309
0.504776
0.498009
0.600396
0.605366
0.604941
0.60356
0.602298
0.601052
0.599672
0.598112
0.596357
0.594394
0.592203
0.58977
0.587078
0.584115
0.580869
0.577334
0.573502
0.569368
0.56493
0.560187
0.555139
0.549791
0.544146
0.538213
0.532001
0.52552
0.518777
0.51177
0.504551
0.612669
0.617962
0.617532
0.616102
0.614794
0.613496
0.612049
0.610405
0.608549
0.606466
0.604136
0.601541
0.598664
0.595494
0.592019
0.58823
0.584118
0.579678
0.574908
0.569808
0.564378
0.558622
0.552548
0.546164
0.53948
0.53251
0.525268
0.517759
0.510039
0.624386
0.630021
0.629586
0.628107
0.626756
0.625407
0.623892
0.622162
0.620202
0.617994
0.615517
0.612751
0.609681
0.606291
0.60257
0.598505
0.59409
0.589318
0.584186
0.578695
0.572845
0.566643
0.560096
0.553215
0.546014
0.538507
0.530715
0.522652
0.514334
0.635519
0.641511
0.641071
0.639545
0.638153
0.636754
0.63517
0.633353
0.631286
0.628948
0.626318
0.623375
0.620101
0.61648
0.612496
0.608137
0.603395
0.598263
0.592738
0.58682
0.58051
0.573816
0.566747
0.559316
0.551537
0.543432
0.535023
0.526332
0.517377
0.646046
0.652407
0.65196
0.650389
0.648959
0.647511
0.64586
0.643955
0.641778
0.639309
0.636522
0.633396
0.62991
0.626044
0.621781
0.617109
0.612018
0.606499
0.600549
0.594167
0.587355
0.580121
0.572476
0.564434
0.556015
0.547242
0.538142
0.528743
0.519074
0.655952
0.662685
0.66223
0.660619
0.659156
0.657662
0.655946
0.653955
0.65167
0.649068
0.646122
0.642807
0.639098
0.634976
0.630421
0.625419
0.619956
0.614024
0.607617
0.600733
0.593374
0.58555
0.577272
0.568558
0.559429
0.549914
0.540044
0.529855
0.519384
0.665226
0.672332
0.671867
0.67022
0.668729
0.667194
0.665416
0.663341
0.660949
0.658215
0.655108
0.651599
0.647664
0.643277
0.638419
0.633071
0.627216
0.620844
0.613947
0.606523
0.598573
0.590106
0.581136
0.571682
0.561771
0.551435
0.540711
0.529643
0.518278
0.673862
0.681337
0.68086
0.679183
0.67767
0.676099
0.674263
0.672107
0.669611
0.666745
0.663476
0.659773
0.655606
0.65095
0.645778
0.640069
0.633804
0.626967
0.619549
0.611547
0.60296
0.593797
0.584072
0.573809
0.563037
0.551794
0.540126
0.528083
0.515725
0.681858
0.689696
0.689205
0.687504
0.685977
0.684375
0.682484
0.680252
0.677654
0.674658
0.671228
0.66733
0.66293
0.657998
0.652504
0.646422
0.639727
0.632403
0.624435
0.615817
0.606547
0.596632
0.586089
0.574941
0.563225
0.550983
0.538271
0.52515
0.511693
0.689213
0.697413
0.696904
0.695187
0.693653
0.692025
0.690085
0.68778
0.685084
0.681961
0.678373
0.67428
0.669646
0.664433
0.658609
0.65214
0.645001
0.637168
0.628621
0.61935
0.60935
0.598627
0.587196
0.575084
0.562332
0.54899
0.535125
0.520812
0.506137
0.69593
0.704498
0.703967
0.702241
0.700708
0.699059
0.697074
0.6947
0.69191
0.688664
0.684919
0.680633
0.675763
0.670266
0.664105
0.657243
0.649646
0.641283
0.632129
0.622168
0.61139
0.599798
0.587406
0.574243
0.560355
0.545801
0.53066
0.515025
0.499004
0.702009
0.710968
0.710409
0.70868
0.707153
0.705489
0.703462
0.701024
0.698143
0.694776
0.690877
0.686399
0.681292
0.675511
0.669012
0.661749
0.653682
0.644771
0.634984
0.624296
0.612692
0.600169
0.586738
0.572429
0.557292
0.541398
0.524841
0.507737
0.490218
0.70745
0.716846
0.716249
0.71452
0.713007
0.711329
0.709264
0.706764
0.703795
0.700311
0.69626
0.691591
0.68625
0.680187
0.673348
0.665681
0.657134
0.647661
0.637219
0.625773
0.613296
0.599778
0.585224
0.569664
0.553151
0.535769
0.517632
0.498883
0.479691
0.712255
0.72216
0.721509
0.719782
0.718285
0.716597
0.714496
0.711936
0.708882
0.705284
0.701085
0.69623
0.690661
0.684319
0.677143
0.669072
0.660045
0.650004
0.638892
0.626659
0.613267
0.59869
0.582927
0.566
0.547968
0.528926
0.509012
0.488406
0.467326
0.716431
0.726938
0.72621
0.724482
0.723004
0.721306
0.719171
0.716555
0.71342
0.709712
0.705372
0.700339
0.69455
0.687938
0.680436
0.671973
0.662476
0.651871
0.640085
0.62705
0.612707
0.597015
0.579956
0.561542
0.541831
0.520929
0.499004
0.476283
0.453047
0.719994
0.731207
0.730368
0.728636
0.727179
0.725473
0.723304
0.720636
0.717426
0.713617
0.709145
0.703948
0.697955
0.691095
0.68329
0.674459
0.664516
0.653369
0.640923
0.627087
0.611777
0.594927
0.576493
0.556471
0.534907
0.511919
0.487704
0.462548
0.436822
0.722976
0.734989
0.733997
0.732259
0.730826
0.729112
0.726916
0.724202
0.720927
0.71703
0.712445
0.707106
0.700939
0.693865
0.685797
0.676642
0.666298
0.654652
0.641583
0.626973
0.610705
0.592676
0.572808
0.551065
0.527472
0.502145
0.475314
0.447333
0.418691
0.725431
0.738298
0.737108
0.735369
0.733964
0.732248
0.730032
0.727286
0.723964
0.720002
0.715334
0.70989
0.703593
0.696356
0.688084
0.678672
0.667998
0.655922
0.6423
0.626976
0.609794
0.590601
0.569271
0.545716
0.519922
0.491987
0.462163
0.430881
0.398782
0.727429
0.741145
0.739716
0.737992
0.736625
0.734915
0.732695
0.729939
0.726598
0.722607
0.717901
0.712405
0.706039
0.698711
0.690318
0.680739
0.669831
0.65743
0.64336
0.627423
0.609412
0.589117
0.566338
0.540919
0.512776
0.48196
0.448728
0.413568
0.377321
0.729056
0.743546
0.741848
0.740166
0.738851
0.737165
0.734965
0.732232
0.728912
0.724942
0.720254
0.714775
0.708422
0.701097
0.692689
0.683057
0.672039
0.659449
0.645072
0.628663
0.609956
0.588669
0.564515
0.537233
0.506635
0.472686
0.435618
0.395908
0.354644
0.730401
0.745525
0.743544
0.741946
0.740702
0.739063
0.736918
0.734248
0.730998
0.727107
0.72251
0.717133
0.71089
0.703678
0.695373
0.685821
0.674838
0.662213
0.647694
0.630988
0.611765
0.589659
0.564276
0.535215
0.502141
0.464843
0.423486
0.37848
0.331211
0.731541
0.747127
0.744864
0.743398
0.742247
0.740682
0.738628
0.736066
0.732941
0.729195
0.724764
0.719576
0.713541
0.706548
0.698463
0.689118
0.678314
0.665814
0.651333
0.634533
0.615017
0.592328
0.565951
0.53531
0.499865
0.459114
0.413069
0.361862
0.307447
0.732538
0.748407
0.745873
0.74459
0.743549
0.742086
0.740159
0.737746
0.734795
0.73125
0.727051
0.72212
0.716365
0.709671
0.701895
0.692861
0.682358
0.670129
0.65586
0.639173
0.619612
0.596628
0.569577
0.53768
0.500147
0.45604
0.405116
0.346708
0.283768
0.733425
0.74943
0.746637
0.745582
0.744661
0.743323
0.741548
0.739314
0.736569
0.73326
0.729323
0.724682
0.719241
0.712883
0.705461
0.696796
0.686667
0.674806
0.660881
0.64448
0.625103
0.602118
0.57476
0.542029
0.50288
0.455761
0.400123
0.333675
0.260721
0.734218
0.750256
0.747212
0.74642
0.745619
0.744416
0.742807
0.740762
0.73823
0.735156
0.731478
0.727118
0.72198
0.715946
0.708867
0.700565
0.690815
0.679344
0.665811
0.649788
0.630738
0.607967
0.580618
0.547475
0.507273
0.457674
0.397853
0.322851
0.238645
0.734925
0.750944
0.747649
0.747141
0.746448
0.745382
0.743933
0.742065
0.739727
0.736863
0.733409
0.729287
0.724401
0.718632
0.711834
0.703827
0.69439
0.683249
0.670061
0.654386
0.635671
0.613173
0.585971
0.552643
0.511787
0.460163
0.396795
0.312943
0.216459
0.735547
0.751541
0.747994
0.747775
0.747172
0.746231
0.744923
0.743206
0.741026
0.738327
0.735043
0.731095
0.726386
0.720798
0.714186
0.706372
0.697136
0.686206
0.673235
0.657779
0.63927
0.616922
0.589773
0.55619
0.514696
0.461062
0.394324
0.301008
0.190227
0.736002
0.752004
0.748204
0.74826
0.747718
0.746881
0.745681
0.744075
0.742007
0.739419
0.736244
0.7324
0.727791
0.722297
0.715775
0.708047
0.698894
0.688039
0.675133
0.659721
0.641219
0.618794
0.591445
0.557317
0.514879
0.458755
0.387998
0.283046
0.152633
0.736023
0.752071
0.748013
0.748302
0.747777
0.746995
0.745845
0.744286
0.742263
0.739717
0.73658
0.73277
0.728188
0.722714
0.716203
0.708475
0.699307
0.688416
0.675444
0.659921
0.641239
0.618512
0.590689
0.555687
0.511944
0.452748
0.377162
0.256275
0.0995613
0.735744
0.751794
0.747491
0.747942
0.74739
0.746604
0.745433
0.743843
0.741782
0.739195
0.736015
0.73216
0.727532
0.722009
0.71544
0.707643
0.698386
0.68738
0.674253
0.658515
0.639532
0.616357
0.587886
0.551805
0.506571
0.444136
0.363982
0.224703
0.0356543
0.737927
0.75387
0.749533
0.750118
0.749643
0.748957
0.747876
0.74636
0.744347
0.741776
0.738579
0.734679
0.729979
0.724362
0.717682
0.709757
0.700357
0.689188
0.675872
0.659905
0.64063
0.617061
0.588043
0.551101
0.504668
0.439981
0.357689
0.210898
0.00253312
0.748683
0.764942
0.761135
0.762084
0.762248
0.762327
0.762121
0.761514
0.760369
0.758568
0.756009
0.752603
0.748262
0.742889
0.736362
0.728524
0.719168
0.708023
0.694731
0.678805
0.659608
0.636181
0.607355
0.570812
0.524408
0.461214
0.380837
0.269853
0.199214
0.328077
0.327429
0.326774
0.326115
0.325449
0.324777
0.324101
0.323418
0.322727
0.322034
0.321335
0.320631
0.319923
0.319209
0.318489
0.317763
0.317029
0.316295
0.315558
0.314817
0.314062
0.313305
0.312549
0.311803
0.311057
0.310291
0.309525
0.308758
0.307996
0.307229
0.306451
0.305688
0.304922
0.304149
0.30338
0.302616
0.301857
0.301099
0.300341
0.299584
0.298829
0.298075
0.297323
0.296573
0.295826
0.295082
0.29434
0.2936
0.292866
0.292137
0.291411
0.290689
0.289971
0.289256
0.288546
0.287842
0.287143
0.286449
0.285761
0.285079
0.284403
0.283733
0.28307
0.282413
0.281764
0.281122
0.280487
0.279859
0.27924
0.278628
0.278024
0.277428
0.276841
0.276262
0.275691
0.275128
0.274576
0.274036
0.273499
0.272974
0.272459
0.271952
0.271453
0.270964
0.270486
0.270015
0.269555
0.269105
0.268665
0.268235
0.267814
0.267405
0.267007
0.26662
0.266244
0.265878
0.265523
0.265179
0.264846
0.264524
0.264214
0.263916
0.263628
0.263352
0.263086
0.262832
0.262588
0.262356
0.262134
0.261924
0.261724
0.261536
0.261359
0.261193
0.261037
0.260892
0.260757
0.260633
0.260518
0.260412
0.260316
0.260227
0.260148
0.260075
0.260012
0.259955
0.259908
0.259867
0.259834
0.25981
0.25979
0.259782
0.259779
0.259782
0.259805
0.259818
0.259879
0.259886
0.260041
0.328831
0.328162
0.327488
0.326806
0.326117
0.325425
0.324719
0.324008
0.323295
0.322574
0.321851
0.321118
0.320375
0.319628
0.318881
0.318132
0.317382
0.316621
0.315854
0.315087
0.314333
0.31357
0.312804
0.312014
0.311223
0.310455
0.309682
0.308904
0.308121
0.307355
0.306588
0.305796
0.305011
0.304231
0.303451
0.302661
0.301869
0.301079
0.300293
0.29951
0.298729
0.297951
0.297176
0.296404
0.295635
0.294869
0.294106
0.293344
0.29258
0.291814
0.291052
0.290293
0.289545
0.288813
0.288091
0.287373
0.286659
0.285949
0.285244
0.284544
0.28385
0.283162
0.28248
0.281805
0.281137
0.280476
0.279822
0.279176
0.278538
0.277908
0.277286
0.276673
0.276069
0.275473
0.274883
0.2743
0.273717
0.273134
0.272574
0.272023
0.271479
0.270946
0.270425
0.26992
0.269426
0.268943
0.268475
0.268019
0.267574
0.26714
0.266714
0.266299
0.265894
0.265498
0.265117
0.264742
0.264373
0.264025
0.263692
0.263373
0.263066
0.262769
0.262482
0.262207
0.261945
0.261693
0.261453
0.261225
0.261008
0.260803
0.26061
0.260429
0.26026
0.260102
0.259955
0.259819
0.259693
0.259576
0.259469
0.259372
0.259283
0.259205
0.259136
0.259078
0.259028
0.25899
0.258954
0.25893
0.258906
0.258887
0.258879
0.258856
0.258869
0.258818
0.258868
0.258789
0.258842
0.258764
0.258726
0.33004
0.329319
0.328596
0.327864
0.327126
0.326377
0.325629
0.324876
0.324114
0.323341
0.32256
0.321783
0.321051
0.320311
0.319527
0.318733
0.31794
0.317153
0.316369
0.315578
0.314774
0.313969
0.31316
0.312367
0.311569
0.310749
0.30993
0.309122
0.308309
0.307471
0.306636
0.305809
0.304984
0.304159
0.303334
0.302515
0.301701
0.300888
0.300074
0.299258
0.298442
0.297628
0.296815
0.296004
0.295196
0.294391
0.293589
0.292794
0.292001
0.291211
0.290426
0.289647
0.288869
0.288083
0.287296
0.286521
0.285756
0.284999
0.28425
0.283508
0.282774
0.282046
0.281326
0.280614
0.279908
0.279211
0.278521
0.277839
0.277165
0.2765
0.275843
0.275193
0.274553
0.273921
0.273304
0.2727
0.272108
0.271534
0.270964
0.270402
0.269847
0.2693
0.268765
0.26823
0.267706
0.267196
0.266695
0.266201
0.265714
0.265237
0.264779
0.264339
0.26391
0.263501
0.263101
0.262722
0.262363
0.262013
0.261673
0.261341
0.261021
0.260716
0.260425
0.260145
0.259878
0.259625
0.259386
0.259161
0.258948
0.258749
0.258562
0.258388
0.258227
0.25808
0.257944
0.257821
0.25771
0.257613
0.257528
0.257458
0.2574
0.257355
0.257321
0.257298
0.257287
0.257286
0.257298
0.257318
0.257355
0.257389
0.257452
0.257498
0.257582
0.25766
0.25769
0.257845
0.257739
0.258092
0.257778
0.331612
0.330865
0.330108
0.329345
0.328583
0.327815
0.327037
0.326254
0.32547
0.324684
0.323893
0.323093
0.322234
0.321376
0.320557
0.319739
0.318907
0.318059
0.317205
0.316344
0.315489
0.314636
0.31376
0.312884
0.312009
0.311122
0.310255
0.309401
0.30855
0.307683
0.3068
0.305922
0.30504
0.304154
0.303266
0.302386
0.301509
0.300633
0.299758
0.298885
0.298015
0.297147
0.296282
0.295418
0.294556
0.293695
0.292828
0.291956
0.29109
0.290233
0.289378
0.288528
0.287682
0.286841
0.286021
0.285218
0.284417
0.283617
0.28282
0.282029
0.281245
0.280468
0.279699
0.278937
0.278184
0.27744
0.276704
0.275978
0.275262
0.274557
0.273858
0.273171
0.272488
0.271809
0.271143
0.270488
0.26985
0.269223
0.268597
0.267976
0.267371
0.266782
0.266206
0.265651
0.265113
0.264584
0.264067
0.263565
0.263077
0.262611
0.262162
0.261722
0.261301
0.260876
0.260448
0.260036
0.259638
0.259244
0.258865
0.258499
0.258155
0.257824
0.257509
0.257214
0.256932
0.256671
0.256422
0.256193
0.255981
0.255785
0.255604
0.255442
0.255293
0.255162
0.255045
0.254947
0.254864
0.254797
0.254752
0.254719
0.25471
0.254717
0.254744
0.254789
0.254852
0.254934
0.255032
0.255149
0.255298
0.255438
0.255607
0.255867
0.255864
0.25649
0.255929
0.257377
0.25592
0.258592
0.255552
0.333793
0.333013
0.332225
0.331434
0.330628
0.329809
0.328982
0.328152
0.327305
0.326452
0.325587
0.324713
0.323844
0.322962
0.322057
0.321152
0.320239
0.319323
0.31843
0.317524
0.316583
0.315642
0.314707
0.313769
0.31283
0.31188
0.310915
0.309931
0.30894
0.307968
0.307006
0.306039
0.305076
0.304109
0.303148
0.302193
0.301237
0.30028
0.299322
0.298365
0.297409
0.296453
0.2955
0.294549
0.2936
0.292656
0.291718
0.290792
0.289873
0.288955
0.288044
0.28714
0.286242
0.285352
0.284453
0.283554
0.282671
0.2818
0.28094
0.280087
0.279243
0.278407
0.277579
0.276759
0.275947
0.275142
0.274346
0.273557
0.272776
0.272004
0.271243
0.27049
0.26975
0.269031
0.268321
0.267618
0.266926
0.266245
0.265584
0.264949
0.264325
0.26371
0.263109
0.262511
0.261925
0.261358
0.2608
0.260258
0.259742
0.259226
0.258717
0.258225
0.257745
0.257288
0.256866
0.256459
0.256055
0.255678
0.255309
0.254958
0.254616
0.254293
0.253981
0.253679
0.2534
0.253123
0.252873
0.252633
0.252408
0.252198
0.252008
0.251831
0.251675
0.251534
0.25142
0.251323
0.251251
0.251206
0.251176
0.251181
0.251203
0.251245
0.251307
0.251399
0.25151
0.251648
0.251826
0.252006
0.252242
0.252575
0.252648
0.253485
0.252886
0.255065
0.252762
0.257817
0.2518
0.262385
0.248132
0.336255
0.33545
0.334622
0.333773
0.332907
0.332036
0.331158
0.330253
0.329336
0.32842
0.327491
0.326538
0.325576
0.324611
0.323636
0.322673
0.321702
0.320705
0.319673
0.318641
0.317631
0.316618
0.315597
0.314556
0.313504
0.312467
0.311429
0.310373
0.309315
0.30827
0.307224
0.306174
0.305129
0.304082
0.303025
0.301962
0.3009
0.299839
0.298784
0.297735
0.296688
0.295645
0.294607
0.293573
0.292544
0.291524
0.290505
0.289478
0.288453
0.287458
0.286472
0.285478
0.284485
0.2835
0.282521
0.281543
0.280577
0.279626
0.278683
0.277749
0.276825
0.27591
0.274999
0.274097
0.273201
0.272315
0.271442
0.270582
0.269737
0.268905
0.26809
0.267292
0.266509
0.265742
0.264985
0.264244
0.263518
0.262798
0.262089
0.261393
0.260716
0.260042
0.259378
0.258738
0.258112
0.257496
0.256887
0.256298
0.255714
0.255146
0.254595
0.254056
0.253535
0.253037
0.25255
0.252069
0.251622
0.251186
0.250775
0.250387
0.250018
0.24967
0.249338
0.249034
0.248736
0.24847
0.248216
0.247983
0.247776
0.247586
0.247414
0.247264
0.247139
0.247034
0.246949
0.246885
0.246842
0.246815
0.246814
0.24683
0.246869
0.246934
0.247034
0.247157
0.247326
0.247502
0.247731
0.248055
0.248198
0.248984
0.248609
0.250473
0.248743
0.25267
0.248472
0.255544
0.246427
0.261507
0.232136
0.339064
0.338199
0.337319
0.336433
0.335523
0.334584
0.333633
0.332676
0.331703
0.330696
0.329685
0.328673
0.327651
0.326605
0.32554
0.324449
0.323355
0.322267
0.321176
0.320076
0.318953
0.317809
0.316675
0.315543
0.314405
0.313258
0.31209
0.310958
0.309849
0.308691
0.30751
0.306339
0.305153
0.303981
0.302823
0.301654
0.300479
0.299311
0.298149
0.296988
0.29583
0.294679
0.293531
0.292387
0.291242
0.290108
0.288977
0.287842
0.286717
0.285583
0.284455
0.283354
0.282274
0.281202
0.280144
0.279095
0.278049
0.277014
0.275991
0.27498
0.273975
0.272979
0.271998
0.27103
0.270074
0.26913
0.268194
0.267268
0.266349
0.265441
0.264543
0.263653
0.262772
0.261899
0.261048
0.260216
0.259394
0.258599
0.257825
0.257058
0.256312
0.255601
0.254907
0.25422
0.253554
0.25291
0.252286
0.251676
0.251085
0.250514
0.249955
0.249409
0.248884
0.248362
0.247847
0.247361
0.246884
0.246419
0.245979
0.24554
0.245112
0.244698
0.244307
0.243929
0.243585
0.24327
0.242971
0.242697
0.242431
0.242195
0.241985
0.241798
0.241627
0.241478
0.241351
0.241246
0.24117
0.241112
0.241084
0.241086
0.241107
0.241184
0.241268
0.241397
0.241559
0.241759
0.241943
0.242322
0.242268
0.243094
0.242508
0.244013
0.242817
0.244814
0.243516
0.245098
0.24354
0.251823
0.218937
0.342718
0.341805
0.340855
0.339866
0.338863
0.337857
0.336814
0.335734
0.334652
0.333566
0.332441
0.331288
0.33012
0.328941
0.327768
0.326579
0.325376
0.324153
0.322916
0.321673
0.320428
0.319191
0.31793
0.31665
0.31537
0.314089
0.312805
0.3115
0.310172
0.30887
0.307585
0.306285
0.30499
0.303691
0.302383
0.301093
0.299837
0.298583
0.297314
0.296039
0.294764
0.293489
0.292214
0.29094
0.289665
0.288382
0.28712
0.285896
0.284675
0.283471
0.282277
0.28108
0.279889
0.278704
0.277528
0.276362
0.275195
0.27403
0.272874
0.271728
0.270599
0.269488
0.268396
0.267322
0.26627
0.265239
0.264227
0.263234
0.262264
0.261313
0.260381
0.259469
0.258577
0.2577
0.256828
0.255971
0.255127
0.254286
0.253449
0.252629
0.251822
0.251016
0.250218
0.249436
0.248669
0.247924
0.247193
0.246478
0.245805
0.245148
0.244503
0.243885
0.243284
0.242706
0.242172
0.241654
0.24115
0.240682
0.240216
0.239776
0.239369
0.23898
0.238601
0.238245
0.237896
0.23755
0.237224
0.236912
0.236627
0.236363
0.236102
0.235869
0.235654
0.235465
0.235295
0.235157
0.235034
0.234945
0.234879
0.234833
0.234828
0.234815
0.234845
0.234862
0.234911
0.234987
0.234951
0.235206
0.234986
0.235468
0.235096
0.235718
0.235409
0.23577
0.236318
0.235978
0.236187
0.243101
0.212828
0.347261
0.346194
0.345116
0.344035
0.342902
0.341725
0.340556
0.33937
0.338149
0.336899
0.335646
0.334382
0.333097
0.33179
0.330457
0.329108
0.327748
0.326382
0.325014
0.323618
0.322205
0.320788
0.319365
0.317942
0.316518
0.31508
0.313642
0.31218
0.31072
0.309263
0.30782
0.306428
0.305051
0.303625
0.30217
0.300719
0.299259
0.2978
0.296351
0.294919
0.2935
0.29209
0.29069
0.289306
0.287941
0.286575
0.285211
0.283837
0.282473
0.281128
0.27978
0.278447
0.277133
0.275837
0.274556
0.273284
0.272034
0.270801
0.269584
0.268395
0.267213
0.266037
0.264871
0.263711
0.262564
0.261422
0.260293
0.259175
0.258068
0.256978
0.2559
0.25484
0.253792
0.252765
0.251768
0.250779
0.249823
0.248911
0.248021
0.247157
0.246323
0.245519
0.244726
0.243945
0.243193
0.242454
0.241719
0.240994
0.240279
0.239575
0.238886
0.238218
0.237559
0.236923
0.2363
0.235695
0.235117
0.234543
0.233983
0.233453
0.232947
0.232454
0.232013
0.231595
0.231199
0.23081
0.230447
0.230115
0.229811
0.229515
0.229246
0.228993
0.228767
0.228561
0.228374
0.228203
0.228051
0.22791
0.227781
0.227677
0.227564
0.227482
0.227393
0.227334
0.227253
0.227267
0.227131
0.227263
0.227075
0.227314
0.227095
0.227379
0.227393
0.227137
0.227621
0.226639
0.225384
0.232451
0.205771
0.352541
0.351341
0.350109
0.348844
0.347566
0.346275
0.344942
0.343568
0.342201
0.340824
0.339387
0.337933
0.336477
0.335019
0.333524
0.332009
0.330475
0.328934
0.327396
0.325834
0.324268
0.322699
0.32111
0.319506
0.317898
0.316276
0.314646
0.313039
0.311422
0.309787
0.308173
0.306587
0.304965
0.303336
0.301724
0.300118
0.29852
0.296924
0.295334
0.293754
0.292179
0.290614
0.289062
0.287518
0.285961
0.284394
0.282844
0.281348
0.279874
0.278387
0.276924
0.275485
0.274058
0.272634
0.271221
0.269823
0.268443
0.267078
0.265721
0.264371
0.263037
0.261734
0.260458
0.259207
0.257976
0.25677
0.255588
0.254428
0.253285
0.252151
0.251034
0.249934
0.248859
0.247787
0.246734
0.245712
0.244678
0.243651
0.242657
0.241658
0.240674
0.239735
0.238817
0.237907
0.237018
0.236174
0.235367
0.234593
0.233829
0.233084
0.232373
0.23168
0.231011
0.230351
0.22972
0.229101
0.228486
0.227892
0.22734
0.226801
0.226269
0.225762
0.225259
0.22477
0.224298
0.223855
0.22344
0.223038
0.222654
0.222298
0.221966
0.221645
0.221349
0.221068
0.220805
0.220556
0.220328
0.22011
0.219913
0.219714
0.219541
0.219364
0.21921
0.219077
0.218916
0.218851
0.218667
0.218701
0.218488
0.218612
0.218441
0.218462
0.21872
0.218427
0.218526
0.217764
0.216305
0.222606
0.199338
0.358633
0.357273
0.355891
0.354445
0.352965
0.351473
0.34994
0.348382
0.346782
0.345162
0.34354
0.341907
0.340218
0.338499
0.336792
0.335091
0.333369
0.331619
0.32986
0.328085
0.326286
0.324486
0.322689
0.320885
0.319081
0.317288
0.315491
0.313677
0.311861
0.310051
0.308221
0.306365
0.304522
0.302699
0.300907
0.299158
0.297414
0.295665
0.293921
0.292179
0.290436
0.288696
0.286964
0.28523
0.283525
0.281846
0.280196
0.278564
0.276913
0.275285
0.273696
0.272107
0.270515
0.268943
0.267405
0.265887
0.264377
0.262883
0.261421
0.259979
0.25856
0.257153
0.25575
0.254374
0.253022
0.251689
0.250375
0.249084
0.247821
0.246585
0.245381
0.244205
0.243045
0.241926
0.240826
0.239731
0.238683
0.237662
0.236639
0.235653
0.234687
0.233716
0.23276
0.231825
0.230902
0.22998
0.22907
0.228171
0.227309
0.226483
0.22569
0.224914
0.22416
0.223451
0.222742
0.222043
0.221383
0.220759
0.220154
0.219579
0.219038
0.218517
0.217983
0.217465
0.216982
0.21651
0.216045
0.215602
0.215177
0.214763
0.214361
0.213985
0.213624
0.213277
0.212948
0.212632
0.212331
0.212053
0.211777
0.211531
0.211291
0.211081
0.210875
0.210727
0.210519
0.210439
0.210229
0.210211
0.210024
0.210022
0.209936
0.209798
0.20997
0.209381
0.209015
0.208389
0.207205
0.212654
0.192253
0.365393
0.363791
0.362168
0.360522
0.358819
0.357081
0.355334
0.353572
0.351776
0.349936