/*--------------------------------*- C++ -*----------------------------------*\
| =========                 |                                                 |
| \\      /  F ield         | OpenFOAM: The Open Source CFD Toolbox           |
|  \\    /   O peration     | Version:  5.x                                   |
|   \\  /    A nd           | Web:      www.OpenFOAM.org                      |
|    \\/     M anipulation  |                                                 |
\*---------------------------------------------------------------------------*/
/*   Windows 32 and 64 bit porting by blueCAPE: http://www.bluecape.com.pt   *\
|  Based on Windows porting (2.0.x v4) by Symscape: http://www.symscape.com   |
\*---------------------------------------------------------------------------*/
FoamFile
{
    version     2.0;
    format      ascii;
    class       surfaceScalarField;
    location    "400";
    object      phi;
}
// * * * * * * * * * * * * * * * * * * * * * * * * * * * * * * * * * * * * * //

dimensions      [0 3 -1 0 0 0 0];

internalField   nonuniform List<scalar> 
87341
(
0.366237
39.5568
0.530681
39.7586
0.498006
39.9557
0.604907
39.8161
0.642015
39.8859
0.687262
39.8778
0.724705
39.8856
0.762983
39.8848
0.799228
39.8868
0.830122
39.8921
0.860799
39.8924
0.888411
39.8954
0.916063
39.8954
0.939924
39.8992
0.961176
39.9018
0.983811
39.9004
1.00428
39.9026
1.02233
39.905
1.04088
39.9045
1.0582
39.9057
1.07563
39.9056
1.09618
39.9025
1.11842
39.9008
1.13386
39.9076
1.1365
39.9204
1.1381
39.9214
1.15533
39.9058
1.18487
39.8935
39.8967
1.21124
0.97178
38.585
1.3652
39.3652
1.4775
39.8434
1.61552
39.6781
1.65662
39.8448
1.81602
39.7184
1.91929
39.7823
2.05253
39.7515
2.15231
39.787
2.26163
39.7828
2.36254
39.7915
2.45757
39.8004
2.5461
39.8069
2.63309
39.8122
2.71415
39.8207
2.78296
39.8316
2.85004
39.8355
2.92077
39.8343
2.98322
39.842
3.03461
39.8543
3.0826
39.8576
3.12241
39.8627
3.14885
39.8743
3.1741
39.8824
3.22163
39.8729
3.28416
39.8589
3.333
39.857
3.34942
39.8771
39.8973
3.34882
2.03582
36.5492
3.35274
38.0483
4.1331
39.0631
4.21745
39.5938
4.37577
39.6865
4.31137
39.7828
4.34162
39.7521
4.31429
39.7789
4.3344
39.7669
4.34816
39.7691
4.36845
39.7712
4.39658
39.7723
4.42781
39.7756
4.46349
39.7765
4.50307
39.7812
4.54708
39.7876
4.5885
39.7941
4.62599
39.7968
4.66934
39.7987
4.72287
39.8008
4.77245
39.808
4.8139
39.8212
4.86397
39.8243
4.92938
39.8169
4.99084
39.8114
5.03035
39.8194
5.05209
39.8352
5.08414
39.845
39.8458
5.13558
1.69941
34.8498
3.50386
36.2438
4.95842
37.6085
5.84962
38.7026
6.15358
39.3826
6.2443
39.6921
6.26287
39.7335
6.29727
39.7445
6.3177
39.7465
6.33459
39.7522
6.34835
39.7574
6.35805
39.7626
6.3713
39.7624
6.38384
39.764
6.3975
39.7675
6.41725
39.7678
6.44827
39.763
6.48159
39.7635
6.51119
39.7691
6.54069
39.7713
6.57747
39.7712
6.63356
39.7651
6.69699
39.7608
6.74605
39.7679
6.77824
39.7792
6.81128
39.7864
6.85572
39.7908
6.91479
39.786
39.7793
6.98132
1.0958
33.754
2.46924
34.8704
4.04902
36.0287
5.52114
37.2304
6.59986
38.3038
7.19633
39.0956
7.41292
39.5169
7.46475
39.6926
7.51498
39.6962
7.56753
39.6996
7.61782
39.7071
7.67106
39.7093
7.72533
39.7081
7.77045
39.7188
7.81528
39.7227
7.86685
39.7163
7.91013
39.7198
7.95905
39.7145
8.00978
39.7183
8.05363
39.7275
8.09993
39.725
8.14233
39.7227
8.18015
39.723
8.21725
39.7308
8.26107
39.7354
8.31572
39.7317
8.37649
39.73
8.43053
39.7319
39.7305
8.47933
0.859807
32.8942
1.87918
33.851
3.05535
34.8525
4.39292
35.8929
5.75497
36.9418
6.89935
37.9512
7.63406
38.7822
7.994
39.3327
8.12829
39.562
8.21427
39.6136
8.30733
39.6141
8.39626
39.6204
8.47853
39.6258
8.56607
39.6313
8.64566
39.6431
8.7258
39.6361
8.8129
39.6327
8.8862
39.6412
8.95948
39.6451
9.0488
39.6381
9.13252
39.6412
9.2053
39.65
9.27096
39.6574
9.34603
39.6557
9.43162
39.6498
9.51304
39.6503
9.59221
39.6508
9.67272
39.6514
39.6503
9.75295
0.756567
32.1376
1.61395
32.9936
2.57508
33.8914
3.64376
34.8242
4.80963
35.7759
6.03323
36.7276
7.15705
37.6584
7.99837
38.4914
8.4686
39.0917
8.67665
39.4056
8.79882
39.4919
8.9294
39.4898
9.05999
39.4953
9.18613
39.5052
9.31732
39.5119
9.44603
39.5074
9.5696
39.5091
9.69415
39.5167
9.81933
39.5199
9.93077
39.5267
10.0474
39.5246
10.1735
39.5239
10.3039
39.527
10.4225
39.5371
10.5338
39.5385
10.6497
39.5344
10.7588
39.5417
10.8564
39.5539
39.5644
10.9422
0.704363
31.4332
1.47835
32.2196
2.32549
33.0443
3.24826
33.9014
4.24422
34.7799
5.30457
35.6673
6.41412
36.5488
7.50119
37.4043
8.38775
38.2052
8.95711
38.8362
9.23205
39.217
9.38487
39.337
9.53972
39.3404
9.6975
39.3474
9.84855
39.3608
9.999
39.357
10.1556
39.3525
10.3086
39.3637
10.4489
39.3795
10.5981
39.3775
10.7411
39.3816
10.8825
39.3825
11.0307
39.3787
11.1875
39.3803
11.3286
39.3974
11.4512
39.4119
11.5744
39.4185
11.7158
39.4125
39.4102
11.87
0.675788
30.7575
1.40296
31.4925
2.18492
32.2623
3.02366
33.0627
3.91871
33.8849
4.86663
34.7193
5.85998
35.5555
6.88305
36.3812
7.90636
37.1819
8.80453
37.9381
9.44214
38.5793
9.77582
39.0033
9.96145
39.1548
10.1436
39.1652
10.3335
39.171
10.5065
39.184
10.6761
39.1828
10.8565
39.1834
11.038
39.198
11.2091
39.2064
11.382
39.2087
11.546
39.2185
11.6999
39.2248
11.8513
39.2289
12.014
39.2347
12.186
39.2398
12.3468
39.2577
12.4858
39.2735
39.271
12.6251
0.660023
30.0974
1.36213
30.7903
2.10671
31.5177
2.89536
32.274
3.72819
33.0521
4.60356
33.844
5.51764
34.6414
6.46338
35.4355
7.4291
36.2161
8.39591
36.9712
9.29246
37.6828
9.97936
38.3164
10.376
38.7581
10.6
38.9412
10.8115
38.9595
11.0235
38.972
11.2331
38.9732
11.4343
38.9822
11.644
38.9884
11.8542
38.9962
12.057
39.0058
12.2592
39.0162
12.4559
39.0282
12.6343
39.0504
12.8128
39.0563
12.9963
39.0563
13.195
39.0589
13.4028
39.0657
39.088
13.5858
0.656594
29.4408
1.34783
30.0991
2.07405
30.7915
2.83597
31.5121
3.63354
32.2545
4.46565
33.0119
5.32998
33.7771
6.22262
34.5428
7.13747
35.3013
8.06499
36.0437
8.98854
36.7592
9.87313
37.4318
10.5831
38.0481
11.0211
38.5032
11.2767
38.7039
11.5151
38.7336
11.7462
38.7421
11.9899
38.7384
12.219
38.7592
12.445
38.7703
12.6845
38.7664
12.9206
38.7801
13.1489
38.7998
13.3903
38.809
13.6159
38.8307
13.8206
38.8517
14.0117
38.8678
14.1997
38.8777
38.8746
14.4131
0.66095
28.7799
1.35056
29.4095
2.0705
30.0716
2.82099
30.7616
3.60173
31.4738
4.41163
32.202
5.24884
32.9399
6.1105
33.6812
6.99253
34.4193
7.88888
35.1474
8.79024
35.8579
9.68049
36.5416
10.5427
37.1859
11.2665
37.7794
11.7348
38.2357
12.0293
38.439
12.2939
38.4776
12.549
38.4833
12.8263
38.4819
13.0769
38.5197
13.3157
38.5276
13.5717
38.5241
13.8212
38.5503
14.0606
38.5695
14.2987
38.5926
14.5452
38.6052
14.791
38.622
15.0195
38.6492
38.6679
15.2262
0.667656
28.1122
1.36208
28.7151
2.08344
29.3502
2.8317
30.0134
3.60645
30.699
4.40684
31.4016
5.23127
32.1155
6.07748
32.8349
6.94241
33.5543
7.8219
34.2679
8.71018
34.9696
9.59891
35.6528
10.4754
36.3094
11.3262
36.9286
12.0621
37.4997
12.5507
37.9505
12.8748
38.1534
13.1704
38.1878
13.4471
38.2052
13.751
38.2157
14.0198
38.2588
14.2821
38.2618
14.5614
38.271
14.8289
38.3021
15.0944
38.3271
15.3348
38.3648
15.5823
38.3746
15.8395
38.3919
38.4299
16.0775
0.67762
27.4346
1.37958
28.0131
2.1062
28.6236
2.85739
29.2622
3.63242
29.924
4.4304
30.6036
5.25006
31.2958
6.0895
31.9955
6.94624
32.6976
7.81716
33.397
8.6982
34.0886
9.58401
34.767
10.4671
35.4264
11.3365
36.0592
12.1804
36.6558
12.9229
37.2079
13.4213
37.6551
13.7625
37.8465
14.0843
37.8834
14.3895
37.9106
14.7104
37.9379
14.998
37.9743
15.2835
37.9855
15.5682
38.0174
15.8578
38.0375
16.1512
38.0714
16.4167
38.109
16.6786
38.1301
38.1518
16.9567
0.689861
26.7448
1.40236
27.3006
2.13761
27.8883
2.89565
28.5041
3.67587
29.1438
4.4771
29.8024
5.29814
30.4748
6.13746
31.1562
6.99302
31.842
7.86226
32.5277
8.74206
33.2088
9.62849
33.8806
10.5164
34.5384
11.3989
35.1768
12.2657
35.789
13.1077
36.366
13.8588
36.904
14.3636
37.3417
14.7197
37.5273
15.0721
37.5581
15.4062
37.6039
15.7423
37.6382
16.0553
37.6725
16.3759
37.6968
16.664
37.7494
16.9644
37.771
17.273
37.8004
17.552
37.8511
37.8837
17.8202
0.703779
26.041
1.42899
26.5754
2.17562
27.1417
2.94352
27.7362
3.73237
28.3549
4.54118
28.9936
5.36847
29.6475
6.21282
30.3118
7.07255
30.9823
7.94555
31.6547
8.82928
32.325
9.72067
32.9892
10.6159
33.6432
11.51
34.2827
12.3963
34.9027
13.2648
35.4975
14.1098
36.059
14.8659
36.5856
15.3755
37.0177
15.7448
37.1888
16.119
37.2296
16.4737
37.2836
16.8221
37.324
17.1543
37.3646
17.5044
37.3992
17.8114
37.464
18.1246
37.4872
18.4702
37.5055
37.5914
18.7624
0.717658
25.3233
1.45595
25.8371
2.21475
26.3829
2.9937
26.9573
3.79237
27.5562
4.61011
28.1758
5.44566
28.8119
6.29739
29.4601
7.16366
30.116
8.04255
30.7758
8.93184
31.4357
9.82895
32.0921
10.7308
32.7414
11.6336
33.3799
12.5324
34.0039
13.421
34.6089
14.2902
35.1898
15.1353
35.7405
15.8911
36.2618
16.3987
36.6812
16.7838
36.8446
17.1674
36.8999
17.5381
36.9534
17.8987
37.004
18.2538
37.0441
18.6269
37.0909
18.938
37.1761
19.2449
37.1986
37.2321
19.6042
0.731554
24.5918
1.48312
25.0855
2.25452
25.6115
3.04536
26.1664
3.85502
26.7466
4.68279
27.348
5.52775
27.967
6.38844
28.5994
7.26325
29.2412
8.15045
29.8886
9.04796
30.5382
9.95346
31.1866
10.8643
31.8305
11.7774
32.4668
12.6891
33.0922
13.5947
33.7033
14.4883
34.2962
15.3622
34.8666
16.2137
35.4104
16.9679
35.9269
17.4814
36.3311
17.8874
36.4939
18.2745
36.5663
18.6694
36.6091
19.0325
36.6809
19.3983
36.7251
19.7985
36.7759
20.1144
36.8827
36.9313
20.4152
0.744674
23.8471
1.50894
24.3213
2.29258
24.8279
3.09521
25.3638
3.9162
25.9256
4.75472
26.5095
5.60985
27.1118
6.48035
27.7289
7.36462
28.3569
8.26105
28.9922
9.16786
29.6314
10.083
30.2714
11.0042
30.9093
11.9288
31.5421
12.8539
32.1671
13.7759
32.7813
14.6905
33.3816
15.5923
33.9648
16.4755
34.5272
17.336
35.0665
18.0859
35.5812
18.603
35.9767
19.0154
36.1539
19.4042
36.2203
19.793
36.2922
20.1429
36.3752
20.4801
36.4387
20.8866
36.4762
36.5931
21.2248
0.756213
23.0909
1.53173
23.5458
2.32627
24.0333
3.13942
24.5507
3.97055
25.0945
4.81882
25.6613
5.68326
26.2474
6.56277
26.8494
7.45588
27.4638
8.36088
28.0872
9.27607
28.7162
10.1996
29.3479
11.1293
29.9796
12.063
30.6085
12.998
31.2321
13.9314
31.8479
14.8598
32.4533
15.7789
33.0456
16.684
33.6221
17.5703
34.1802
18.4319
34.7196
19.1722
35.2363
19.6889
35.6373
20.0958
35.8134
20.5071
35.881
20.932
35.9503
21.2939
36.0767
21.6295
36.1406
36.216
22.0067
0.766373
22.3245
1.55177
22.7604
2.35592
23.2292
3.17839
23.7282
4.01854
24.2543
4.87554
24.8043
5.74839
25.3746
6.63596
25.9618
7.53701
26.5628
8.4499
27.1743
9.37294
27.7932
10.3043
28.4165
11.2422
29.0417
12.1843
29.6663
13.1285
30.2879
14.0721
30.9042
15.0124
31.513
15.9461
32.112
16.8694
32.6988
17.7784
33.2712
18.6706
33.8274
19.5388
34.3682
20.2816
34.8945
20.8035
35.2915
21.2105
35.474
21.5987
35.5621
22.0328
35.6427
22.4064
35.767
35.8573
22.7651
0.774897
21.5496
1.56865
21.9666
2.38095
22.4169
3.21137
22.8978
4.05928
23.4064
4.92388
23.9396
5.80421
24.4942
6.6991
25.0669
7.60734
25.6546
8.52749
26.2542
9.45788
26.8628
10.3968
27.4776
11.3425
28.0961
12.2929
28.7159
13.246
29.3348
14.1997
29.9506
15.1513
30.5614
16.0983
31.165
17.0377
31.7595
17.9661
32.3427
18.8805
32.913
19.7792
33.4694
20.6561
34.0176
21.3953
34.5523
21.9029
34.9664
22.3042
35.1608
22.7027
35.2442
23.1022
35.3675
35.4792
23.4802
0.781864
20.7677
1.58238
21.1661
2.40126
21.598
3.23809
22.0609
4.09226
22.5522
4.96297
23.0689
5.84927
23.6079
6.75001
24.1662
7.66397
24.7406
8.5898
25.3283
9.52593
25.9267
10.4707
26.5328
11.4225
27.1444
12.3793
27.759
13.3393
28.3747
14.3005
28.9894
15.2606
29.6013
16.2173
30.2083
17.168
30.8088
18.1098
31.4009
19.0397
31.983
19.9552
32.554
20.8585
33.1143
21.7408
33.67
22.4765
34.2307
22.9786
34.6586
23.3815
34.8413
23.7932
34.9558
35.1061
24.1663
0.787045
19.9807
1.5926
20.3606
2.41637
20.7742
3.25793
21.2194
4.11668
21.6935
4.99187
22.1937
5.88257
22.7172
6.78769
23.261
7.70601
23.8223
8.63619
24.3982
9.57672
24.9861
10.526
25.5836
11.4822
26.1881
12.4437
26.7975
13.4086
27.4098
14.375
28.0231
15.3408
28.6354
16.304
29.2452
17.2622
29.8506
18.213
30.4501
19.1537
31.0423
20.082
31.6257
20.9965
32.1998
21.9016
32.7649
22.7975
33.3348
23.5428
33.9133
24.0175
34.3666
24.4316
34.5417
34.6959
24.8419
0.790839
19.1899
1.6
19.5514
2.42723
19.947
3.2721
20.3745
4.13404
20.8316
5.01232
21.3155
5.90601
21.8235
6.81402
22.353
7.73512
22.9012
8.66798
23.4653
9.61119
24.0429
10.5631
24.6316
11.5222
25.229
12.4866
25.8331
13.4546
26.4418
14.4243
27.0534
15.3938
27.666
16.361
28.278
17.3238
28.8878
18.2801
29.4938
19.2277
30.0947
20.1641
30.6892
21.0876
31.2763
21.9967
31.8558
22.9029
32.4286
23.8074
33.0088
24.5547
33.6193
25.011
34.0854
34.2969
25.41
0.793155
18.3967
1.60447
18.7401
2.43367
19.1178
3.28037
19.5278
4.14401
19.9679
5.02387
20.4356
5.91906
20.9284
6.82849
21.4436
7.75097
21.9787
8.68515
22.5311
9.6296
23.0985
10.5828
23.6784
11.543
24.2688
12.5086
24.8675
13.4777
25.4727
14.4487
26.0824
15.4195
26.6952
16.3882
27.3092
17.3529
27.9231
18.3114
28.5353
19.2616
29.1445
20.2014
29.7494
21.1288
30.3489
22.0422
30.9424
22.9409
31.5299
23.8386
32.1112
24.751
32.7069
25.4901
33.3463
33.8482
25.9388
0.794125
17.6026
1.60622
17.928
2.43603
18.288
3.28319
18.6807
4.14717
19.1039
5.02727
19.5555
5.92261
20.033
6.83217
20.534
7.75475
21.0561
8.68904
21.5968
9.63359
22.1539
10.5868
22.7252
11.547
23.3086
12.5125
23.902
13.4815
24.5037
14.4521
25.1118
15.4225
25.7248
16.3907
26.341
17.3548
26.959
18.3129
27.5773
19.2627
28.1946
20.2025
28.8097
21.1301
29.4213
22.0438
30.0286
22.9425
30.6311
23.8251
31.2286
24.7114
31.8206
25.6231
32.4345
33.1171
26.3543
0.793938
16.8086
1.60563
17.1163
2.43487
17.4587
3.28131
17.8342
4.14448
18.2408
5.02369
18.6763
5.91811
19.1386
6.8267
19.6255
7.74827
20.1345
8.68148
20.6636
9.62487
21.2105
10.5769
21.7732
11.5359
22.3496
12.5001
22.9378
13.4676
23.5361
14.4367
24.1428
15.4053
24.7561
16.3716
25.3747
17.3336
25.997
18.2893
26.6217
19.2366
27.2473
20.1737
27.8726
21.0985
28.4965
22.0093
29.1179
22.9045
29.7359
23.7831
30.35
24.6438
30.9599
25.513
31.5654
32.2132
26.4168
0.79259
16.016
1.60271
16.3062
2.43017
16.6313
3.27472
16.9897
4.13589
17.3796
5.01307
17.7991
5.90542
18.2463
6.81194
18.7189
7.73145
19.215
8.6626
19.7325
9.60393
20.2692
10.5539
20.8232
11.5107
21.3927
12.4727
21.9759
13.4379
22.5709
14.4045
23.1762
15.3705
23.7902
16.3338
24.4114
17.2924
25.0384
18.2443
25.6698
19.1874
26.3042
20.1197
26.9403
21.0393
27.5769
21.9442
28.2129
22.8328
28.8473
23.7037
29.4791
24.5558
30.1078
25.3884
30.7328
31.358
26.2436
0.790085
15.226
1.59744
15.4988
2.42194
15.8068
3.26339
16.1482
4.1214
16.5216
4.9954
16.9251
5.8846
17.3571
6.78803
17.8155
7.70453
18.2985
8.63279
18.8042
9.57132
19.3307
10.5185
19.876
11.4727
20.4386
12.4319
21.0166
13.3943
21.6085
14.3578
22.2126
15.3205
22.8276
16.2801
23.4518
17.2345
24.0839
18.1817
24.7226
19.1194
25.3664
20.0456
26.0141
20.9581
26.6644
21.855
27.3161
22.7343
27.968
23.5943
28.619
24.4338
29.2684
25.2515
29.9151
30.5577
26.0518
0.786405
14.4396
1.58979
14.6954
2.41011
14.9864
3.24728
15.3111
4.10098
15.6679
4.97071
16.0554
5.85573
16.472
6.75513
16.9161
7.66778
17.3859
8.59238
17.8796
9.52747
18.3956
10.4714
18.9321
11.4224
19.4876
12.3786
20.0605
13.3378
20.6492
14.2981
21.2524
15.2572
21.8684
16.213
22.496
17.1631
23.1338
18.1052
23.7804
19.0371
24.4345
19.9565
25.0948
20.8611
25.7598
21.7488
26.4284
22.6175
27.0993
23.4653
27.7712
24.2905
28.4431
25.0918
29.1138
29.7818
25.8677
0.7815
13.6581
1.57966
13.8973
2.39455
14.1715
3.2262
14.4794
4.0744
14.8197
4.93875
15.191
5.81858
15.5922
6.71302
16.0217
7.621
16.4779
8.54122
16.9594
9.47221
17.4646
10.4123
17.992
11.3597
18.5402
12.3124
19.1078
13.2684
19.6933
14.2254
20.2953
15.1812
20.9127
16.1333
21.5439
17.0794
22.1878
18.0168
22.843
18.9432
23.5081
19.856
24.1819
20.7528
24.863
21.6312
25.55
22.4889
26.2416
23.3239
26.9363
24.1342
27.6328
24.9182
28.3298
29.0257
25.6744
0.775261
12.8828
1.56683
13.1057
2.37493
13.3634
3.19973
13.6546
4.04115
13.9782
4.89889
14.3333
5.77237
14.7187
6.66079
15.1332
7.56314
15.5756
8.47816
16.0444
9.40439
16.5384
10.3402
17.0562
11.2837
17.5967
12.2329
18.1585
13.1857
18.7405
14.1397
19.3413
15.0924
19.9599
16.0414
20.5949
16.984
21.2452
17.9175
21.9095
18.8391
22.5866
19.7461
23.275
20.6357
23.9734
21.5054
24.6803
22.3526
25.3944
23.1749
26.114
23.9701
26.8375
24.7365
27.5634
28.2899
25.4722
0.767579
12.1152
1.55111
12.3222
2.35098
12.5636
3.1675
12.8381
4.00078
13.145
4.8506
13.4835
5.7165
13.8528
6.59779
14.2519
7.49352
14.6798
8.40249
15.1354
9.32329
15.6176
10.2543
16.1252
11.1936
16.6574
12.1393
17.2129
13.0889
17.7908
14.0402
18.3901
14.9905
19.0096
15.937
19.6484
16.877
20.3052
17.8075
20.9791
18.7253
21.6687
19.6276
22.3727
20.5112
23.0897
21.3732
23.8183
22.2107
24.5569
23.021
25.3037
23.8017
26.0569
24.5505
26.8146
27.5749
25.2655
0.758354
11.3569
1.53232
11.5482
2.32245
11.7735
3.12924
12.0313
3.95296
12.3213
4.79352
12.6429
5.6506
12.9957
6.5236
13.3789
7.41166
13.7918
8.31368
14.2334
9.22831
14.7029
10.154
15.1996
11.0888
15.7226
12.0306
16.271
12.9773
16.8442
13.9261
17.4412
14.8744
18.0613
15.8193
18.7035
16.7576
19.3669
17.6862
20.0505
18.6017
20.7532
19.5007
21.4737
20.3798
22.2107
21.2355
22.9626
22.0646
23.7278
22.864
24.5043
23.6308
25.2901
24.3625
26.0829
26.8805
25.0569
0.747498
10.6094
1.51032
10.7854
2.28917
10.9946
3.08475
11.2357
3.89747
11.5085
4.72741
11.813
5.57436
12.1488
6.43786
12.5155
7.31716
12.9125
8.21125
13.3393
9.11886
13.7953
10.0384
14.28
10.9682
14.7928
11.906
15.3332
12.8495
15.9007
13.796
16.4946
14.7429
17.1144
15.6869
17.7595
16.6247
18.4291
17.5528
19.1224
18.4675
19.8385
19.3649
20.5763
20.2412
21.3344
21.0925
22.1114
21.9148
22.9054
22.7048
23.7143
23.4589
24.5359
24.1742
25.3676
26.2066
24.8482
0.734935
9.87443
1.48501
10.0353
2.25103
10.2286
3.03389
10.4529
3.83415
10.7083
4.65203
10.9951
5.48749
11.3133
6.34017
11.6628
7.20947
12.0432
8.09449
12.4543
8.99405
12.8958
9.90668
13.3674
10.8306
13.8689
11.7639
14.4
12.704
14.9605
13.6485
15.5501
14.5944
16.1686
15.5384
16.8155
16.4768
17.4906
17.406
18.1933
18.3217
18.9228
19.2196
19.6784
20.0952
20.4587
20.9442
21.2624
21.762
22.0876
22.5443
22.932
23.2872
23.7931
23.9871
24.6677
25.5526
24.6411
0.720616
9.15381
1.45632
9.2996
2.20795
9.47696
2.97654
9.68427
3.76282
9.922
4.56713
10.1908
5.38958
10.4909
6.22996
10.8224
7.08782
11.1853
7.9624
11.5797
8.85266
12.0055
9.75726
12.4628
10.6746
12.9516
11.6027
13.4719
12.5393
14.0239
13.4817
14.6077
14.427
15.2233
15.3717
15.8708
16.3121
16.5502
17.2439
17.2614
18.1626
18.0041
19.0634
18.7776
19.9412
19.581
20.7906
20.413
21.6064
21.2718
22.3835
22.1549
23.1171
23.0595
23.8029
23.9818
24.9179
24.4376
0.704522
8.44929
1.42422
8.5799
2.15985
8.74133
2.91256
8.93157
3.68317
9.15138
4.47223
9.40173
5.27995
9.68316
6.10631
9.99602
6.95103
10.3406
7.81351
10.7172
8.69291
11.1261
9.58808
11.5676
10.4976
12.0421
11.4195
12.5499
12.3519
13.0916
13.292
13.6676
14.2368
14.2785
15.1829
14.9247
16.1264
15.6068
17.0627
16.3251
17.987
17.0798
18.8936
17.8709
19.7768
18.6979
20.6302
19.5596
21.4476
20.4544
22.2228
21.3798
22.9499
22.3324
23.6237
23.3081
24.3018
24.2398
0.686661
7.76263
1.38868
7.87788
2.10657
8.02344
2.84155
8.19659
3.59459
8.39834
4.36636
8.62996
5.15726
8.89226
5.96746
9.18582
6.79684
9.51122
7.64506
9.86899
8.51147
10.2597
9.39514
10.6839
10.2949
11.1424
11.209
11.6357
12.1357
12.1649
13.0725
12.7308
14.0165
13.3344
14.9644
13.9768
15.9122
14.659
16.855
15.3823
17.7875
16.1474
18.7035
16.9549
19.5962
17.8051
20.4584
18.6974
21.2823
19.6304
22.0604
20.6017
22.7851
21.6076
23.45
22.6432
23.7022
24.0496
0.667056
7.09558
1.34959
7.19535
2.04775
7.32527
2.76283
7.48151
3.49595
7.66523
4.24793
7.87799
5.01935
8.12083
5.81059
8.39459
6.62176
8.70004
7.45275
9.038
8.30317
9.40927
9.1724
9.81471
10.0595
10.2553
10.9632
10.732
11.882
11.2461
12.8137
11.7991
13.7559
12.3923
14.7052
13.0275
15.6577
13.7065
16.6085
14.4314
17.5519
15.204
18.4811
16.0258
19.3883
16.8979
20.2649
17.8208
21.1017
18.7937
21.889
19.8144
22.6175
20.8792
23.2785
21.9821
23.1156
23.8651
0.645715
6.44986
1.30671
6.53436
1.98277
6.64921
2.67533
6.78896
3.38564
6.95491
4.11471
7.14892
4.86333
7.37221
5.63208
7.62584
6.42132
7.9108
7.23122
8.22811
8.0617
8.57879
8.9125
8.96391
9.7831
9.38467
10.6727
9.84239
11.5802
10.3386
12.504
10.8753
13.442
11.4543
14.3912
12.0783
15.3479
12.7498
16.3073
13.472
17.2635
14.2478
18.2092
15.0801
19.1357
15.9714
20.033
16.9234
20.89
17.9367
21.6947
19.0098
22.4349
20.1389
23.0994
21.3177
22.5364
23.6786
0.622586
5.82727
1.25965
5.8973
1.91079
5.99806
2.57769
6.12206
3.26178
6.27082
3.96426
6.44644
4.68611
6.65036
5.42816
6.88378
6.19104
7.14792
6.97519
7.44395
7.78095
7.77303
8.60847
8.1364
9.45773
8.53541
10.3285
8.97162
11.2202
9.44693
12.1319
9.96355
13.0621
10.5242
14.0082
11.1321
14.9671
11.7909
15.9343
12.5048
16.9038
13.2782
17.8682
14.1157
18.818
15.0216
19.7419
15.9995
20.6267
17.0519
21.4575
18.179
22.2188
19.3776
22.8957
20.6408
21.9572
23.4749
0.597511
5.22976
1.20786
5.28695
1.83089
5.37503
2.46864
5.48432
3.12274
5.61671
3.79456
5.77462
4.48532
5.9596
5.19607
6.17304
5.92772
6.41627
6.68108
6.69059
7.45688
6.99723
8.25577
7.33751
9.0783
7.71288
9.92485
8.12508
10.7956
8.5762
11.6902
9.06892
12.6078
9.60665
13.5466
10.1933
14.504
10.8335
15.4763
11.5326
16.4579
12.2967
17.4412
13.1323
18.4166
14.0462
19.3714
15.0447
20.2904
16.1329
21.1559
17.3135
21.9481
18.5853
22.647
19.9418
21.3696
23.2346
0.570228
4.65954
1.15084
4.70633
1.74242
4.78346
2.34746
4.87928
2.96779
4.99638
3.60495
5.13746
4.26036
5.30419
4.93531
5.49808
5.63103
5.72055
6.34871
5.97292
7.08951
6.25643
7.85462
6.5724
8.64517
6.92232
9.46222
7.30803
10.3065
7.73187
11.1785
8.19697
12.0779
8.70725
13.004
9.2672
13.9551
9.88237
14.9281
10.5595
15.9184
11.3064
16.9187
12.1319
17.9195
13.0455
18.9074
14.0568
19.8654
15.1749
20.7725
16.4064
21.6045
17.7533
22.3351
19.2112
20.7653
22.9394
0.540472
4.11906
1.08837
4.15844
1.64539
4.22643
2.21456
4.31011
2.79782
4.41313
3.39685
4.53843
4.01328
4.68776
4.64865
4.8627
5.30451
5.0647
5.98241
5.29502
6.68402
5.55482
7.41103
5.8454
8.1651
6.16824
8.94782
6.52531
9.76049
6.91921
10.6042
7.35327
11.4798
7.83168
12.3874
8.35957
13.3263
8.94344
14.2945
9.59131
15.2883
10.3127
16.3016
11.1187
17.3251
12.022
18.3455
13.0364
19.3445
14.1759
20.2982
15.4527
21.1775
16.874
21.9483
18.4405
20.1368
22.5768
0.508156
3.61091
1.02081
3.64579
1.54089
3.70634
2.07186
3.77914
2.61566
3.86932
3.17412
3.97997
3.74905
4.11283
4.34224
4.26952
4.95553
4.4514
5.59089
4.65966
6.25037
4.89534
6.93607
5.1597
7.65002
5.45429
8.39429
5.78104
9.17087
6.14262
9.98164
6.5425
10.8282
6.98508
11.7117
7.47611
12.6323
8.02286
13.5891
8.63444
14.5799
9.3219
15.5999
10.0987
16.6411
10.9808
17.6908
11.9867
18.7303
13.1364
19.7331
14.4499
20.6651
15.942
21.4833
17.6223
19.4774
22.1427
0.473566
3.13734
0.949323
3.17003
1.43113
3.22454
1.92269
3.28758
2.42588
3.36613
2.94264
3.46322
3.47493
3.58055
4.02476
3.71969
4.59426
3.88189
5.18568
4.06824
5.8013
4.27972
6.44357
4.51743
7.11503
4.78283
7.8182
5.07787
8.5556
5.40522
9.32969
5.76841
10.1427
6.17205
10.9965
6.62229
11.8925
7.12694
12.831
7.69588
13.8114
8.34155
14.8305
9.0795
15.8824
9.92896
16.9558
10.9133
18.0327
12.0595
19.0847
13.3979
20.0737
14.953
20.9454
16.7506
18.7807
21.6421
0.437446
2.6999
0.875776
2.7317
1.31917
2.78114
1.77137
2.83538
2.2341
2.9034
2.70937
2.98795
3.19925
3.09066
3.70593
3.21301
4.23171
3.35612
4.779
3.52095
5.35041
3.70831
5.94868
3.91915
6.57669
4.15483
7.23726
4.4173
7.93329
4.70919
8.66765
5.03405
9.44312
5.39658
10.2623
5.80308
11.1277
6.26162
12.041
6.78259
13.003
7.37949
14.0129
8.0696
15.067
8.87488
16.1566
9.82373
17.2659
10.9502
18.3659
12.2978
19.4154
13.9035
20.3464
15.8196
18.0393
21.0878
0.400895
2.299
0.802406
2.33019
1.20839
2.37516
1.6224
2.42137
2.04597
2.47983
2.48114
2.55278
2.93003
2.64176
3.39491
2.74814
3.87816
2.87287
4.38245
3.01665
4.91058
3.18019
5.4654
3.36432
6.04993
3.57031
6.66723
3.8
7.32043
4.05598
8.01275
4.34173
8.74743
4.66189
9.5278
5.02271
10.3572
5.43226
11.2386
5.90114
12.1747
6.44342
13.1667
7.07759
14.2139
7.82769
15.3108
8.72677
16.4457
9.81533
17.5906
11.153
18.7047
12.7893
19.7022
14.8221
17.2424
20.4991
0.365126
1.93388
0.731395
1.96392
1.10187
2.00468
1.47975
2.0435
1.86632
2.09326
2.26365
2.15546
2.67382
2.23159
3.09915
2.32281
3.54214
2.42988
4.00548
2.55331
4.49202
2.69366
5.00466
2.85168
5.54646
3.02851
6.12058
3.22589
6.73031
3.44625
7.3791
3.69294
8.07059
3.9704
8.80868
4.28462
9.59748
4.64346
10.4413
5.05736
11.3443
5.54042
12.3101
6.11178
13.3412
6.79661
14.436
7.63197
15.5885
8.66275
16.7738
9.96775
17.9574
11.6057
19.0319
13.7476
16.3714
19.9029
0.331216
1.60266
0.664498
1.63064
1.002
1.66718
1.34635
1.69915
1.69865
1.74096
2.06092
1.79319
2.43523
1.85727
2.82389
1.93415
3.22938
2.02439
3.65435
2.12834
4.10157
2.24644
4.57393
2.37932
5.07441
2.52802
5.60619
2.69411
6.1726
2.87984
6.77725
3.08829
7.42407
3.32358
8.11741
3.59129
8.86208
3.89879
9.6634
4.25603
10.5272
4.67662
11.4594
5.17963
12.4657
5.79031
13.5489
6.54872
14.7111
7.50056
15.9322
8.74667
17.1924
10.3454
18.3603
12.5797
15.3928
19.3389
0.299926
1.30273
0.602846
1.32772
0.910225
1.3598
1.22391
1.38546
1.54492
1.41995
1.8752
1.46291
2.21677
1.51571
2.57185
1.57907
2.94284
1.65339
3.33229
1.73889
3.74283
1.83589
4.17722
1.94493
4.63834
2.06691
5.12925
2.2032
5.65329
2.35581
6.2141
2.52748
6.81578
2.7219
7.46301
2.94405
8.16119
3.20061
8.91655
3.50068
9.73633
3.85684
10.6286
4.28734
11.6026
4.81629
12.6662
5.48519
13.8305
6.33622
15.0843
7.49292
16.431
8.99866
17.7236
11.2872
14.2484
18.868
0.271644
1.03109
0.546934
1.05243
0.82714
1.0796
1.11306
1.09954
1.40576
1.12724
1.7071
1.16157
2.01899
1.20382
2.34356
1.2545
2.68307
1.31388
3.0399
1.38206
3.41651
1.45928
3.81547
1.54597
4.2395
1.64288
4.69152
1.75118
5.17474
1.87258
5.69279
2.00942
6.24984
2.16485
6.85076
2.34313
7.50136
2.55001
8.20859
2.79344
8.98095
3.08448
9.82863
3.43966
10.7642
3.88069
11.8012
4.44823
12.9599
5.17756
14.2447
6.2081
15.6858
7.55758
17.1648
9.80812
12.8518
18.5615
0.246446
0.784643
0.496751
0.802122
0.752634
0.823715
1.01351
0.838664
1.28074
0.860012
1.55599
0.886317
1.84108
0.918734
2.13799
0.957592
2.44883
1.00303
2.77579
1.0551
3.12113
1.11394
3.48721
1.17989
3.87653
1.25356
4.29182
1.33589
4.73616
1.42825
5.21306
1.53253
5.72665
1.65126
6.28189
1.78789
6.8848
1.94709
7.54286
2.13539
8.26547
2.36187
9.06463
2.6405
9.95587
2.98944
10.9588
3.4453
12.1013
4.03508
13.4125
4.89685
14.9437
6.02644
16.71
8.04174
11.1087
18.4531
0.224283
0.560361
0.451943
0.574461
0.686118
0.589539
0.924424
0.600359
1.16872
0.615718
1.42044
0.634594
1.68129
0.657885
1.95311
0.685775
2.23783
0.718315
2.53742
0.755505
2.85393
0.797432
3.18949
0.844336
3.54638
0.89667
3.92712
0.955144
4.33459
1.02078
4.77214
1.09498
5.24378
1.17963
5.75439
1.27729
6.31003
1.39145
6.9184
1.52701
7.58941
1.69087
8.33626
1.89365
9.1764
2.1493
10.1348
2.48686
11.2448
2.92512
12.5626
3.57907
14.1574
4.4316
16.266
5.93313
8.93927
18.4355
0.205087
0.355274
0.411899
0.367649
0.626704
0.374735
0.844596
0.382466
1.06818
0.392132
1.29861
0.404166
1.53747
0.419026
1.78644
0.436799
2.04728
0.457481
2.32174
0.481048
2.61163
0.507542
2.91884
0.537118
3.24544
0.570073
3.59371
0.606875
3.96629
0.648193
4.36633
0.694941
4.79761
0.748349
5.26481
0.810085
5.77383
0.882421
6.33229
0.968564
6.9501
1.07305
7.6409
1.20285
8.42287
1.36733
9.32387
1.58586
10.3795
1.86949
11.6626
2.296
13.2635
2.83071
15.5953
3.60131
6.36294
18.1716
0.188459
0.166815
0.375799
0.180309
0.573399
0.177135
0.772668
0.183197
0.977446
0.187354
1.18847
0.193138
1.40727
0.200233
1.63535
0.208717
1.87427
0.218563
2.12557
0.229746
2.39083
0.242281
2.67171
0.256241
2.97001
0.271771
3.28779
0.2891
3.62743
0.308552
3.9918
0.33057
4.3844
0.355746
4.80961
0.38488
5.27296
0.419071
5.78168
0.459844
6.34528
0.509439
6.97706
0.571071
7.69477
0.649628
8.52665
0.75398
9.5064
0.889748
10.7084
1.09395
12.2081
1.33107
14.47
1.33939
3.55587
17.2771
0.166815
0.347123
0.524258
0.707455
0.894809
1.08795
1.28818
1.4969
1.71546
1.94521
2.18749
2.44373
2.7155
3.0046
3.31315
3.64372
3.99947
4.38435
4.80342
5.26326
5.7727
6.34377
6.9934
7.74738
8.63713
9.73108
11.0621
12.4015
15.9574
1.21941
54.1321
1.22008
54.1396
1.23436
54.126
1.25547
54.1191
1.28349
54.1122
1.32066
54.1031
1.35385
54.107
1.3636
54.1305
1.34953
54.1543
1.34179
54.148
1.36186
54.1202
1.39129
54.1108
1.4113
54.1202
1.41728
54.1342
1.40949
54.148
1.38738
54.1623
1.36461
54.163
1.36456
54.1403
1.3846
54.1202
1.40113
54.1237
1.39085
54.1505
1.35981
54.1713
1.34779
54.1523
1.35932
54.1287
1.38716
54.1124
1.39135
54.136
1.38983
54.1418
1.3892
54.1409
1.38209
54.1473
1.35689
54.1654
1.32819
54.1689
1.33333
54.1351
1.3676
54.106
1.40425
54.1036
1.41296
54.1315
1.41794
54.1353
1.42237
54.1358
1.42637
54.1362
1.42996
54.1366
1.43318
54.137
1.43605
54.1374
1.4386
54.1377
1.44086
54.138
1.44285
54.1382
1.44455
54.1385
1.44593
54.1389
1.44696
54.1392
1.44722
54.14
1.45029
54.1372
1.45573
54.1348
1.45861
54.1373
1.45692
54.1419
1.45299
54.1442
1.4488
54.1444
1.44448
54.1446
1.4399
54.1448
1.43506
54.1451
1.42993
54.1454
1.42448
54.1457
1.4187
54.146
1.41256
54.1464
1.40601
54.1468
1.39902
54.1472
1.3916
54.1477
1.38376
54.1481
1.37543
54.1486
1.36666
54.149
1.35729
54.1496
1.3475
54.15
1.33739
54.1503
1.32674
54.1509
1.31554
54.1514
1.30388
54.1519
1.29178
54.1523
1.27972
54.1523
1.26675
54.1532
1.25557
54.1514
1.24306
54.1528
1.22666
54.1566
1.2076
54.1593
1.18906
54.1588
1.17336
54.1559
1.15279
54.1608
1.13779
54.1552
1.11647
54.1616
1.09545
54.1613
1.06494
54.1707
1.04243
54.1627
1.02896
54.1537
1.01894
54.1503
1.00277
54.1564
0.986086
54.1569
0.971957
54.1544
0.957283
54.1549
0.941329
54.1562
0.919049
54.1625
0.896356
54.1629
0.86998
54.1666
0.844283
54.1659
0.818515
54.166
0.793044
54.1657
0.767783
54.1655
0.742736
54.1653
0.717719
54.1653
0.692741
54.1652
0.667865
54.1651
0.643032
54.1651
0.618265
54.165
0.593435
54.1651
0.56863
54.165
0.543632
54.1652
0.51853
54.1653
0.493286
54.1655
0.467967
54.1656
0.442403
54.1658
0.416539
54.1661
0.390473
54.1663
0.364172
54.1665
0.337737
54.1667
0.311212
54.1668
0.284748
54.1667
0.258272
54.1667
0.231862
54.1666
0.205448