/*--------------------------------*- C++ -*----------------------------------*\
| =========                 |                                                 |
| \\      /  F ield         | OpenFOAM: The Open Source CFD Toolbox           |
|  \\    /   O peration     | Version:  5.x                                   |
|   \\  /    A nd           | Web:      www.OpenFOAM.org                      |
|    \\/     M anipulation  |                                                 |
\*---------------------------------------------------------------------------*/
/*   Windows 32 and 64 bit porting by blueCAPE: http://www.bluecape.com.pt   *\
|  Based on Windows porting (2.0.x v4) by Symscape: http://www.symscape.com   |
\*---------------------------------------------------------------------------*/
FoamFile
{
    version     2.0;
    format      ascii;
    class       volVectorField;
    location    "400";
    object      U;
}
// * * * * * * * * * * * * * * * * * * * * * * * * * * * * * * * * * * * * * //

dimensions      [0 1 -1 0 0 0 0];

internalField   nonuniform List<vector> 
43900
(
(1.16162 -0.000742019 -1.61211e-027)
(1.16713 0.00218543 -4.32012e-027)
(1.16972 0.000363468 1.43319e-030)
(1.16837 0.00183775 2.817e-030)
(1.16975 0.000801463 3.67112e-030)
(1.16991 0.00200259 3.67718e-030)
(1.17013 0.00119324 5.767e-027)
(1.17053 0.00189196 -1.1514e-026)
(1.17048 0.00165653 9.71042e-030)
(1.17017 0.00181815 -1.14856e-026)
(1.17014 0.00191227 1.15085e-026)
(1.16997 0.00196834 1.16194e-029)
(1.17004 0.00199216 -1.14494e-026)
(1.17017 0.00207592 2.51171e-029)
(1.16998 0.00213316 2.57496e-029)
(1.16992 0.00216597 2.64281e-029)
(1.1702 0.00222298 -2.27917e-026)
(1.17032 0.00225313 5.53172e-029)
(1.16997 0.00232476 2.28192e-026)
(1.16976 0.00232341 2.87579e-029)
(1.16987 0.00238659 2.92296e-029)
(1.16997 0.00243537 2.96104e-029)
(1.16977 0.00245501 3.00982e-029)
(1.16951 0.0025344 3.04964e-029)
(1.16973 0.00253707 3.08472e-029)
(1.17039 0.0025323 -2.25225e-026)
(1.17087 0.0025566 6.29889e-029)
(1.17061 0.0026074 6.35732e-029)
(1.16979 0.0026834 8.98961e-026)
(1.15867 0.0114632 0)
(1.16548 -0.00496999 0)
(1.17141 0.00907081 0)
(1.16654 -0.000159271 0)
(1.16839 0.00620209 0)
(1.16799 0.00278296 0)
(1.1683 0.00491409 0)
(1.16766 0.00470518 0)
(1.16815 0.00464802 0)
(1.16855 0.00542698 0)
(1.16866 0.00539695 0)
(1.1689 0.00561179 0)
(1.16876 0.00594339 0)
(1.16881 0.0061206 0)
(1.16912 0.00628533 0)
(1.16906 0.00650413 0)
(1.1689 0.0066075 0)
(1.16892 0.00684152 0)
(1.1692 0.00691816 0)
(1.16947 0.00711972 0)
(1.16935 0.0072332 0)
(1.16907 0.00726702 0)
(1.16915 0.00742898 0)
(1.16979 0.00745147 0)
(1.17031 0.00748942 0)
(1.16974 0.00769412 0)
(1.16838 0.00780054 0)
(1.16791 0.00787683 0)
(1.16886 0.00791949 0)
(1.10192 0.0321444 0)
(1.14462 -0.0175907 0)
(1.16298 0.0288178 0)
(1.16315 -0.00369827 0)
(1.16625 0.0208931 0)
(1.16419 0.00399018 0)
(1.16564 0.0150296 0)
(1.16629 0.00834438 0)
(1.1664 0.0118363 0)
(1.16636 0.0105201 0)
(1.16657 0.0107013 0)
(1.16665 0.0110237 0)
(1.16695 0.0109631 0)
(1.16696 0.0110312 0)
(1.16689 0.0111621 0)
(1.16739 0.01122 0)
(1.16757 0.0114178 0)
(1.16723 0.0114298 0)
(1.16728 0.0115721 0)
(1.16762 0.0116953 0)
(1.16774 0.0117517 0)
(1.16811 0.0119696 0)
(1.16851 0.0120374 0)
(1.16824 0.0121104 0)
(1.16709 0.0123937 0)
(1.16672 0.0124561 0)
(1.16778 0.0125008 0)
(1.16931 0.0126721 0)
(1.16951 0.0126437 1.58088e-027)
(1.04077 0.0199642 0)
(1.08662 -0.0066955 0)
(1.1295 0.0200995 0)
(1.15549 0.00821696 0)
(1.1632 0.0222854 0)
(1.16587 0.010744 0)
(1.16471 0.0206311 0)
(1.16354 0.0136685 0)
(1.16459 0.0181917 0)
(1.16479 0.0157877 0)
(1.16496 0.0169114 0)
(1.16533 0.0166355 0)
(1.16534 0.0166641 0)
(1.16552 0.016721 0)
(1.16582 0.0167402 0)
(1.16567 0.0168293 0)
(1.16581 0.016822 0)
(1.16624 0.0169996 0)
(1.16633 0.0170136 0)
(1.16596 0.0170969 0)
(1.16619 0.0172245 0)
(1.16657 0.0173155 0)
(1.16622 0.0174391 0)
(1.16602 0.0176806 0)
(1.16676 0.0177498 0)
(1.16748 0.0178026 0)
(1.16732 0.0179315 0)
(1.16635 0.018018 0)
(1.16615 0.018208 1.68673e-027)
(1.00331 0.0102117 3.3804e-027)
(1.03882 -0.000891029 0)
(1.07568 0.0108549 0)
(1.11397 0.0129433 0)
(1.14433 0.0183744 0)
(1.15993 0.0174184 0)
(1.16328 0.0229295 0)
(1.16436 0.0186611 0)
(1.16338 0.0218012 0)
(1.1636 0.0204853 0)
(1.16373 0.0209656 0)
(1.16372 0.0213076 0)
(1.16404 0.0212886 0)
(1.16391 0.0214089 0)
(1.16399 0.0215469 0)
(1.16438 0.0216619 0)
(1.16414 0.021898 0)
(1.16392 0.0218847 0)
(1.16423 0.0221014 0)
(1.1649 0.0222645 0)
(1.16477 0.0222971 0)
(1.16411 0.0224864 0)
(1.16432 0.0226174 0)
(1.16493 0.0226693 0)
(1.16486 0.0227579 0)
(1.16466 0.0229409 0)
(1.16508 0.0231243 0)
(1.16574 0.023233 0)
(1.16559 0.0234489 -7.09803e-027)
(0.975953 0.00683531 -3.52774e-027)
(1.00581 0.000690794 0)
(1.03702 0.00761064 0)
(1.06941 0.0110678 0)
(1.10185 0.0149475 0)
(1.13216 0.0182586 0)
(1.15259 0.0222171 0)
(1.16094 0.0223519 0)
(1.16217 0.0246341 0)
(1.16179 0.0230808 0)
(1.16181 0.0244628 0)
(1.16207 0.0243353 0)
(1.16186 0.0245961 0)
(1.16215 0.0248739 0)
(1.16224 0.0251461 0)
(1.16193 0.0253938 0)
(1.1622 0.0255112 0)
(1.16219 0.0259554 0)
(1.16212 0.026001 0)
(1.16202 0.0262631 0)
(1.16212 0.0266125 0)
(1.16271 0.026767 0)
(1.16261 0.0269404 0)
(1.16246 0.0272019 0)
(1.1628 0.0273982 0)
(1.16293 0.0277226 0)
(1.16237 0.0278205 0)
(1.16188 0.0281393 0)
(1.16218 0.0283287 3.75788e-027)
(0.952697 0.00529819 0)
(0.979027 0.00143139 0)
(1.00661 0.00646876 0)
(1.03527 0.00970007 0)
(1.06441 0.0130397 0)
(1.09334 0.0166791 0)
(1.1214 0.0204532 0)
(1.14475 0.0233579 0)
(1.15633 0.0260522 0)
(1.15946 0.0266233 0)
(1.15928 0.0265637 0)
(1.15905 0.0275001 0)
(1.15949 0.0277099 0)
(1.15923 0.0280451 0)
(1.15944 0.0285221 0)
(1.15979 0.028944 0)
(1.15934 0.0293826 0)
(1.15963 0.0295727 0)
(1.15975 0.0301014 0)
(1.15957 0.0305445 0)
(1.15977 0.0306533 0)
(1.15979 0.0312282 0)
(1.16033 0.0315291 0)
(1.16041 0.0319943 0)
(1.15982 0.0322678 0)
(1.15975 0.0326061 0)
(1.16027 0.0330337 0)
(1.16108 0.0333804 0)
(1.16095 0.0336212 0)
(0.931521 0.00444136 0)
(0.955462 0.00192295 0)
(0.980562 0.00604719 0)
(1.00665 0.00911925 0)
(1.03335 0.0121846 0)
(1.06023 0.0155002 0)
(1.08679 0.0190674 0)
(1.11227 0.0226577 0)
(1.13552 0.0260004 0)
(1.15028 0.0284209 0)
(1.15537 0.0302272 0)
(1.15545 0.0299865 0)
(1.1551 0.0308831 0)
(1.1556 0.0312623 0)
(1.15553 0.0318261 0)
(1.15532 0.0323367 0)
(1.15591 0.0327005 0)
(1.15577 0.0334234 0)
(1.15578 0.0337178 0)
(1.15638 0.0341819 0)
(1.15603 0.0348507 0)
(1.15613 0.0351467 0)
(1.15582 0.0355957 0)
(1.15618 0.0362262 0)
(1.15688 0.0365379 0)
(1.15677 0.0372527 0)
(1.15659 0.0373354 0)
(1.15668 0.0378915 0)
(1.15736 0.0382695 0)
(0.911401 0.00385907 0)
(0.933612 0.00233852 0)
(0.956895 0.00595673 0)
(0.981099 0.00896108 0)
(1.00594 0.0119229 0)
(1.03111 0.0150568 0)
(1.05625 0.0183977 0)
(1.08094 0.0218923 0)
(1.10465 0.0254462 0)
(1.12669 0.0287424 0)
(1.14346 0.0315729 0)
(1.15014 0.0336555 0)
(1.15063 0.0337019 0)
(1.15021 0.0345296 0)
(1.15056 0.0351395 0)
(1.15096 0.0359461 0)
(1.15046 0.0363868 0)
(1.15101 0.0368769 0)
(1.15159 0.0376311 0)
(1.15111 0.0383824 0)
(1.15166 0.0385819 0)
(1.15158 0.0395608 0)
(1.1518 0.039921 0)
(1.15138 0.0403707 0)
(1.15161 0.0410977 0)
(1.15265 0.0414505 0)
(1.1532 0.042163 0)
(1.15307 0.042799 0)
(1.15239 0.0431235 0)
(0.891939 0.00340659 0)
(0.912808 0.00273267 0)
(0.934687 0.00606819 0)
(0.957435 0.00906781 0)
(0.980822 0.0120146 0)
(1.0046 0.0150876 0)
(1.0285 0.01833 0)
(1.05223 0.0217156 0)
(1.07545 0.0252091 0)
(1.09774 0.0287433 0)
(1.11846 0.0321114 0)
(1.13615 0.0350968 0)
(1.14412 0.0376024 0)
(1.14499 0.0379229 0)
(1.14463 0.0388443 0)
(1.14476 0.0395877 0)
(1.14561 0.0405054 0)
(1.14515 0.0410791 0)
(1.14524 0.0418666 0)
(1.14626 0.0425214 0)
(1.14602 0.0435943 0)
(1.1466 0.0439139 0)
(1.14675 0.0449313 0)
(1.14745 0.0455993 0)
(1.14754 0.0459697 0)
(1.14688 0.0470421 0)
(1.14734 0.0474123 0)
(1.14837 0.0481731 0)
(1.1489 0.0489757 -9.93653e-027)
(0.872662 0.0032208 0)
(0.892456 0.0030573 0)
(0.913238 0.00633249 0)
(0.934849 0.00939449 0)
(0.957096 0.0123971 0)
(0.979763 0.0154981 0)
(1.00263 0.0187434 0)
(1.02546 0.0221153 0)
(1.04801 0.025589 0)
(1.06998 0.0291391 0)
(1.09097 0.0327134 0)
(1.11039 0.0361528 0)
(1.12793 0.0392808 0)
(1.13737 0.0420994 0)
(1.1384 0.0425784 0)
(1.13843 0.0438084 0)
(1.1382 0.0446132 0)
(1.13917 0.0453919 0)
(1.13915 0.0463977 0)
(1.1389 0.0474175 0)
(1.13981 0.0479332 0)
(1.13978 0.0493139 0)
(1.14038 0.0498215 0)
(1.14095 0.0507428 0)
(1.14124 0.0520356 0)
(1.14203 0.0524629 0)
(1.14185 0.0531941 0)
(1.14152 0.0544549 0)
(1.14236 0.0545208 1.04724e-026)
(0.85343 0.00318401 0)
(0.872288 0.00336985 0)
(0.892115 0.0067017 0)
(0.912764 0.00988473 0)
(0.934058 0.0130036 0)
(0.955806 0.0162043 0)
(0.977815 0.0195332 0)
(0.999883 0.0229763 0)
(1.02181 0.0265124 0)
(1.04336 0.0301214 0)
(1.0643 0.0337774 0)
(1.08429 0.037429 0)
(1.10288 0.0409486 0)
(1.11979 0.0442246 0)
(1.12997 0.0471417 0)
(1.13089 0.0481114 0)
(1.13167 0.0494784 0)
(1.13101 0.050318 0)
(1.132 0.0511585 0)
(1.13263 0.0525393 0)
(1.13206 0.0536491 0)
(1.13284 0.0540612 0)
(1.13325 0.0558075 0)
(1.13348 0.0563585 0)
(1.13419 0.0572021 0)
(1.13462 0.0587762 0)
(1.13582 0.0591757 0)
(1.13632 0.0602079 0)
(1.13578 0.0615199 1.15188e-026)
(0.833984 0.00311246 0)
(0.852035 0.00373106 0)
(0.871037 0.00715378 0)
(0.890856 0.0104925 0)
(0.911326 0.0137729 0)
(0.93228 0.0171256 0)
(0.953543 0.0205959 0)
(0.97494 0.0241728 0)
(0.996294 0.0278382 0)
(1.01742 0.0315753 0)
(1.03814 0.0353652 0)
(1.05821 0.0391817 0)
(1.07737 0.0429769 0)
(1.09522 0.0466445 0)
(1.11152 0.050079 0)
(1.12194 0.053166 0)
(1.12268 0.0545198 0)
(1.12399 0.0559028 0)
(1.12319 0.0569474 0)
(1.12428 0.0580282 0)
(1.12534 0.0594053 0)
(1.12485 0.060869 0)
(1.12574 0.0612897 0)
(1.12633 0.0630755 0)
(1.12711 0.0641276 0)
(1.12755 0.064845 0)
(1.12765 0.0662132 0)
(1.12907 0.0674821 0)
(1.13056 0.0678579 -1.21587e-026)
(0.81429 0.00310003 0)
(0.831596 0.00410658 0)
(0.849843 0.00767088 0)
(0.868913 0.0111972 0)
(0.888651 0.0146724 0)
(0.908895 0.0182139 0)
(0.929492 0.021866 0)
(0.950283 0.0256196 0)
(0.971109 0.0294587 0)
(0.991813 0.0333692 0)
(1.01224 0.0373354 0)
(1.03221 0.0413383 0)
(1.05153 0.0453521 0)
(1.06995 0.0493306 0)
(1.08713 0.0531605 0)
(1.1029 0.0567989 0)
(1.11344 0.0600797 0)
(1.11365 0.0616883 0)
(1.11545 0.0629504 0)
(1.11491 0.0644218 0)
(1.11621 0.0657903 0)
(1.11719 0.0670441 0)
(1.11707 0.0689154 0)
(1.11827 0.0693523 0)
(1.11863 0.0710405 0)
(1.12035 0.0727685 0)
(1.12099 0.0733502 0)
(1.12049 0.0748 0)
(1.12198 0.0763134 -1.34095e-026)
(0.794278 0.00313938 0)
(0.810901 0.00450132 0)
(0.828456 0.0082562 0)
(0.846833 0.0120019 0)
(0.865904 0.0157047 0)
(0.885511 0.0194713 0)
(0.905502 0.023343 0)
(0.925738 0.0273136 0)
(0.946076 0.0313682 0)
(0.966375 0.0354943 0)
(0.986495 0.0396787 0)
(1.00629 0.0439053 0)
(1.02561 0.0481544 0)
(1.04428 0.0524005 0)
(1.06205 0.0565967 0)
(1.07862 0.0606146 0)
(1.09404 0.0644788 0)
(1.10439 0.0680473 0)
(1.10437 0.0697759 0)
(1.10614 0.0708428 0)
(1.10637 0.073195 0)
(1.10793 0.0744675 0)
(1.10866 0.0756907 0)
(1.10943 0.0780127 0)
(1.11048 0.0786806 0)
(1.11051 0.0802823 0)
(1.11255 0.0822367 0)
(1.11449 0.0831761 0)
(1.11389 0.0842819 1.41319e-026)
(0.773867 0.00322531 0)
(0.789847 0.00491893 0)
(0.806758 0.00890801 0)
(0.824491 0.0129071 0)
(0.842928 0.0168673 0)
(0.86194 0.020893 0)
(0.881375 0.0250228 0)
(0.901092 0.0292487 0)
(0.920966 0.0335584 0)
(0.940868 0.0379405 0)
(0.960673 0.0423835 0)
(0.980258 0.0468735 0)
(0.999493 0.0513937 0)
(1.01824 0.0559239 0)
(1.03633 0.0604376 0)
(1.05357 0.0648836 0)
(1.06968 0.0691329 0)
(1.08477 0.0732774 0)
(1.09496 0.0770623 0)
(1.09474 0.0788013 0)
(1.09682 0.0802589 0)
(1.09718 0.0827063 0)
(1.09913 0.0841376 0)
(1.09967 0.0855577 0)
(1.10136 0.0879226 0)
(1.10276 0.0891935 0)
(1.1023 0.0906317 0)
(1.10386 0.0927881 0)
(1.10697 0.0938828 0)
(0.753045 0.0033465 0)
(0.768409 0.00535463 0)
(0.784708 0.00960968 0)
(0.801838 0.0138894 0)
(0.819679 0.0181321 0)
(0.838117 0.0224401 0)
(0.857025 0.0268545 0)
(0.87626 0.0313659 0)
(0.895697 0.0359601 0)
(0.915219 0.0406273 0)
(0.93471 0.0453561 0)
(0.954061 0.0501341 0)
(0.973162 0.0549461 0)
(0.991897 0.0597746 0)
(1.01014 0.0645987 0)
(1.02775 0.0693903 0)
(1.04455 0.0740902 0)
(1.06032 0.0785833 0)
(1.07522 0.0830232 0)
(1.08473 0.0869268 0)
(1.08479 0.0887821 0)
(1.08719 0.0905567 0)
(1.08767 0.0930383 0)
(1.08974 0.0946959 0)
(1.09016 0.0963696 0)
(1.09247 0.0987348 0)
(1.09482 0.100464 0)
(1.09428 0.10194 0)
(1.09603 0.103837 0)
(0.731816 0.00350108 0)
(0.746586 0.00581294 0)
(0.762295 0.0103643 0)
(0.778846 0.0149509 0)
(0.796127 0.0195033 0)
(0.814019 0.0241204 0)
(0.83241 0.0288443 0)
(0.851178 0.0336684 0)
(0.870198 0.0385778 0)
(0.88936 0.0435619 0)
(0.908555 0.0486104 0)
(0.927681 0.0537109 0)
(0.946638 0.0588497 0)
(0.96533 0.0640105 0)
(0.983652 0.0691751 0)
(1.00149 0.0743221 0)
(1.01873 0.0794211 0)
(1.03521 0.0844109 0)
(1.05082 0.0892065 0)
(1.06559 0.0939236 0)
(1.07447 0.0980861 0)
(1.07508 0.0999808 0)
(1.07758 0.102088 0)
(1.07845 0.104758 0)
(1.08069 0.106641 0)
(1.08113 0.108342 0)
(1.08365 0.110981 0)
(1.08667 0.113016 0)
(1.08686 0.114406 0)
(0.710183 0.00368342 4.06929e-026)
(0.724372 0.0062915 0)
(0.739508 0.011165 0)
(0.755498 0.0160818 0)
(0.772237 0.0209668 0)
(0.789612 0.0259188 0)
(0.807512 0.0309796 0)
(0.825825 0.0361432 0)
(0.844435 0.0413951 0)
(0.86323 0.0467236 0)
(0.882118 0.0521203 0)
(0.901 0.0575732 0)
(0.919788 0.0630695 0)
(0.938393 0.0685945 0)
(0.956727 0.0741318 0)
(0.974697 0.0796626 0)
(0.992205 0.0851655 0)
(1.00914 0.0906091 0)
(1.0254 0.0959331 0)
(1.04093 0.101055 0)
(1.0556 0.106158 0)
(1.06392 0.110388 0)
(1.06541 0.112558 0)
(1.06712 0.114759 0)
(1.06919 0.117466 0)
(1.07182 0.11967 0)
(1.07228 0.121137 0)
(1.07483 0.123949 0)
(1.07816 0.126055 0)
(0.688184 0.00388817 1.3123e-027)
(0.701804 0.00678566 0)
(0.716377 0.0120012 0)
(0.731816 0.0172662 0)
(0.74802 0.0225004 0)
(0.764885 0.027805 0)
(0.782302 0.0332209 0)
(0.800169 0.0387428 0)
(0.818382 0.0443577 0)
(0.836831 0.0500526 0)
(0.855419 0.0558167 0)
(0.874058 0.06164 0)
(0.892663 0.0675097 0)
(0.911156 0.073412 0)
(0.929457 0.0793314 0)
(0.947488 0.0852505 0)
(0.965167 0.0911502 0)
(0.982407 0.097008 0)
(0.999119 0.102791 0)
(1.01523 0.108434 0)
(1.03076 0.113897 0)
(1.04533 0.11929 0)
(1.05348 0.123678 0)
(1.05534 0.125905 0)
(1.0573 0.128394 0)
(1.0594 0.131299 0)
(1.06322 0.133629 0)
(1.06389 0.13564 0)
(1.06696 0.138344 0)
(0.66587 0.00411554 -4.69403e-026)
(0.678928 0.00729797 0)
(0.692948 0.0128758 0)
(0.707848 0.0185075 0)
(0.723532 0.0241087 0)
(0.739902 0.0297836 0)
(0.756854 0.035575 0)
(0.774285 0.0414752 0)
(0.792098 0.0474715 0)
(0.810197 0.0535526 0)
(0.828485 0.0597071 0)
(0.84688 0.065924 0)
(0.865301 0.0721906 0)
(0.883673 0.0784935 0)
(0.901925 0.084818 0)
(0.919987 0.0911479 0)
(0.937789 0.0974653 0)
(0.955258 0.103751 0)
(0.972321 0.109983 0)
(0.988906 0.116128 0)
(1.00497 0.122127 0)
(1.02058 0.127954 0)
(1.03549 0.133791 0)
(1.04353 0.138066 0)
(1.0458 0.140951 0)
(1.04808 0.143398 0)
(1.05104 0.14632 0)
(1.05446 0.148972 0)
(1.05646 0.15106 0)
(0.643279 0.00436275 0)
(0.655782 0.00782725 0)
(0.669255 0.0137863 0)
(0.683621 0.0198024 0)
(0.698789 0.0257878 0)
(0.714666 0.0318513 0)
(0.731154 0.0380369 0)
(0.748156 0.0443364 0)
(0.765578 0.0507366 0)
(0.783332 0.0572268 0)
(0.801326 0.0637953 0)
(0.819475 0.0704299 0)
(0.837705 0.0771193 0)
(0.855945 0.0838497 0)
(0.874129 0.090607 0)
(0.892191 0.0973758 0)
(0.910069 0.10414 0)
(0.927702 0.11088 0)
(0.945026 0.117579 0)
(0.961977 0.124215 0)
(0.978503 0.130756 0)
(0.9946 0.137138 0)
(1.01055 0.143396 0)
(1.0257 0.149609 0)
(1.03383 0.153893 0)
(1.03679 0.157119 0)
(1.03939 0.159582 0)
(1.04309 0.162399 0)
(1.04564 0.165406 0)
(0.62046 0.0046298 -5.72423e-026)
(0.632414 0.00837423 0)
(0.645346 0.0147327 0)
(0.659183 0.0211499 0)
(0.673842 0.0275357 0)
(0.689233 0.034004 0)
(0.705264 0.0406006 0)
(0.721843 0.0473173 0)
(0.738876 0.0541391 0)
(0.756278 0.0610548 0)
(0.773966 0.0680539 0)
(0.79186 0.0751244 0)
(0.809887 0.0822538 0)
(0.827981 0.0894287 0)
(0.846076 0.0966349 0)
(0.864112 0.103858 0)
(0.882033 0.111081 0)
(0.89978 0.118287 0)
(0.917299 0.125459 0)
(0.934534 0.132576 0)
(0.951434 0.139618 0)
(0.96797 0.146553 0)
(0.9842 0.153314 0)
(1.00043 0.160073 0)
(1.01646 0.166471 0)
(1.02477 0.171185 0)
(1.02724 0.174368 0)
(1.03161 0.176898 0)
(1.03497 0.18053 5.41865e-026)
(0.597462 0.00491399 -1.59582e-027)
(0.608872 0.00893702 0)
(0.621268 0.0157117 0)
(0.634581 0.0225456 0)
(0.648734 0.0293466 0)
(0.663642 0.0362351 0)
(0.679216 0.0432589 0)
(0.69537 0.0504093 0)
(0.712016 0.0576704 0)
(0.729073 0.0650313 0)
(0.746462 0.0724813 0)
(0.764105 0.0800071 0)
(0.781929 0.087595 0)
(0.79987 0.0952322 0)
(0.817866 0.102904 0)
(0.835862 0.110595 0)
(0.853803 0.11829 0)
(0.871636 0.125973 0)
(0.889312 0.133625 0)
(0.90678 0.141229 0)
(0.923995 0.148764 0)
(0.940919 0.156212 0)
(0.957548 0.163548 0)
(0.973919 0.170722 0)
(0.990795 0.177847 0)
(1.00754 0.18493 0)
(1.01615 0.189706 0)
(1.01848 0.192701 0)
(1.02392 0.196214 1.05931e-027)
(0.574335 0.00521734 6.58875e-026)
(0.585204 0.0095195 0)
(0.597069 0.0167294 0)
(0.609863 0.0239974 0)
(0.623514 0.0312305 0)
(0.637941 0.0385566 0)
(0.653063 0.0460252 0)
(0.668796 0.053627 0)
(0.685056 0.0613458 0)
(0.701766 0.0691691 0)
(0.718848 0.0770857 0)
(0.736232 0.0850828 0)
(0.753847 0.0931466 0)
(0.771633 0.101264 0)
(0.789528 0.109419 0)
(0.807479 0.117596 0)
(0.825431 0.125779 0)
(0.843336 0.133952 0)
(0.861146 0.142097 0)
(0.878816 0.150197 0)
(0.896302 0.158232 0)
(0.913568 0.166183 0)
(0.930589 0.174035 0)
(0.947372 0.181775 0)
(0.963986 0.189322 0)
(0.981282 0.196925 0)
(0.999343 0.204602 0)
(1.00771 0.209308 0)
(1.01095 0.212568 -6.1921e-026)
(0.551116 0.0055382 0)
(0.561451 0.010121 0)
(0.572789 0.0177847 0)
(0.585068 0.0255036 0)
(0.59822 0.033185 0)
(0.612171 0.0409652 0)
(0.626843 0.0488957 0)
(0.642157 0.0569665 0)
(0.658036 0.0651609 0)
(0.674403 0.0734653 0)
(0.691184 0.0818676 0)
(0.708312 0.0903554 0)
(0.72572 0.0989141 0)
(0.743346 0.107528 0)
(0.761134 0.116182 0)
(0.779031 0.124861 0)
(0.796987 0.133546 0)
(0.814953 0.142222 0)
(0.832884 0.150871 0)
(0.850737 0.159474 0)
(0.868469 0.168012 0)
(0.886046 0.176466 0)
(0.903435 0.184818 0)
(0.920624 0.193056 0)
(0.937623 0.201171 0)
(0.954456 0.209058 0)
(0.97237 0.217165 0)
(0.991504 0.225321 0)
(1.00044 0.23003 0)
(0.527851 0.00587654 0)
(0.537656 0.0107432 0)
(0.548472 0.0188799 0)
(0.560241 0.0270673 0)
(0.572898 0.0352141 0)
(0.586375 0.043466 0)
(0.600599 0.0518767 0)
(0.615496 0.0604356 0)
(0.630992 0.0691248 0)
(0.647015 0.0779306 0)
(0.663496 0.0868409 0)
(0.68037 0.0958417 0)
(0.697573 0.104917 0)
(0.715044 0.11405 0)
(0.732729 0.123224 0)
(0.750575 0.132423 0)
(0.768535 0.141629 0)
(0.786561 0.150823 0)
(0.80461 0.159988 0)
(0.822639 0.169105 0)
(0.840609 0.178154 0)
(0.858483 0.187116 0)
(0.876229 0.195971 0)
(0.893823 0.204704 0)
(0.911254 0.213305 0)
(0.928524 0.221754 0)
(0.945648 0.229986 0)
(0.96428 0.23858 0)
(0.984698 0.24707 7.26205e-026)
(0.504575 0.00623273 0)
(0.513856 0.0113886 0)
(0.524155 0.0200194 0)
(0.535418 0.0286944 0)
(0.547584 0.0373258 0)
(0.560589 0.0460692 0)
(0.574367 0.0549809 0)
(0.588848 0.0640491 0)
(0.603964 0.0732551 0)
(0.619645 0.0825846 0)
(0.635826 0.0920238 0)
(0.652445 0.101558 0)
(0.669442 0.111171 0)
(0.686759 0.120844 0)
(0.704343 0.130562 0)
(0.722144 0.140304 0)
(0.740113 0.150051 0)
(0.758205 0.159785 0)
(0.776376 0.169485 0)
(0.794586 0.179131 0)
(0.812795 0.188704 0)
(0.830967 0.198183 0)
(0.849066 0.207548 0)
(0.867066 0.216781 0)
(0.884945 0.225865 0)
(0.902691 0.234788 0)
(0.920301 0.243548 0)
(0.937793 0.251997 0)
(0.957777 0.261338 9.16372e-028)
(0.48132 0.00660557 0)
(0.490084 0.0120578 0)
(0.499872 0.0212037 0)
(0.510632 0.0303853 0)
(0.522309 0.03952 0)
(0.534845 0.0487749 0)
(0.548178 0.0582082 0)
(0.562245 0.0678071 0)
(0.57698 0.0775523 0)
(0.592321 0.0874287 0)
(0.608204 0.0974213 0)
(0.624571 0.107514 0)
(0.641366 0.117691 0)
(0.658532 0.127931 0)
(0.676019 0.138217 0)
(0.693777 0.148527 0)
(0.711761 0.158841 0)
(0.729925 0.169138 0)
(0.748227 0.179395 0)
(0.766626 0.189592 0)
(0.785084 0.199706 0)
(0.803561 0.209715 0)
(0.822024 0.219599 0)
(0.84044 0.229335 0)
(0.858783 0.238906 0)
(0.877031 0.248294 0)
(0.89517 0.257497 0)
(0.913199 0.266412 0)
(0.931351 0.27537 -1.63905e-025)
(0.458121 0.00699364 0)
(0.466375 0.012751 0)
(0.475657 0.0224328 0)
(0.485919 0.0321396 0)
(0.49711 0.0417965 0)
(0.509178 0.0515828 0)
(0.522066 0.061559 0)
(0.535717 0.0717112 0)
(0.550072 0.0820193 0)
(0.56507 0.0924677 0)
(0.580655 0.103041 0)
(0.59677 0.113721 0)
(0.613362 0.124491 0)
(0.630379 0.135329 0)
(0.647772 0.146214 0)
(0.665493 0.157123 0)
(0.683499 0.168034 0)
(0.701745 0.178922 0)
(0.72019 0.189765 0)
(0.738794 0.200537 0)
(0.757516 0.211214 0)
(0.77632 0.221772 0)
(0.795167 0.232186 0)
(0.814023 0.242435 0)
(0.832858 0.252494 0)
(0.851643 0.262345 0)
(0.870356 0.271973 0)
(0.888979 0.281354 0)
(0.907477 0.290385 -6.18007e-028)
(0.435013 0.00739508 0)
(0.442764 0.0134682 0)
(0.451547 0.0237062 0)
(0.461314 0.0339563 0)
(0.47202 0.0441544 0)
(0.483619 0.0544925 0)
(0.496061 0.0650335 0)
(0.509294 0.0757626 0)
(0.523263 0.0866591 0)
(0.537915 0.0977067 0)
(0.553196 0.108889 0)
(0.569055 0.120189 0)
(0.585443 0.131585 0)
(0.602311 0.143054 0)
(0.619613 0.154573 0)
(0.637304 0.166117 0)
(0.65534 0.17766 0)
(0.67368 0.189176 0)
(0.692284 0.200638 0)
(0.71111 0.212019 0)
(0.730119 0.223289 0)
(0.749274 0.234423 0)
(0.768535 0.245393 0)
(0.787867 0.256171 0)
(0.807234 0.266733 0)
(0.826603 0.277054 0)
(0.845945 0.287114 0)
(0.865231 0.296898 0)
(0.884423 0.30634 9.20343e-026)
(0.412029 0.00780743 0)
(0.419287 0.0142085 0)
(0.427576 0.0250218 0)
(0.436851 0.0358322 0)
(0.447073 0.0465894 0)
(0.458201 0.0574995 0)
(0.470193 0.0686275 0)
(0.483002 0.0799576 0)
(0.49658 0.0914688 0)
(0.510878 0.103144 0)
(0.525848 0.114967 0)
(0.541445 0.126917 0)
(0.557623 0.138972 0)
(0.574339 0.151109 0)
(0.591548 0.1633 0)
(0.60921 0.175519 0)
(0.627283 0.187737 0)
(0.645727 0.199924 0)
(0.664503 0.212049 0)
(0.683571 0.22408 0)
(0.702893 0.235986 0)
(0.722429 0.247734 0)
(0.74214 0.259293 0)
(0.761988 0.270632 0)
(0.781933 0.28172 0)
(0.801939 0.292531 0)
(0.821969 0.303039 0)
(0.841988 0.313222 0)
(0.861954 0.323052 9.76562e-026)
(0.389207 0.00822731 0)
(0.395982 0.0149694 0)
(0.403783 0.0263748 0)
(0.412569 0.0377601 0)
(0.422304 0.0490928 0)
(0.432957 0.0605933 0)
(0.444492 0.0723288 0)
(0.456869 0.0842826 0)
(0.470046 0.0964335 0)
(0.48398 0.108765 0)
(0.49863 0.121258 0)
(0.513955 0.133893 0)
(0.529915 0.146646 0)
(0.546471 0.15949 0)
(0.563582 0.172398 0)
(0.581211 0.185338 0)
(0.599322 0.198279 0)
(0.617875 0.211186 0)
(0.636835 0.224024 0)
(0.656164 0.236757 0)
(0.675822 0.249348 0)
(0.69577 0.261758 0)
(0.715969 0.273952 0)
(0.736377 0.285893 0)
(0.756953 0.297544 0)
(0.777654 0.308874 0)
(0.798439 0.31985 0)
(0.819262 0.330447 0)
(0.84008 0.34064 -1.02989e-025)
(0.366587 0.00865106 0)
(0.372889 0.0157475 0)
(0.38021 0.0277595 0)
(0.388506 0.0397317 0)
(0.397753 0.0516538 0)
(0.407926 0.0637616 0)
(0.418995 0.0761235 0)
(0.430928 0.0887227 0)
(0.44369 0.101538 0)
(0.457246 0.114553 0)
(0.47156 0.127749 0)
(0.486598 0.141105 0)
(0.502324 0.154594 0)
(0.518705 0.168191 0)
(0.535707 0.181862 0)
(0.553297 0.195575 0)
(0.571441 0.209292 0)
(0.590107 0.222976 0)
(0.609258 0.236585 0)
(0.628861 0.250079 0)
(0.648877 0.263414 0)
(0.669269 0.276545 0)
(0.689994 0.289429 0)
(0.711011 0.302022 0)
(0.732273 0.314282 0)
(0.753735 0.326169 0)
(0.775346 0.337645 0)
(0.797057 0.348676 0)
(0.818812 0.359235 1.08161e-025)
(0.344214 0.00907505 0)
(0.350053 0.0165387 0)
(0.356898 0.0291689 0)
(0.364707 0.0417373 0)
(0.373461 0.054261 0)
(0.383145 0.066991 0)
(0.393737 0.0799972 0)
(0.405213 0.0932624 0)
(0.417544 0.106766 0)
(0.430702 0.120493 0)
(0.44466 0.134423 0)
(0.459388 0.148536 0)
(0.47486 0.162804 0)
(0.491047 0.177198 0)
(0.507922 0.191682 0)
(0.525458 0.206221 0)
(0.543627 0.220774 0)
(0.562399 0.235296 0)
(0.581745 0.249743 0)
(0.601632 0.264066 0)
(0.622025 0.278213 0)
(0.642887 0.292133 0)
(0.664178 0.305774 0)
(0.685852 0.319083 0)
(0.707862 0.332008 0)
(0.730155 0.3445 0)
(0.752675 0.356514 0)
(0.775362 0.368007 0)
(0.798155 0.378944 -2.27478e-025)
(0.322135 0.00949608 0)
(0.32752 0.0173378 0)
(0.333894 0.030595 0)
(0.341213 0.0437663 0)
(0.349469 0.0569014 0)
(0.358654 0.0702667 0)
(0.368756 0.0839332 0)
(0.379757 0.0978836 0)
(0.391637 0.112099 0)
(0.404375 0.126564 0)
(0.417951 0.14126 0)
(0.432344 0.156165 0)
(0.447534 0.171252 0)
(0.463502 0.186489 0)
(0.480226 0.201838 0)
(0.497686 0.21726 0)
(0.515862 0.232711 0)
(0.534729 0.248141 0)
(0.554264 0.263498 0)
(0.574438 0.278727 0)
(0.595222 0.293767 0)
(0.61658 0.308557 0)
(0.638473 0.323034 0)
(0.660855 0.337134 0)
(0.683676 0.350793 0)
(0.706877 0.363952 0)
(0.730395 0.376553 0)
(0.754161 0.388543 0)
(0.778102 0.399877 1.12188e-027)
(0.300397 0.00991192 0)
(0.305336 0.0181381 0)
(0.311242 0.0320289 0)
(0.31807 0.0458067 0)
(0.32582 0.0595603 0)
(0.334495 0.0735716 0)
(0.344091 0.0879116 0)
(0.354597 0.102564 0)
(0.366003 0.11751 0)
(0.378295 0.132738 0)
(0.391461 0.148229 0)
(0.405489 0.163961 0)
(0.420366 0.179906 0)
(0.436083 0.196031 0)
(0.452625 0.212298 0)
(0.469979 0.228663 0)
(0.488134 0.24508 0)
(0.507073 0.261493 0)
(0.526782 0.277843 0)
(0.547238 0.294065 0)
(0.568418 0.31009 0)
(0.590291 0.325845 0)
(0.612821 0.341253 0)
(0.635961 0.356235 0)
(0.65966 0.370715 0)
(0.683854 0.384615 0)
(0.70847 0.397863 0)
(0.733429 0.410395 0)
(0.758642 0.42215 1.56448e-027)
(0.279052 0.010322 0)
(0.283549 0.018932 0)
(0.288988 0.0334604 0)
(0.295321 0.047845 0)
(0.302557 0.0622204 0)
(0.310709 0.0768841 0)
(0.319782 0.0919068 0)
(0.329774 0.107272 0)
(0.340681 0.122966 0)
(0.352499 0.138976 0)
(0.365224 0.155286 0)
(0.378852 0.171875 0)
(0.39338 0.188716 0)
(0.408804 0.205774 0)
(0.425123 0.223013 0)
(0.442332 0.240387 0)
(0.460428 0.257841 0)
(0.479408 0.275318 0)
(0.499264 0.292751 0)
(0.519986 0.310067 0)
(0.541558 0.327184 0)
(0.563958 0.344016 0)
(0.587152 0.360469 0)
(0.6111 0.376448 0)
(0.635747 0.391853 0)
(0.661024 0.40659 0)
(0.686851 0.420565 0)
(0.713131 0.433694 0)
(0.739761 0.445903 1.30135e-025)
(0.258152 0.0107277 0)
(0.262205 0.0197101 0)
(0.267178 0.0348779 0)
(0.273012 0.0498643 0)
(0.279726 0.0648592 0)
(0.287344 0.0801755 0)
(0.295878 0.095883 0)
(0.305334 0.111967 0)
(0.315716 0.128415 0)
(0.32703 0.14522 0)
(0.339278 0.162367 0)
(0.352466 0.179837 0)
(0.3666 0.197605 0)
(0.381685 0.215638 0)
(0.39773 0.233899 0)
(0.414743 0.252339 0)
(0.432733 0.270903 0)
(0.451708 0.28953 0)
(0.471672 0.308146 0)
(0.49263 0.326668 0)
(0.514576 0.345002 0)
(0.537501 0.363046 0)
(0.561381 0.380687 0)
(0.586181 0.397805 0)
(0.611847 0.414276 0)
(0.638308 0.429976 0)
(0.665471 0.444784 0)
(0.693223 0.45859 0)
(0.721438 0.471297 -1.3233e-025)
(0.237748 0.0111328 0)
(0.241354 0.0204614 0)
(0.24586 0.0362665 0)
(0.251193 0.0518418 0)
(0.257379 0.0674442 0)
(0.264452 0.0834026 0)
(0.272431 0.0997853 0)
(0.281331 0.116579 0)
(0.291163 0.133778 0)
(0.301941 0.151375 0)
(0.313675 0.169362 0)
(0.32638 0.187723 0)
(0.34007 0.206434 0)
(0.354763 0.225468 0)
(0.370477 0.244786 0)
(0.387234 0.264344 0)
(0.405053 0.284085 0)
(0.423957 0.303947 0)
(0.44397 0.32385 0)
(0.465111 0.343704 0)
(0.487394 0.3634 0)
(0.510825 0.382819 0)
(0.535396 0.401824 0)
(0.561084 0.420265 0)
(0.587839 0.437986 0)
(0.61559 0.454823 0)
(0.644233 0.470617 0)
(0.673634 0.485219 0)
(0.703636 0.498498 1.39363e-025)
(0.217893 0.0115421 0)
(0.221046 0.0211731 0)
(0.225088 0.0376064 0)
(0.229921 0.0537446 0)
(0.235577 0.0699275 0)
(0.242098 0.0865005 0)
(0.249511 0.10353 0)
(0.257836 0.121007 0)
(0.267095 0.138928 0)
(0.277305 0.157294 0)
(0.288489 0.1761 0)
(0.300666 0.195336 0)
(0.313861 0.214984 0)
(0.3281 0.235019 0)
(0.343414 0.25541 0)
(0.359837 0.276117 0)
(0.377403 0.29709 0)
(0.396153 0.318262 0)
(0.416129 0.339554 0)
(0.437375 0.360868 0)
(0.459929 0.382084 0)
(0.483819 0.403063 0)
(0.509062 0.423642 0)
(0.535653 0.443638 0)
(0.563558 0.462848 0)
(0.592707 0.481059 0)
(0.622989 0.498056 0)
(0.654246 0.513635 0)
(0.68628 0.527614 0)
(0.198635 0.0119589 0)
(0.201336 0.0218296 0)
(0.204925 0.0388694 0)
(0.209266 0.0555253 0)
(0.214396 0.0722403 0)
(0.220363 0.0893774 0)
(0.227203 0.107001 0)
(0.234941 0.125104 0)
(0.243606 0.143692 0)
(0.253223 0.162771 0)
(0.263819 0.182343 0)
(0.275423 0.202405 0)
(0.288067 0.222947 0)
(0.301786 0.243954 0)
(0.31662 0.265403 0)
(0.332618 0.287264 0)
(0.34983 0.309491 0)
(0.368317 0.332026 0)
(0.388145 0.35479 0)
(0.409386 0.377682 0)
(0.432107 0.400575 0)
(0.456372 0.423311 0)
(0.48223 0.4457 0)
(0.509708 0.46752 0)
(0.538798 0.488514 0)
(0.569444 0.508405 0)
(0.601532 0.526902 0)
(0.63488 0.543719 0)
(0.66924 0.558597 1.4135e-025)
(0.180027 0.0123807 0)
(0.182288 0.0224118 0)
(0.185447 0.040017 0)
(0.189312 0.0571199 0)
(0.193927 0.0742925 0)
(0.199348 0.0919149 0)
(0.205615 0.110048 0)
(0.21276 0.12869 0)
(0.220817 0.147854 0)
(0.229818 0.167555 0)
(0.239795 0.187803 0)
(0.250782 0.208604 0)
(0.262818 0.229961 0)
(0.275944 0.25187 0)
(0.290212 0.274321 0)
(0.305681 0.297299 0)
(0.322421 0.320769 0)
(0.340513 0.344683 0)
(0.360053 0.36897 0)
(0.381142 0.393533 0)
(0.403888 0.418239 0)
(0.428397 0.442921 0)
(0.454764 0.467362 0)
(0.483065 0.491299 0)
(0.513334 0.514416 0)
(0.545547 0.536354 0)
(0.579601 0.556723 0)
(0.615293 0.575124 0)
(0.652319 0.591182 -5.74415e-027)
(0.162121 0.0127939 0)
(0.163979 0.0228971 0)
(0.166741 0.0409997 0)
(0.170157 0.0584502 0)
(0.174278 0.0759783 0)
(0.179167 0.0939781 0)
(0.18487 0.112506 0)
(0.191425 0.131567 0)
(0.198868 0.151184 0)
(0.207237 0.17138 0)
(0.216568 0.192178 0)
(0.226897 0.213596 0)
(0.238267 0.23565 0)
(0.250727 0.258354 0)
(0.264336 0.281715 0)
(0.279164 0.305736 0)
(0.2953 0.330398 0)
(0.31285 0.355665 0)
(0.331936 0.381482 0)
(0.352696 0.407764 0)
(0.375281 0.434385 0)
(0.399853 0.461171 0)
(0.426567 0.487888 0)
(0.455566 0.514233 0)