/*--------------------------------*- C++ -*----------------------------------*\
| =========                 |                                                 |
| \\      /  F ield         | OpenFOAM: The Open Source CFD Toolbox           |
|  \\    /   O peration     | Version:  5.x                                   |
|   \\  /    A nd           | Web:      www.OpenFOAM.org                      |
|    \\/     M anipulation  |                                                 |
\*---------------------------------------------------------------------------*/
/*   Windows 32 and 64 bit porting by blueCAPE: http://www.bluecape.com.pt   *\
|  Based on Windows porting (2.0.x v4) by Symscape: http://www.symscape.com   |
\*---------------------------------------------------------------------------*/
FoamFile
{
    version     2.0;
    format      ascii;
    class       volScalarField;
    location    "390";
    object      epsilon;
}
// * * * * * * * * * * * * * * * * * * * * * * * * * * * * * * * * * * * * * //

dimensions      [0 2 -3 0 0 0 0];

internalField   nonuniform List<scalar> 
43900
(
0.00152925
0.00151909
0.00151979
0.00151971
0.00151968
0.00151966
0.00151967
0.00151967
0.00151967
0.00151967
0.00151967
0.00151968
0.00151968
0.00151968
0.00151968
0.00151968
0.00151968
0.00151968
0.00151968
0.00151969
0.00151968
0.00151968
0.00151968
0.00151969
0.00151969
0.00151969
0.00151968
0.00151968
0.00151968
0.000414083
3.81977e-005
3.16655e-005
3.15195e-005
3.27284e-005
3.2792e-005
3.28041e-005
3.27896e-005
3.27909e-005
3.27949e-005
3.27957e-005
3.27987e-005
3.27987e-005
3.28009e-005
3.28035e-005
3.28045e-005
3.28056e-005
3.28049e-005
3.28064e-005
3.28097e-005
3.28094e-005
3.28083e-005
3.28094e-005
3.28152e-005
3.28198e-005
3.28144e-005
3.28041e-005
3.28015e-005
3.28108e-005
0.0508414
0.00575429
0.000289866
1.14929e-005
1.71118e-006
1.32766e-006
1.3266e-006
1.40956e-006
1.4186e-006
1.41736e-006
1.41635e-006
1.41666e-006
1.4171e-006
1.4174e-006
1.41777e-006
1.41824e-006
1.4184e-006
1.41831e-006
1.41867e-006
1.41913e-006
1.4193e-006
1.4196e-006
1.41996e-006
1.42016e-006
1.4199e-006
1.41937e-006
1.41945e-006
1.42009e-006
1.42092e-006
0.146527
0.0437855
0.0096809
0.00132183
8.38434e-005
3.42922e-006
3.43164e-007
1.22648e-007
1.0834e-007
1.15517e-007
1.1986e-007
1.2022e-007
1.19635e-007
1.19467e-007
1.19599e-007
1.19679e-007
1.1967e-007
1.19677e-007
1.19727e-007
1.19763e-007
1.19797e-007
1.19838e-007
1.19861e-007
1.19866e-007
1.1987e-007
1.1987e-007
1.19918e-007
1.19961e-007
1.19992e-007
0.197697
0.084501
0.03386
0.0112495
0.00264924
0.00035771
2.25588e-005
9.72471e-007
8.49734e-008
2.23333e-008
1.65046e-008
1.7094e-008
1.84148e-008
1.86292e-008
1.84518e-008
1.84223e-008
1.84799e-008
1.84853e-008
1.84737e-008
1.84819e-008
1.84894e-008
1.8489e-008
1.8491e-008
1.84965e-008
1.85005e-008
1.85018e-008
1.85075e-008
1.85125e-008
1.85146e-008
0.222767
0.109183
0.053356
0.0251509
0.0105359
0.00334325
0.000713498
7.83936e-005
4.34972e-006
2.06021e-007
1.93187e-008
5.57018e-009
4.10221e-009
4.42402e-009
4.72662e-009
4.71458e-009
4.63449e-009
4.64455e-009
4.67398e-009
4.66839e-009
4.66687e-009
4.67233e-009
4.6756e-009
4.67755e-009
4.67833e-009
4.67827e-009
4.67873e-009
4.68027e-009
4.6819e-009
0.234013
0.123522
0.0660309
0.0352454
0.018333
0.00888688
0.00354775
0.000971277
0.000152771
1.172e-005
6.08568e-007
3.36144e-008
4.40937e-009
1.74458e-009
1.51982e-009
1.66554e-009
1.75032e-009
1.71588e-009
1.69684e-009
1.70924e-009
1.71073e-009
1.70577e-009
1.70589e-009
1.70656e-009
1.70627e-009
1.70657e-009
1.70781e-009
1.70833e-009
1.70861e-009
0.237425
0.131376
0.0740329
0.0421422
0.023933
0.0132975
0.00697201
0.00318318
0.00104362
0.000217744
2.29862e-005
1.4167e-006
7.93581e-008
5.62165e-009
1.24327e-009
7.33491e-010
7.51864e-010
8.16068e-010
8.13305e-010
7.96445e-010
7.99529e-010
8.05268e-010
8.04227e-010
8.04466e-010
8.05697e-010
8.0584e-010
8.05938e-010
8.06043e-010
8.06151e-010
0.236283
0.135146
0.0789179
0.0467897
0.0279452
0.01663
0.00969659
0.00538334
0.00268985
0.0010267
0.000249597
3.22316e-005
2.32753e-006
1.42423e-007
9.35846e-009
1.12968e-009
4.81685e-010
4.00482e-010
4.44648e-010
4.62855e-010
4.52711e-010
4.50987e-010
4.53062e-010
4.52621e-010
4.51456e-010
4.51883e-010
4.5281e-010
4.52961e-010
4.53238e-010
0.231939
0.1358
0.0813603
0.0496389
0.0306672
0.0190471
0.0117746
0.00713688
0.00413607
0.00218071
0.000922262
0.000247306
3.64694e-005
3.00797e-006
2.03471e-007
1.40663e-008
1.30406e-009
3.95825e-010
2.64583e-010
2.75219e-010
2.92774e-010
2.888e-010
2.85928e-010
2.87851e-010
2.88718e-010
2.87826e-010
2.87441e-010
2.87535e-010
2.87562e-010
0.224827
0.13407
0.0817615
0.0508882
0.032172
0.0205512
0.0131743
0.00839529
0.00524332
0.00313496
0.00171599
0.000774672
0.000220862
3.54399e-005
3.2505e-006
2.43242e-007
1.82629e-008
1.6163e-009
3.30348e-010
1.96648e-010
1.86902e-010
2.00852e-010
2.01179e-010
1.97951e-010
1.98434e-010
1.99793e-010
1.99655e-010
1.99354e-010
1.99535e-010
0.216813
0.131239
0.0812977
0.0514069
0.0330742
0.021559
0.0141665
0.00932273
0.00608834
0.00389214
0.00238156
0.00133774
0.000627354
0.000185718
3.18159e-005
3.20733e-006
2.65756e-007
2.19106e-008
1.98856e-009
3.18531e-010
1.62354e-010
1.34539e-010
1.44538e-010
1.49082e-010
1.46805e-010
1.46515e-010
1.47444e-010
1.4772e-010
1.47288e-010
0.207857
0.12747
0.0800099
0.0512676
0.0334629
0.022168
0.0148447
0.00999917
0.0067312
0.0044879
0.002924
0.00182125
0.00104144
0.000498704
0.000150374
2.68708e-005
2.93779e-006
2.68896e-007
2.44022e-008
2.35437e-009
3.35766e-010
1.39806e-010
1.07106e-010
1.10082e-010
1.15267e-010
1.13786e-010
1.12644e-010
1.13397e-010
1.14314e-010
0.198164
0.12291
0.0780309
0.0506121
0.0334262
0.0224451
0.0152629
0.0104695
0.00720847
0.0049497
0.00335903
0.00222285
0.00140329
0.000811512
0.00039193
0.000118269
2.14605e-005
2.51149e-006
2.53335e-007
2.53392e-008
2.64676e-009
3.63658e-010
1.23123e-010
8.93994e-011
8.75323e-011
9.207e-011
9.18601e-011
9.03638e-011
9.05928e-011
0.187977
0.117763
0.0755245
0.0494981
0.0330731
0.0224517
0.0154684
0.0107711
0.00755051
0.00530186
0.00370488
0.00255301
0.00171139
0.00109137
0.000635062
0.000306378
9.13236e-005
1.66065e-005
2.07261e-006
2.30195e-007
2.53862e-008
2.89066e-009
3.99237e-010
1.15046e-010
7.91429e-011
7.06236e-011
7.43423e-011
7.60426e-011
7.50026e-011
0.17747
0.112207
0.0726222
0.0480489
0.0324227
0.0222627
0.0155032
0.0109351
0.00778091
0.00556281
0.00397574
0.00282167
0.00197024
0.00133473
0.00085724
0.000499619
0.000238358
6.99498e-005
1.28508e-005
1.7141e-006
2.08477e-007
2.52058e-008
3.12112e-009
4.43791e-010
1.14548e-010
7.13809e-011
6.06729e-011
6.23227e-011
6.458e-011
0.166805
0.106379
0.0694441
0.0463485
0.0315634
0.0218824
0.0154074
0.0109865
0.00791838
0.00574677
0.00418258
0.00303712
0.00218534
0.00154338
0.00105451
0.000680424
0.000395841
0.000185307
5.35284e-005
1.00084e-005
1.43096e-006
1.90156e-007
2.51337e-008
3.38133e-009
5.03572e-010
1.19256e-010
6.45962e-011
5.35926e-011
5.37675e-011
0.15611
0.100386
0.0660738
0.0444681
0.0305427
0.0213676
0.0151929
0.01095
0.00798324
0.00586991
0.00433792
0.00320873
0.00236329
0.00172113
0.00122735
0.000844264
0.000546185
0.00031617
0.000144198
4.11946e-005
7.92078e-006
1.21992e-006
1.77133e-007
2.55557e-008
3.73147e-009
5.86316e-010
1.29751e-010
6.09617e-011
4.91987e-011
0.145485
0.0943147
0.0625778
0.0424579
0.0294045
0.0207483
0.0148868
0.0108379
0.00798186
0.00593956
0.00444945
0.00334395
0.00251071
0.00187334
0.00137926
0.000992014
0.000686263
0.000444629
0.000255737
0.000113245
3.21797e-005
6.41587e-006
1.06468e-006
1.68197e-007
2.63617e-008
4.16285e-009
6.91859e-010
1.47349e-010
6.04162e-011
0.135031
0.0882411
0.0590138
0.0403606
0.0281798
0.0200509
0.0145126
0.0106632
0.007937
0.00596737
0.00452372
0.00344662
0.00263002
0.00200147
0.00151087
0.00112322
0.000813886
0.000565619
0.000366561
0.000209114
8.95899e-005
2.55325e-005
5.31345e-006
9.49439e-007
1.62633e-007
2.76289e-008
4.71549e-009
8.34309e-010
1.73412e-010
0.124828
0.0822296
0.0554302
0.038212
0.026895
0.0192943
0.0140835
0.0104401
0.00784369
0.00595796
0.00456715
0.00352311
0.0027268
0.00211015
0.0016258
0.0012404
0.000930281
0.000678613
0.000473514
0.000306864
0.000173669
7.19575e-005
2.07354e-005
4.53396e-006
8.71882e-007
1.61382e-007
2.95901e-008
5.43751e-009
1.00464e-009
0.11494
0.076331
0.051866
0.0360416
0.0255725
0.0184962
0.0136144
0.01018
0.00771806
0.00592137
0.00458475
0.00357666
0.00280342
0.00220124
0.00172548
0.00134455
0.00103587
0.000783206
0.00057491
0.000402728
0.000261098
0.000146789
5.89425e-005
1.73174e-005
3.99036e-006
8.23738e-007
1.64182e-007
3.23763e-008
6.24713e-009
0.105422
0.0705889
0.0483542
0.0338737
0.0242299
0.017669
0.0131139
0.0098893
0.0075636
0.0058556
0.00457906
0.00361032
0.00286285
0.00227735
0.00181208
0.00143735
0.00113177
0.000879845
0.000670305
0.000494996
0.000348157
0.000225986
0.000126524
4.96898e-005
1.49367e-005
3.62876e-006
8.01051e-007
1.71237e-007
3.53607e-008
0.0963186
0.0650384
0.0449217
0.0317289
0.0228829
0.0168251
0.012592
0.00957646
0.00738813
0.00577157
0.00455722
0.00362836
0.00290782
0.00234038
0.00188703
0.00151988
0.00121877
0.000968967
0.000759677
0.00058297
0.000433088
0.000305992
0.000199099
0.000111304
4.36717e-005
1.34115e-005
3.42057e-006
8.03044e-007
1.78789e-007
0.0876624
0.0597076
0.0415907
0.029624
0.0215443
0.0159736
0.0120553
0.0092458
0.00719404
0.00566896
0.00451582
0.00362918
0.00293841
0.00239109
0.00195128
0.00159308
0.00129764
0.00105111
0.00084324
0.000666418
0.000515016
0.000384943
0.000273355
0.000178504
9.97442e-005
3.94957e-005
1.24465e-005
3.32827e-006
8.07774e-007
0.0794758
0.0546169
0.038378
0.0275723
0.0202243
0.0151228
0.0115102
0.00890285
0.0069865
0.00555326
0.00446321
0.00362082
0.00295917
0.00243227
0.00200668
0.00165826
0.00136936
0.00112699
0.000921438
0.000745469
0.000593649
0.000461945
0.000347427
0.000248086
0.000162739
9.12801e-005
3.66726e-005
1.19063e-005
3.25627e-006
0.0717733
0.0497811
0.0352965
0.0255844
0.0189312
0.0142792
0.0109619
0.00855157
0.00676839
0.00542623
0.00439914
0.00360077
0.00296986
0.00246454
0.00205411
0.0017163
0.00143473
0.00119726
0.000994776
0.000820432
0.000669037
0.000536682
0.000420452
0.000318238
0.000228627
0.000150913
8.53053e-005
3.49439e-005
1.14537e-005
0.0645613
0.0452098
0.0323554
0.0236682
0.0176716
0.0134478
0.0104143
0.00819493
0.00654191
0.00528954
0.00432506
0.00357041
0.00297075
0.0024883
0.00209412
0.00176783
0.00149439
0.00126253
0.00106378
0.000891713
0.000741416
0.00060915
0.000492079
0.000388086
0.00029566
0.000213838
0.000142234
8.14434e-005
3.34549e-005
0.0578395
0.0409076
0.0295606
0.0218292
0.0164503
0.0126326
0.00987075
0.00783565
0.00630947
0.00514551
0.00424338
0.00353325
0.00296596
0.00250602
0.00212828
0.00181398
0.0015492
0.00132351
0.00112905
0.000959804
0.000811154
0.000679559
0.000562297
0.000457299
0.000363031
0.000278419
0.000202832
0.000136348
7.79762e-005
0.0516031
0.0368762
0.0269159
0.0200714
0.0152707
0.0118367
0.00933361
0.00747574
0.00607267
0.00499534
0.00415489
0.00348917
0.00295419
0.00251764
0.00215704
0.00185532
0.00159977
0.0013808
0.00119114
0.0010252
0.000878679
0.000748236
0.000631294
0.000525864
0.000430436
0.000343904
0.000265527
0.000194984
0.000132382
0.0458434
0.0331145
0.0244229
0.0183975
0.0141356
0.0110624
0.00880482
0.0071167
0.00583266
0.00483989
0.00406019
0.00343856
0.00293577
0.00252338
0.00218066
0.00189222
0.00164653
0.00143486
0.00125052
0.00108837
0.000944424
0.000815564
0.000699371
0.000593959
0.000497875
0.000410025
0.000329628
0.000256208
0.000189695
0.0405488
0.0296194
0.0220822
0.0168092
0.0130469
0.0103113
0.00828584
0.00675968
0.00559033
0.00467985
0.00395993
0.00338217
0.00291181
0.00252348
0.00219938
0.00192494
0.00168979
0.00148603
0.00130757
0.00114972
0.00100881
0.000881948
0.000766898
0.000661889
0.000565548
0.000476821
0.00039493
0.000319345
0.000249798
0.0357053
0.0263863
0.0198932
0.0153074
0.012006
0.00958501
0.00777788
0.00640566
0.00534646
0.00451587
0.00385465
0.00332055
0.00288305
0.0025199
0.00221431
0.00195416
0.00173003
0.00153471
0.00136269
0.00120965
0.00107224
0.00094781
0.000834293
0.000730047
0.000633793
0.000544538
0.000461535
0.000384248
0.000312329
0.0312974
0.0234096
0.0178546
0.0138928
0.0110141
0.00888472
0.00728204
0.00605549
0.00510164
0.00434834
0.00374454
0.00325364
0.00284901
0.00251112
0.0022249
0.00197977
0.00176733
0.00158112
0.00141613
0.00126848
0.00113509
0.00101357
0.000902002
0.00079889
0.000703053
0.000613577
0.000529762
0.000451097
0.000377228
0.0273077
0.0206825
0.0159647
0.0125657
0.0100724
0.00821166
0.0067994
0.00571002
0.00485649
0.00417761
0.00362978
0.00318146
0.00280957
0.00249702
0.00223092
0.00200161
0.00180164
0.00162529
0.00146806
0.00132645
0.00119771
0.00107963
0.000970486
0.00086892
0.000773854
0.000684456
0.000600093
0.0005203
0.000444749
0.0237174
0.0181973
0.014221
0.0113261
0.00918189
0.00756709
0.00633112
0.00537017
0.00461165
0.00400411
0.00351059
0.00310414
0.0027649
0.00247802
0.00223222
0.00201952
0.00183288
0.00166721
0.00151856
0.00138377
0.00126037
0.00114638
0.00104023
0.000940699
0.00084681
0.000757822
0.000673175
0.000592464
0.000515412
0.0205063
0.0159455
0.0126208
0.0101739
0.00834349
0.00695232
0.00587847
0.00503698
0.00436791
0.00382837
0.00338728
0.00302184
0.00271508
0.00245425
0.00222966
0.00203389
0.00186118
0.00170698
0.00156773
0.00144062
0.00132338
0.00121424
0.00111178
0.00101487
0.00092266
0.000834477
0.00074984
0.000668417
0.000589996
0.017653
0.0139175
0.0111606
0.00910872
0.00755812
0.0063687
0.00544281
0.00471165
0.00412619
0.00365102
0.00326025
0.00293469
0.00266
0.00242531
0.00222235
0.00204418
0.00188621
0.00174438
0.00161551
0.00149705
0.00138696
0.00128361
0.00118569
0.00109218
0.00100229
0.000915422
0.000831172
0.000749274
0.000669596
0.0151347
0.0121028
0.00983625
0.00812961
0.00682646
0.00581754
0.00502557
0.00439548
0.00388755
0.00347283
0.00312993
0.00284287
0.00259957
0.00239079
0.00220937
0.00204967
0.00190738
0.00177896
0.00166158
0.00155293
0.00145116
0.00135476
0.00126249
0.00117339
0.0010867
0.00100187
0.000918544
0.000836513
0.000755721
0.0129276
0.01049
0.00864295
0.00723529
0.00614899
0.0053001
0.00462828
0.00408993
0.00365325
0.00329478
0.00299703
0.00274678
0.00253395
0.00235076
0.00219106
0.0020499
0.00192419
0.00181018
0.00170542
0.00160786
0.00151576
0.0014277
0.00134248
0.00125913
0.00117687
0.00109514
0.00101357
0.000931967
0.000850346
0.0110074
0.00906666
0.00757515
0.00642395
0.00552591
0.0048176
0.00425256
0.00379672
0.00342489
0.00311827
0.00286267
0.00264727
0.00246373
0.00230555
0.00216761
0.00204588
0.00193669
0.00183767
0.0017465
0.00166123
0.00158024
0.0015021
0.00142559
0.00134968
0.0012735
0.00119637
0.00111783
0.00103763
0.000955774
0.00934941
0.00781995
0.00662677
0.00569348
0.00495735
0.0043714
0.00390041
0.00351811
0.00320479
0.00294553
0.00272892
0.00254617
0.00239044
0.00225634
0.0021396
0.00203678
0.00194472
0.00186132
0.00178456
0.00171269
0.00164413
0.00157749
0.00151149
0.00144496
0.00137687
0.00130631
0.00123261
0.00115532
0.00107429
0.00792945
0.00673685
0.00579154
0.00504165
0.00444355
0.00396322
0.00357445
0.00325725
0.00299638
0.00278009
0.0025993
0.00244692
0.00231737
0.00220621
0.00210989
0.00202549
0.00195044
0.00188279
0.00182085
0.00176305
0.00170794
0.00165413
0.00160027
0.00154506
0.00148721
0.0014255
0.00135887
0.00128649
0.0012079
0.00672434
0.00580462
0.00506322
0.00446634
0.00398504
0.00359536
0.00327814
0.0030184
0.00280446
0.00262716
0.00247928
0.00235514
0.00225019
0.00216081
0.00208408
0.00201759
0.0019589
0.00190645
0.00185914
0.00181555
0.00177433
0.00173415
0.00169362
0.0016513
0.00160563
0.00155501
0.00149784
0.00143269
0.00135846
0.00571222
0.00501106
0.0044358
0.00396566
0.00358272
0.00327065
0.00301575
0.00280693
0.00263529
0.0024937
0.00237641
0.00227883
0.00219727
0.00212873
0.0020709
0.00202123
0.00197761
0.0019398
0.00190663
0.00187687
0.00184936
0.00182289
0.00179616
0.00176763
0.00173553
0.00169781
0.00165224
0.00159654
0.00152862
0.00487258
0.00434444
0.00390338
0.0035377
0.0032375
0.00299212
0.00279197
0.00262889
0.00249612
0.00238802
0.00229995
0.00222812
0.0021695
0.00212143
0.00208072
0.00204617
0.00201789
0.0019945
0.00197484
0.00195811
0.00194351
0.00193012
0.00191679
0.00190206
0.00188403
0.00186028
0.00182785
0.00178336
0.00172329
0.004186
0.00379323
0.00345983
0.00318012
0.00294984
0.00276243
0.00261127
0.00249039
0.00239453
0.00231917
0.00226036
0.00221482
0.00217872
0.00214956
0.00212686
0.00210953
0.00209691
0.00208757
0.00208069
0.00207598
0.00207308
0.00207145
0.00207031
0.00206836
0.00206391
0.00205417
0.0020354
0.00200311
0.00195167
0.00363367
0.00334572
0.00309834
0.00288965
0.00271918
0.0025832
0.00247724
0.00239687
0.00233786
0.00229648
0.00226816
0.002249
0.00223782
0.00223262
0.00223173
0.00223376
0.00223783
0.00224283
0.0022486
0.00225521
0.00226278
0.00227129
0.00228045
0.00228948
0.00229686
0.00229914
0.00229345
0.00227376
0.00223062
0.00319722
0.0029898
0.0028112
0.0026618
0.00254356
0.00245468
0.0023922
0.00235285
0.00233285
0.00232729
0.00233324
0.00234855
0.00237036
0.00239565
0.00242205
0.00244784
0.00247226
0.00249468
0.00251507
0.00253385
0.0025516
0.00256893
0.00258625
0.00260353
0.00261991
0.00263249
0.00263607
0.00262544
0.00258864
0.00285882
0.00271303
0.00258987
0.00249092
0.00241967
0.00237573
0.00235715
0.00236141
0.00238345
0.00242275
0.00247463
0.00253531
0.00260061
0.00266718
0.00273201
0.00279269
0.00284769
0.00289616
0.00293802
0.00297383
0.00300458
0.00303153
0.0030559
0.00307864
0.0031001
0.00311814
0.00312754
0.00311946
0.00308172
0.00260161
0.00250313
0.00242534
0.0023705
0.0023431
0.00234406
0.00237131
0.00242414
0.0025002
0.00259632
0.00270768
0.00282993
0.00295804
0.00308712
0.00321253
0.0033303
0.00343741
0.00353189
0.00361287
0.00368051
0.00373578
0.00378025
0.00381577
0.00384443
0.00386835
0.00388629
0.00389407
0.00387991
0.00382651
0.00241023
0.00234842
0.00230865
0.00229369
0.00230875
0.00235568
0.0024346
0.00254626
0.00268809
0.00285743
0.00304999
0.00326057
0.0034829
0.00371013
0.00393525
0.00415166
0.00435365
0.00453679
0.00469809
0.00483598
0.0049502
0.00504142
0.00511101
0.00516201
0.00519891
0.00522044
0.00522332
0.00519092
0.00509315
0.00227119
0.00223825
0.0022313
0.00225339
0.00231121
0.00240769
0.00254607
0.00272736
0.00295163
0.00321757
0.00352198
0.00385977
0.00422392
0.00460582
0.00499584
0.00538403
0.00576094
0.0061182
0.00644898
0.0067481
0.00701189
0.00723771
0.00742345
0.00757389
0.00769208
0.00776617
0.00779793
0.00774912
0.00755859
0.00217301
0.00216332
0.00218536
0.00224332
0.00234493
0.0024962
0.00270204
0.00296701
0.00329464
0.00368688
0.00414349
0.00466153
0.00523514
0.00585565
0.00651209
0.0071921
0.00788291
0.00857231
0.00924939
0.00990482
0.0105307
0.0111198
0.0116642
0.0121589
0.0126075
0.0129793
0.013267
0.013389
0.0130081
0.0021062
0.00211558
0.00216414
0.00225735
0.002405
0.00261572
0.00289863
0.00326312
0.0037183
0.00427218
0.0049307
0.00569679
0.00656978
0.00754516
0.00861504
0.00976904
0.0109956
0.0122836
0.0136233
0.0150075
0.0164321
0.0178945
0.0193938
0.0209108
0.0224754
0.02405
0.0255716
0.0272754
0.0264929
0.00206302
0.00208831
0.0021618
0.00228998
0.00248552
0.00276089
0.00313071
0.0036113
0.00422018
0.00497516
0.00589306
0.00698851
0.00827285
0.00975376
0.0114355
0.0133199
0.0154089
0.017706
0.0202202
0.0229681
0.0259776
0.0292894
0.0329652
0.0370646
0.0416962
0.0469557
0.0529737
0.0616579
0.0609389
0.00203724
0.00207597
0.00217306
0.00233605
0.00258118
0.0029259
0.00339187
0.0040047
0.00479373
0.00579119
0.00703109
0.00854782
0.0103751
0.0125454
0.0150909
0.0180448
0.0214453
0.0253402
0.0297936
0.0348941
0.0407675
0.0475885
0.0556202
0.065185
0.076932
0.0912195
0.110049
0.137522
0.14395
0.00202405
0.0020741
0.0021938
0.00239109
0.00268703
0.00310488
0.00367496
0.00443468
0.00542892
0.0067099
0.00833646
0.0103733
0.0128907
0.0159646
0.0196787
0.0241286
0.0294285
0.0357212
0.0431935
0.0520964
0.0627798
0.0757295
0.0916878
0.111619
0.137529
0.170725
0.21952
0.283922
0.326579
0.00202051
0.00207985
0.00222148
0.00245232
0.0027998
0.00329355
0.00397424
0.00489359
0.0061161
0.00772002
0.00979814
0.0124586
0.0158262
0.0200457
0.0252869
0.0317533
0.0396971
0.0494395
0.0614027
0.076156
0.0944953
0.117535
0.147002
0.185207
0.237047
0.305934
0.414976
0.545967
0.705598
0.0015197
0.00151969
0.00151969
0.00151968
0.00151968
0.00151968
0.00151969
0.0015197
0.0015197
0.00151969
0.00151968
0.00151969
0.00151969
0.0015197
0.0015197
0.00151971
0.0015197
0.00151969
0.00151968
0.0015197
0.00151971
0.00151972
0.0015197
0.00151969
0.00151968
0.0015197
0.0015197
0.0015197
0.00151971
0.00151972
0.00151971
0.00151969
0.00151967
0.00151968
0.00151969
0.0015197
0.0015197
0.0015197
0.0015197
0.0015197
0.0015197
0.0015197
0.0015197
0.0015197
0.0015197
0.0015197
0.0015197
0.0015197
0.0015197
0.0015197
0.0015197
0.0015197
0.0015197
0.0015197
0.0015197
0.0015197
0.0015197
0.0015197
0.0015197
0.0015197
0.0015197
0.0015197
0.0015197
0.0015197
0.0015197
0.0015197
0.0015197
0.0015197
0.0015197
0.0015197
0.0015197
0.0015197
0.0015197
0.0015197
0.0015197
0.0015197
0.0015197
0.0015197
0.00151971
0.00151971
0.00151971
0.00151971
0.00151971
0.0015197
0.00151971
0.00151971
0.00151971
0.00151971
0.0015197
0.00151971
0.00151971
0.00151971
0.00151971
0.00151971
0.00151971
0.00151971
0.00151971
0.00151971
0.00151971
0.00151971
0.00151971
0.00151971
0.00151971
0.00151971
0.00151971
0.00151971
0.00151971
0.00151971
0.00151971
0.00151971
0.00151971
0.00151971
0.00151971
0.00151971
0.00151971
0.00151971
0.00151971
0.00151971
0.00151971
0.00151971
0.00151971
0.00151971
0.00151971
0.00151971
0.00151971
0.00151971
0.00151971
0.00151971
0.00151971
0.00151971
0.00151971
0.00151972
0.00151971
0.00151972
0.00151972
0.00151972
0.00151972
0.00151973
0.00154195
3.28214e-005
3.28197e-005
3.28109e-005
3.28068e-005
3.28039e-005
3.28059e-005
3.28157e-005
3.28277e-005
3.2829e-005
3.28172e-005
3.28084e-005
3.28139e-005
3.2822e-005
3.28248e-005
3.28287e-005
3.28352e-005
3.2831e-005
3.28203e-005
3.28102e-005
3.28237e-005
3.28393e-005
3.28491e-005
3.28289e-005
3.28124e-005
3.28078e-005
3.28251e-005
3.28267e-005
3.28281e-005
3.28359e-005
3.28491e-005
3.28397e-005
3.28152e-005
3.27988e-005
3.28082e-005
3.28227e-005
3.28237e-005
3.28237e-005
3.28238e-005
3.28239e-005
3.28241e-005
3.28243e-005
3.28244e-005
3.28246e-005
3.28248e-005
3.2825e-005
3.28252e-005
3.28254e-005
3.28258e-005
3.28249e-005
3.28252e-005
3.28265e-005
3.28275e-005
3.28278e-005
3.28281e-005
3.28283e-005
3.28286e-005
3.28289e-005
3.28291e-005
3.28294e-005
3.28297e-005
3.283e-005
3.28303e-005
3.28306e-005
3.28309e-005
3.28312e-005
3.28316e-005
3.28318e-005
3.28323e-005
3.28325e-005
3.28328e-005
3.28332e-005
3.28333e-005
3.2834e-005
3.2834e-005
3.28344e-005
3.28345e-005
3.28342e-005
3.28348e-005
3.28362e-005
3.2839e-005
3.28384e-005
3.28373e-005
3.28388e-005
3.28346e-005
3.2838e-005
3.28381e-005
3.28433e-005
3.28379e-005
3.28355e-005
3.28364e-005
3.2839e-005
3.28384e-005
3.28372e-005
3.28375e-005
3.28389e-005
3.28416e-005
3.28418e-005
3.28424e-005
3.28422e-005
3.28421e-005
3.28421e-005
3.28421e-005
3.2842e-005
3.2842e-005
3.2842e-005
3.2842e-005
3.2842e-005
3.2842e-005
3.28421e-005
3.28422e-005
3.28422e-005
3.28423e-005
3.28424e-005
3.28424e-005
3.28425e-005
3.28427e-005
3.28427e-005
3.28428e-005
3.28429e-005
3.28428e-005
3.28428e-005
3.28427e-005
3.28426e-005
3.28424e-005
3.28427e-005
3.28428e-005
3.28429e-005
3.28429e-005
3.28431e-005
3.2844e-005
3.28445e-005
3.28473e-005
3.28459e-005
3.28507e-005
3.28481e-005
3.2854e-005
3.28528e-005
3.28703e-005
3.51819e-005
1.42081e-006
1.42036e-006
1.42005e-006
1.41992e-006
1.42019e-006
1.42114e-006
1.42198e-006
1.42183e-006
1.42068e-006
1.41995e-006
1.42072e-006
1.42178e-006
1.42193e-006
1.4213e-006
1.42136e-006
1.42155e-006
1.4211e-006
1.42074e-006
1.42065e-006
1.42226e-006
1.4231e-006
1.42315e-006
1.42165e-006
1.42065e-006
1.42108e-006
1.42199e-006
1.42207e-006
1.42257e-006
1.42343e-006
1.42382e-006
1.42258e-006
1.42115e-006
1.42077e-006
1.42213e-006
1.42259e-006
1.42261e-006
1.42263e-006
1.42266e-006
1.42268e-006
1.42272e-006
1.42276e-006
1.4228e-006
1.42284e-006
1.42289e-006
1.42294e-006
1.42299e-006
1.42303e-006
1.42308e-006
1.4232e-006
1.4233e-006
1.42331e-006
1.42327e-006
1.42328e-006
1.42335e-006
1.42342e-006
1.42348e-006
1.42355e-006
1.42361e-006
1.42367e-006
1.42372e-006
1.42378e-006
1.42383e-006
1.42388e-006
1.42394e-006
1.42399e-006
1.42405e-006
1.42408e-006
1.42416e-006
1.42417e-006
1.42424e-006
1.4243e-006
1.4243e-006
1.42439e-006
1.4244e-006
1.42448e-006
1.42448e-006
1.42459e-006
1.42464e-006
1.42463e-006
1.42484e-006
1.42479e-006
1.42488e-006
1.42482e-006
1.42463e-006
1.4247e-006
1.42479e-006
1.4249e-006
1.42466e-006
1.4249e-006
1.42517e-006
1.42516e-006
1.42508e-006
1.42512e-006
1.42518e-006
1.42527e-006
1.42527e-006
1.42529e-006
1.42523e-006
1.42524e-006
1.42526e-006
1.42526e-006
1.42527e-006
1.42526e-006
1.42526e-006
1.42526e-006
1.42525e-006
1.42525e-006
1.42524e-006
1.42525e-006
1.42522e-006
1.42524e-006
1.42521e-006
1.42523e-006
1.42519e-006
1.4252e-006
1.42514e-006
1.42515e-006
1.42508e-006
1.42507e-006
1.42499e-006
1.42492e-006
1.42485e-006
1.42477e-006
1.42471e-006
1.4247e-006
1.42469e-006
1.42467e-006
1.42458e-006
1.42464e-006
1.42457e-006
1.42446e-006
1.42478e-006
1.4248e-006
1.42521e-006
1.42451e-006
1.42875e-006
1.41746e-006
1.33209e-006
1.97282e-006
1.19993e-007
1.19984e-007
1.19968e-007
1.19986e-007
1.20075e-007
1.20154e-007
1.20128e-007
1.20032e-007
1.19996e-007
1.20063e-007
1.202e-007
1.20199e-007
1.20117e-007
1.20084e-007
1.20181e-007
1.20223e-007
1.20183e-007
1.201e-007
1.20142e-007
1.20304e-007
1.20333e-007
1.20268e-007
1.20132e-007
1.20111e-007
1.20232e-007
1.20317e-007
1.20319e-007
1.20374e-007
1.20442e-007
1.20404e-007
1.2027e-007
1.2019e-007
1.20238e-007
1.20374e-007
1.20398e-007
1.20407e-007
1.20419e-007
1.2043e-007
1.20441e-007
1.20453e-007
1.20464e-007
1.20476e-007
1.20489e-007
1.20502e-007
1.20515e-007
1.20527e-007
1.20539e-007
1.20552e-007
1.20559e-007
1.20559e-007
1.20567e-007
1.20588e-007
1.2061e-007
1.20622e-007
1.20633e-007
1.20644e-007
1.20657e-007
1.20668e-007
1.2068e-007
1.20691e-007
1.20703e-007
1.20715e-007
1.20725e-007
1.20738e-007
1.20747e-007
1.2076e-007
1.20769e-007
1.20783e-007
1.20789e-007
1.20802e-007
1.20815e-007
1.2082e-007
1.20839e-007
1.20846e-007
1.20852e-007
1.20866e-007
1.2088e-007
1.20896e-007
1.20916e-007
1.20932e-007
1.20938e-007
1.20959e-007
1.20962e-007
1.20949e-007
1.20953e-007
1.20965e-007
1.20964e-007
1.20933e-007
1.20954e-007
1.20955e-007
1.20948e-007
1.20947e-007
1.20954e-007
1.20964e-007
1.20966e-007
1.20969e-007
1.20973e-007
1.20991e-007
1.20995e-007
1.21012e-007
1.21012e-007
1.21018e-007
1.21014e-007
1.21018e-007
1.21022e-007
1.21018e-007
1.21022e-007
1.21015e-007
1.21021e-007
1.21011e-007
1.21019e-007
1.21008e-007
1.21013e-007
1.21e-007
1.21007e-007
1.20992e-007
1.20996e-007
1.2098e-007
1.20975e-007
1.20963e-007
1.20947e-007
1.20926e-007
1.20911e-007
1.20891e-007
1.20877e-007
1.20856e-007
1.2084e-007
1.20814e-007
1.20801e-007
1.20803e-007
1.20766e-007
1.20793e-007
1.20674e-007
1.21524e-007
1.21466e-007
1.09608e-007
1.38754e-007
6.03047e-006
0.00112085
1.85208e-008
1.85215e-008
1.85235e-008
1.85335e-008
1.85458e-008
1.85455e-008
1.85353e-008
1.85332e-008
1.85475e-008
1.8564e-008
1.85721e-008
1.85602e-008
1.85509e-008
1.85655e-008
1.85871e-008
1.85888e-008
1.85759e-008
1.85614e-008
1.85705e-008
1.85907e-008
1.8589e-008
1.85754e-008
1.85639e-008
1.85708e-008
1.85929e-008
1.86049e-008
1.86098e-008
1.862e-008
1.86237e-008
1.8613e-008
1.85996e-008
1.85976e-008
1.86128e-008
1.86335e-008
1.86381e-008
1.86415e-008
1.86457e-008
1.8649e-008
1.86523e-008
1.86557e-008
1.86593e-008
1.86631e-008
1.86671e-008
1.86712e-008
1.86752e-008
1.86786e-008
1.86817e-008
1.86847e-008
1.86877e-008
1.86929e-008
1.86984e-008
1.87023e-008
1.87034e-008
1.8706e-008
1.87102e-008
1.87141e-008
1.87181e-008
1.87215e-008
1.87253e-008
1.87287e-008
1.87322e-008
1.87358e-008
1.87389e-008
1.87426e-008
1.87456e-008
1.87492e-008
1.8752e-008
1.8756e-008
1.87583e-008
1.87622e-008
1.87654e-008
1.87677e-008
1.87733e-008
1.87747e-008
1.87778e-008
1.87801e-008
1.87813e-008
1.87838e-008
1.87876e-008
1.87903e-008
1.87936e-008
1.87972e-008
1.87982e-008
1.87974e-008
1.8799e-008
1.88003e-008
1.88011e-008
1.88007e-008
1.88033e-008
1.88074e-008
1.88111e-008
1.88126e-008
1.8812e-008
1.88113e-008
1.88143e-008
1.88167e-008
1.8819e-008
1.88212e-008
1.88223e-008
1.88223e-008
1.88232e-008
1.88239e-008
1.88244e-008
1.88255e-008
1.88242e-008
1.88252e-008
1.88238e-008
1.88243e-008
1.8823e-008
1.88236e-008
1.88214e-008
1.88208e-008
1.88185e-008
1.88169e-008
1.88139e-008
1.88118e-008
1.88094e-008
1.88068e-008
1.88038e-008
1.88002e-008
1.87966e-008
1.87924e-008
1.87877e-008
1.87832e-008
1.87798e-008
1.8778e-008
1.87721e-008
1.87546e-008
1.87556e-008
1.87631e-008
1.87453e-008
1.86969e-008
1.90474e-008
1.77463e-008
1.66493e-008
4.33057e-008
3.02028e-006
0.000412321
0.012655
4.68442e-009
4.68415e-009
4.68502e-009
4.68775e-009
4.68942e-009
4.68866e-009
4.68824e-009
4.69161e-009
4.69689e-009
4.69802e-009
4.69589e-009
4.69375e-009
4.69595e-009
4.70348e-009
4.70789e-009
4.70567e-009
4.69981e-009
4.69878e-009
4.70187e-009
4.70612e-009
4.70558e-009
4.70273e-009
4.70274e-009
4.70645e-009
4.71184e-009
4.71523e-009
4.7173e-009
4.71932e-009
4.71911e-009
4.71678e-009
4.71586e-009
4.71769e-009
4.72266e-009
4.72636e-009
4.72798e-009
4.72976e-009
4.73141e-009
4.73285e-009
4.73428e-009
4.73574e-009
4.73722e-009
4.73877e-009
4.74043e-009
4.74208e-009
4.74364e-009
4.74516e-009
4.74656e-009
4.74798e-009
4.74997e-009
4.75169e-009
4.75233e-009
4.75315e-009
4.7547e-009
4.757e-009
4.75862e-009
4.75996e-009
4.76143e-009
4.76281e-009
4.7643e-009
4.76568e-009
4.76712e-009
4.76852e-009
4.76986e-009
4.77127e-009
4.77259e-009
4.77394e-009
4.77517e-009
4.77662e-009
4.77749e-009
4.77917e-009
4.77991e-009
4.78144e-009
4.78269e-009
4.78378e-009
4.78487e-009
4.78622e-009
4.78682e-009
4.7881e-009
4.78986e-009
4.79052e-009
4.79194e-009
4.79299e-009
4.79389e-009
4.79431e-009
4.7955e-009
4.79571e-009