/*--------------------------------*- C++ -*----------------------------------*\
| =========                 |                                                 |
| \\      /  F ield         | OpenFOAM: The Open Source CFD Toolbox           |
|  \\    /   O peration     | Version:  5.x                                   |
|   \\  /    A nd           | Web:      www.OpenFOAM.org                      |
|    \\/     M anipulation  |                                                 |
\*---------------------------------------------------------------------------*/
/*   Windows 32 and 64 bit porting by blueCAPE: http://www.bluecape.com.pt   *\
|  Based on Windows porting (2.0.x v4) by Symscape: http://www.symscape.com   |
\*---------------------------------------------------------------------------*/
FoamFile
{
    version     2.0;
    format      ascii;
    class       volScalarField;
    location    "390";
    object      k;
}
// * * * * * * * * * * * * * * * * * * * * * * * * * * * * * * * * * * * * * //

dimensions      [0 2 -2 0 0 0 0];

internalField   nonuniform List<scalar> 
43900
(
0.000985519
0.000989434
0.000990248
0.000990177
0.000990126
0.000990114
0.000990119
0.000990119
0.000990121
0.000990124
0.000990124
0.000990127
0.000990126
0.000990128
0.00099013
0.000990131
0.000990132
0.000990131
0.000990132
0.000990135
0.000990134
0.000990133
0.000990134
0.000990139
0.000990143
0.000990139
0.00099013
0.000990127
0.000990134
0.00165021
5.6032e-005
3.89317e-005
3.81745e-005
4.08089e-005
4.09653e-005
4.09865e-005
4.09542e-005
4.0955e-005
4.09601e-005
4.09614e-005
4.09653e-005
4.09654e-005
4.09681e-005
4.09715e-005
4.09731e-005
4.09744e-005
4.09734e-005
4.09754e-005
4.09798e-005
4.09795e-005
4.09784e-005
4.09801e-005
4.09871e-005
4.09922e-005
4.0985e-005
4.09729e-005
4.09705e-005
4.09824e-005
0.294472
0.0540243
0.00410506
0.000117911
5.00402e-006
3.08343e-006
2.97837e-006
3.34411e-006
3.38061e-006
3.37526e-006
3.37017e-006
3.37064e-006
3.37205e-006
3.37286e-006
3.37368e-006
3.37481e-006
3.37517e-006
3.37497e-006
3.37582e-006
3.37687e-006
3.3773e-006
3.37805e-006
3.37889e-006
3.37925e-006
3.37862e-006
3.37744e-006
3.37778e-006
3.37932e-006
3.38117e-006
0.880476
0.376934
0.120148
0.0238675
0.00208641
8.32028e-005
4.03265e-006
5.92206e-007
4.58022e-007
4.98372e-007
5.33596e-007
5.36626e-007
5.31634e-007
5.30163e-007
5.31078e-007
5.31539e-007
5.3137e-007
5.31392e-007
5.31656e-007
5.31805e-007
5.31943e-007
5.32114e-007
5.32214e-007
5.3224e-007
5.32263e-007
5.32285e-007
5.32495e-007
5.32681e-007
5.32776e-007
1.28944
0.738958
0.394736
0.176483
0.056123
0.0103262
0.000827555
3.79065e-005
1.72252e-006
2.31825e-007
1.28971e-007
1.25888e-007
1.44631e-007
1.48271e-007
1.45541e-007
1.45055e-007
1.45925e-007
1.45982e-007
1.45739e-007
1.45814e-007
1.45894e-007
1.45868e-007
1.4587e-007
1.45909e-007
1.45932e-007
1.45949e-007
1.45994e-007
1.46033e-007
1.46042e-007
1.54744
0.984782
0.617489
0.370586
0.199381
0.0837725
0.0233759
0.00332364
0.0002158
1.05269e-005
5.60411e-007
9.84548e-008
5.39876e-008
5.46026e-008
6.15319e-008
6.16167e-008
5.95907e-008
5.98368e-008
6.05564e-008
6.03895e-008
6.03356e-008
6.04614e-008
6.05258e-008
6.05529e-008
6.05666e-008
6.0566e-008
6.0564e-008
6.05781e-008
6.06041e-008
1.71029
1.14946
0.772988
0.513714
0.330462
0.198026
0.100121
0.0349364
0.00705609
0.000653257
3.69878e-005
1.99854e-006
1.40881e-007
4.03905e-008
2.897e-008
3.1384e-008
3.48781e-008
3.3654e-008
3.27871e-008
3.32596e-008
3.33048e-008
3.30952e-008
3.30869e-008
3.30984e-008
3.3083e-008
3.30913e-008
3.3126e-008
3.31341e-008
3.31367e-008
1.81212
1.2596
0.881331
0.616345
0.426274
0.286768
0.182168
0.102736
0.0434517
0.0113851
0.00146516
9.99649e-005
5.84805e-006
3.65183e-007
4.35435e-008
2.14632e-008
1.89474e-008
2.14753e-008
2.19749e-008
2.11205e-008
2.12567e-008
2.15815e-008
2.15287e-008
2.15345e-008
2.1594e-008
2.15946e-008
2.1582e-008
2.15807e-008
2.15802e-008
1.87317
1.33269
0.957185
0.69073
0.4975
0.35435
0.246104
0.162758
0.097762
0.0469137
0.0141911
0.00223599
0.000180355
1.16521e-005
7.6187e-007
6.50373e-008
1.98726e-008
1.45584e-008
1.50735e-008
1.64015e-008
1.58159e-008
1.55665e-008
1.56959e-008
1.56642e-008
1.55771e-008
1.56054e-008
1.5664e-008
1.56722e-008
1.56881e-008
1.90071
1.37532
1.00652
0.742369
0.549231
0.405123
0.295436
0.210338
0.143171
0.0894681
0.0465117
0.0153662
0.00274932
0.00025361
1.81073e-005
1.2826e-006
1.04175e-007
1.93019e-008
1.2217e-008
1.12217e-008
1.23531e-008
1.23833e-008
1.2159e-008
1.22844e-008
1.2357e-008
1.22778e-008
1.22246e-008
1.22295e-008
1.22279e-008
1.90036
1.39178
1.03208
0.772842
0.582281
0.439458
0.330328
0.245341
0.177939
0.123614
0.0793422
0.0433524
0.0150883
0.00291199
0.000297335
2.34034e-005
1.8138e-006
1.51562e-007
2.16473e-008
1.12766e-008
9.4208e-009
9.9074e-009
1.02454e-008
9.9606e-009
9.96623e-009
1.01004e-008
1.01068e-008
1.00771e-008
1.00869e-008
1.89088
1.39885
1.04834
0.794108
0.60627
0.464927
0.35662
0.272101
0.204953
0.150688
0.106187
0.0693578
0.0389962
0.0141526
0.00288058
0.000320526
2.77857e-005
2.36197e-006
2.10656e-007
2.6809e-008
1.02977e-008
8.22264e-009
8.29793e-009
8.75628e-009
8.6407e-009
8.50486e-009
8.57374e-009
8.61576e-009
8.56951e-009
1.86843
1.39443
1.05434
0.806385
0.622307
0.483232
0.376322
0.292702
0.226157
0.172299
0.128018
0.0911304
0.0601654
0.0342492
0.0127058
0.00266531
0.00031841
3.0336e-005
2.83129e-006
2.73334e-007
3.32078e-008
1.00028e-008
7.57301e-009
7.06794e-009
7.49201e-009
7.51225e-009
7.41411e-009
7.45242e-009
7.5457e-009
1.83547
1.38052
1.05199
0.811138
0.631634
0.495538
0.390591
0.308305
0.242702
0.189531
0.145743
0.109157
0.0782285
0.0519153
0.0296171
0.010875
0.00229062
0.000289904
3.03326e-005
3.11623e-006
3.28185e-007
4.04549e-008
1.03926e-008
7.11572e-009
6.38235e-009
6.55619e-009
6.68957e-009
6.57835e-009
6.56145e-009
1.79432
1.35858
1.04278
0.809864
0.635547
0.502965
0.400459
0.319887
0.255525
0.203278
0.160191
0.124125
0.0935318
0.0673128
0.0447357
0.0254348
0.0090063
0.00187774
0.000250963
2.88444e-005
3.26529e-006
3.76484e-007
4.87089e-008
1.12103e-008
6.66829e-009
5.8453e-009
5.89232e-009
6.08871e-009
6.02613e-009
1.7467
1.33059
1.02763
0.803676
0.635051
0.506428
0.406702
0.328154
0.265283
0.214162
0.171945
0.136554
0.106467
0.0805812
0.0581126
0.0385569
0.0217134
0.00746484
0.0015454
0.000218277
2.73601e-005
3.3879e-006
4.25478e-007
5.82913e-008
1.2364e-008
6.39206e-009
5.50388e-009
5.34235e-009
5.53877e-009
1.69407
1.29786
1.00815
0.793168
0.631077
0.506629
0.409977
0.333667
0.272482
0.222654
0.181448
0.146858
0.117406
0.0920021
0.0698516
0.0503982
0.0332976
0.0184075
0.00615609
0.00127635
0.000191425
2.61181e-005
3.5271e-006
4.81572e-007
7.01249e-008
1.41181e-008
6.38378e-009
5.32831e-009
4.99462e-009
1.63754
1.26138
0.985213
0.779522
0.62391
0.504372
0.410947
0.337054
0.277672
0.229227
0.189108
0.15539
0.126645
0.10181
0.0800963
0.060931
0.0439161
0.0288117
0.0155442
0.00507745
0.00106636
0.000170956
2.54052e-005
3.73688e-006
5.53572e-007
8.58563e-008
1.68599e-008
6.71242e-009
5.10337e-009
1.57802
1.22197
0.95952
0.763348
0.614445
0.499711
0.409932
0.338639
0.281227
0.234299
0.195361
0.162582
0.134595
0.110378
0.0891621
0.070376
0.0536042
0.0385629
0.0250925
0.0131682
0.00422432
0.000907725
0.000155831
2.51272e-005
4.00709e-006
6.41454e-007
1.05966e-007
2.085e-008
7.20534e-009
1.51632
1.18031
0.931657
0.745138
0.603093
0.493304
0.407198
0.338559
0.283207
0.23787
0.200197
0.168436
0.14128
0.117747
0.0970937
0.0787616
0.0623337
0.0475089
0.0340878
0.0219712
0.0111844
0.00355167
0.000787292
0.000144787
2.52518e-005
4.35654e-006
7.52963e-007
1.33214e-007
2.62099e-008
1.45312
1.137
0.90213
0.725331
0.590243
0.485513
0.403145
0.337437
0.28418
0.240477
0.20409
0.173361
0.14705
0.124217
0.10415
0.0863046
0.0702715
0.0557443
0.0425052
0.0304166
0.0194265
0.00958999
0.00304017
0.000701033
0.000138162
2.59827e-005
4.82962e-006
8.97952e-007
1.66384e-007
1.38901
1.09251
0.871347
0.704266
0.576174
0.476551
0.397961
0.335081
0.284012
0.242016
0.206977
0.177337
0.151917
0.129824
0.110378
0.0930581
0.0774642
0.0632937
0.0503223
0.0383936
0.0274163
0.0173711
0.00833336
0.00266173
0.000641562
0.00013528
2.73425e-005
5.45757e-006
1.06429e-006
1.3245
1.04728
0.839665
0.682249
0.561153
0.466669
0.39191
0.331937
0.283161
0.242886
0.209209
0.180662
0.156136
0.134786
0.115967
0.0991802
0.0840404
0.0702523
0.0575914
0.045893
0.0350462
0.0249936
0.0157451
0.00736155
0.00238437
0.000602671
0.000135624
2.93647e-005
6.13122e-006
1.26003
1.00168
0.807387
0.659529
0.545385
0.456027
0.3851
0.328025
0.281461
0.242923
0.210659
0.18325
0.159659
0.139088
0.120925
0.104698
0.0900378
0.07666
0.0643447
0.0529257
0.0422828
0.0323391
0.0230635
0.0144985
0.00663737
0.00218861
0.000579924
0.000138847
3.13183e-005
1.19599
0.956011
0.774774
0.636324
0.529056
0.444794
0.377696
0.323539
0.279237
0.242514
0.211636
0.185354
0.162689
0.14289
0.125382
0.109715
0.0955401
0.0825831
0.070631
0.0595191
0.0491239
0.0393582
0.0301699
0.0215488
0.0135605
0.00611914
0.00206088
0.000571813
0.000141593
1.13268
0.91054
0.74204
0.612814
0.51232
0.4331
0.369807
0.318562
0.27652
0.241576
0.21212
0.186983
0.165257
0.146242
0.129397
0.114298
0.100615
0.0880861
0.0765074
0.0657183
0.0555957
0.0460478
0.0370122
0.0284558
0.0203853
0.0128779
0.00577063
0.00199214
0.000564446
1.07037
0.865482
0.709364
0.589146
0.495298
0.421047
0.361517
0.313158
0.273355
0.240164
0.212115
0.188146
0.16738
0.149166
0.132998
0.11848
0.105299
0.0932086
0.082014
0.0715608
0.0617286
0.0524248
0.043582
0.0351565
0.0271304
0.0195227
0.0124127
0.00557517
0.00193463
1.00928
0.821012
0.676888
0.565441
0.478093
0.408724
0.352909
0.307414
0.269852
0.23844
0.211841
0.189012
0.169192
0.151773
0.136278
0.122339
0.109661
0.0980108
0.0872042
0.0770935
0.0675617
0.0585177
0.0498922
0.0416361
0.0337199
0.0261377
0.0189145
0.0121528
0.005407
0.949577
0.777268
0.644726
0.541789
0.460781
0.396197
0.34404
0.301379
0.26604
0.236397
0.211223
0.189559
0.170698
0.154081
0.139269
0.125915
0.113745
0.102541
0.0921267
0.0823633
0.0731386
0.064364
0.0559705
0.0479068
0.0401377
0.0326452
0.0254322
0.0185404
0.0119174
0.89139
0.734358
0.612964
0.518263
0.443421
0.383513
0.334949
0.295084
0.261948
0.234062
0.210304
0.18981
0.171921
0.156119
0.141999
0.129241
0.117588
0.106837
0.0968219
0.0874121
0.0785007
0.0700028
0.0618512
0.0539941
0.0463939
0.0390267
0.0318837
0.0249762
0.0183461
0.834834
0.692372
0.581675
0.494918
0.426055
0.370708
0.325666
0.288556
0.257602
0.231466
0.209125
0.189793
0.172888
0.157915
0.1445
0.132349
0.121223
0.110934
0.101326
0.0922775
0.0836865
0.0754722
0.0675702
0.0599295
0.052512
0.0452908
0.0382512
0.0313915
0.0247291
0.780002
0.651385
0.550914
0.471796
0.408717
0.357805
0.31621
0.281812
0.253021
0.22863
0.207721
0.189585
0.173656
0.159513
0.14681
0.135274
0.124686
0.114868
0.105677
0.0969979
0.0887348
0.0808115
0.0731661
0.0657496
0.058524
0.0514616
0.0445444
0.0377644
0.0311236
0.726977
0.611462
0.520732
0.448935
0.391432
0.344823
0.306593
0.274859
0.248205
0.225551
0.20607
0.189123
0.174195
0.160901
0.148928
0.138026
0.127992
0.118661
0.109902
0.101605
0.0936809
0.0860583
0.0786782
0.0714937
0.0644679
0.0575732
0.0507902
0.0441078
0.0375219
0.675836
0.572666
0.491177
0.426369
0.374222
0.331775
0.29682
0.267698
0.243152
0.222222
0.204169
0.188413
0.174503
0.162079
0.150859
0.140613
0.131154
0.122331
0.114022
0.106125
0.0985559
0.0912478
0.0841448
0.0772024
0.0703851
0.063666
0.0570257
0.0504517
0.0439378
0.626655
0.53506
0.462298
0.404134
0.357114
0.318677
0.2869
0.26033
0.23786
0.218641
0.202014
0.18746
0.17457
0.163043
0.152602
0.143038
0.134181
0.125892
0.118057
0.110583
0.10339
0.0964146
0.089605
0.0829182
0.0763206
0.0697863
0.0632962
0.0568379
0.0504046
0.579514
0.498715
0.434153
0.382274
0.340138
0.305548
0.276843
0.252759
0.232329
0.214805
0.199604
0.186268
0.174435
0.163812
0.154168
0.14531
0.137082
0.129356
0.122025
0.115002
0.108211
0.101594
0.0950998
0.0886875
0.0823249
0.075987
0.0696558
0.0633194
0.0569713
0.534496
0.463711
0.40681
0.360844
0.323336
0.292419
0.266669
0.244996
0.22656
0.210708
0.196928
0.184816
0.174053
0.164358
0.155538
0.147417
0.139853
0.132725
0.125935
0.119399
0.113047
0.106821
0.100673
0.0945611
0.0884553
0.0823309
0.0761704
0.0699627
0.0637026
0.491695
0.430137
0.380351
0.339914
0.306766
0.279334
0.25641
0.237061
0.220563
0.206351
0.193977
0.183085
0.173388
0.164651
0.156688
0.149342
0.142481
0.135995
0.12979
0.123787
0.11792
0.112129
0.106367
0.100594
0.0947774
0.0888921
0.0829207
0.0768525
0.0706835
0.451212
0.398099
0.354875
0.319573
0.290502
0.266355
0.246114
0.22899
0.214365
0.20175
0.190759
0.181078
0.172455
0.164678
0.157604
0.151067
0.144949
0.139149
0.13358
0.128165
0.122837
0.117539
0.112221
0.106839
0.10136
0.0957536
0.090002
0.0840933
0.0780237
0.41316
0.367719
0.330499
0.299931
0.274645
0.253568
0.235856
0.220845
0.208012
0.19694
0.187296
0.178811
0.171264
0.164477
0.158286
0.152575
0.147231
0.14216
0.137277
0.132508
0.127786
0.123051
0.118248
0.11333
0.108256
0.102992
0.0975116
0.0918003
0.0858522
0.377656
0.339127
0.307361
0.28112
0.259319
0.241089
0.225738
0.212714
0.201579
0.191981
0.183635
0.17631
0.169815
0.163995
0.1587
0.153831
0.149287
0.144979
0.140829
0.136763
0.132715
0.12862
0.124419
0.120056
0.115479
0.110646
0.105518
0.100071
0.0942912
0.344822
0.312469
0.285613
0.263295
0.244674
0.229062
0.215896
0.204725
0.195183
0.186976
0.179862
0.173645
0.168161
0.163271
0.158857
0.154827
0.151087
0.14756
0.144172
0.140853
0.137537
0.134157
0.130646
0.126939
0.122972
0.118684
0.114021
0.108939
0.103411
0.314779
0.287893
0.26542
0.246627
0.230887
0.217662
0.206503
0.197042
0.18898
0.182069
0.176109
0.170933
0.166401
0.162398
0.158823
0.155594
0.152634
0.149874
0.14725
0.144696
0.142148
0.139538
0.136795
0.133842
0.130599
0.126987
0.122925
0.118342
0.113185
0.287636
0.265545
0.24695
0.231302
0.218152
0.20709
0.197761
0.18987
0.183169
0.177455
0.17256
0.168343
0.164689
0.161502
0.158702
0.15621
0.153974
0.151937
0.150043
0.148236
0.146457
0.144639
0.14271
0.140585
0.138169
0.135359
0.132043
0.128114
0.123474
0.26348
0.245552
0.230359
0.217496
0.206663
0.197552
0.189887
0.18343
0.177977
0.173359
0.169435
0.16609
0.163227
0.160769
0.158654
0.156812
0.155217
0.153824
0.15259
0.151471
0.150416
0.149369
0.148258
0.146997
0.145477
0.143571
0.141138
0.138019
0.134054
0.242355
0.228005
0.215772
0.205363
0.196595
0.189243
0.183092
0.177946
0.173637
0.170023
0.166983
0.164421
0.162259
0.160435
0.158889
0.157599
0.15654
0.155684
0.155005
0.154474
0.154057
0.153709
0.153371
0.152957
0.152354
0.151413
0.149972
0.147806
0.14467
0.224246
0.212936
0.203259
0.195004
0.188078
0.182318
0.177552
0.173617
0.17037
0.167685
0.165457
0.163603
0.162059
0.160756
0.159679
0.158836
0.158195
0.157749
0.157494
0.157419
0.157505
0.157737
0.158074
0.158437
0.158714
0.158727
0.158362
0.157273
0.155091
0.209057
0.200304
0.19282
0.186454
0.181179
0.176875
0.173397
0.170605
0.168368
0.166568
0.165109
0.163896
0.162874
0.162036
0.161371
0.160871
0.160527
0.160357
0.160377
0.160584
0.161025
0.161681
0.162535
0.163539
0.164604
0.165574
0.166241
0.166179
0.165137
0.19661
0.189986
0.184377
0.179676
0.175899
0.172951
0.170704
0.169027
0.167792
0.166866
0.16614
0.165569
0.165106
0.164725
0.164412
0.164168
0.164017
0.163998
0.16413
0.164471
0.165071
0.165947
0.167115
0.168564
0.170242
0.172026
0.17371
0.174818
0.174719
0.186656
0.181788
0.177786
0.174568
0.172177
0.170528
0.169502
0.168963
0.168746
0.168754
0.168885
0.169063
0.16922
0.169319
0.169358
0.169355
0.169348
0.169385
0.169522
0.169834
0.170398
0.17127
0.172504
0.174135
0.176165
0.178527
0.181078
0.183298
0.184389
0.178893
0.175468
0.172853
0.170981
0.169906
0.169547
0.169775
0.170428
0.171396
0.172525
0.17368
0.174762
0.175694
0.176433
0.176964
0.177305
0.177498
0.177606
0.177705
0.177891
0.178264
0.178922
0.179961
0.181462
0.183493
0.186072
0.189193
0.1923
0.194675
0.172997
0.170759
0.169358
0.168737
0.168953
0.16991
0.171483
0.173529
0.175876
0.178351
0.180802
0.183097
0.185135
0.186842
0.188187
0.189169
0.189823
0.190212
0.190421
0.190558
0.190742
0.191098
0.191758
0.192848
0.194494
0.196823
0.20003
0.203533
0.206978
0.16865
0.167393
0.167078
0.167648
0.169161
0.17152
0.174608
0.178241
0.182238
0.186404
0.190557
0.19453
0.198185
0.201413
0.204146
0.206356
0.208054
0.209286
0.210129
0.210684
0.211072
0.211426
0.211884
0.212597
0.213706
0.21546
0.218211
0.221349
0.224876
0.165553
0.165117
0.16579
0.16753
0.170381
0.174266
0.179038
0.184519
0.190511
0.196801
0.203181
0.209449
0.215428
0.220972
0.225971
0.230362
0.234122
0.237272
0.239869
0.241998
0.243765
0.245286
0.246678
0.248088
0.249564
0.251345
0.253774
0.256347
0.258011
0.163442
0.1637
0.1653
0.168202
0.172462
0.177992
0.184655
0.192276
0.200653
0.209563
0.218781
0.228083
0.237262
0.246139
0.254572
0.262469
0.269785
0.276525
0.282739
0.288515
0.293966
0.299224
0.304411
0.30969
0.315075
0.320696
0.326093
0.331756
0.328273
0.162088
0.162939
0.165428
0.169504
0.175234
0.182543
0.191308
0.201368
0.212531
0.224582
0.237294
0.250438
0.263798
0.277183
0.290443
0.303479
0.316255
0.328798
0.3412
0.353614
0.366251
0.379373
0.393285
0.408354
0.424884
0.443888
0.46372
0.489492
0.478026
0.161296
0.162659
0.166011
0.171271
0.178537
0.187749
0.198812
0.211592
0.225923
0.241617
0.258471
0.276277
0.294837
0.313982
0.33359
0.353603
0.374041
0.395017
0.416744
0.439548
0.463881
0.490339
0.519718
0.553019
0.591577
0.637848
0.692416
0.769934
0.757397
0.160912
0.162716
0.166916
0.173366
0.18222
0.19344
0.206967
0.222708
0.240544
0.260336
0.281932
0.305178
0.329935
0.356101
0.383636
0.412581
0.44309
0.475448
0.510102
0.547691
0.589111
0.635555
0.688744
0.750836
0.825532
0.917069
1.03476
1.18757
1.20756
0.160846
0.163023
0.168068
0.175704
0.186189
0.199497
0.215621
0.234521
0.256145
0.280428
0.307302
0.336707
0.368613
0.403043
0.440105
0.480029
0.523195
0.570185
0.621827
0.679273
0.74412
0.818509
0.905655
1.00952
1.13792
1.29731
1.5149
1.76578
1.91685
0.000990144
0.000990143
0.000990135
0.000990132
0.000990129
0.00099013
0.000990138
0.000990148
0.000990151
0.000990141
0.000990132
0.000990136
0.000990143
0.000990146
0.00099015
0.000990156
0.000990152
0.000990143
0.000990134
0.000990145
0.000990158
0.000990167
0.00099015
0.000990136
0.000990131
0.000990146
0.000990148
0.000990148
0.000990155
0.000990166
0.000990159
0.000990138
0.000990124
0.000990131
0.000990144
0.000990144
0.000990144
0.000990144
0.000990145
0.000990145
0.000990145
0.000990145
0.000990145
0.000990145
0.000990145
0.000990145
0.000990146
0.000990146
0.000990145
0.000990145
0.000990146
0.000990147
0.000990148
0.000990148
0.000990148
0.000990148
0.000990148
0.000990149
0.000990149
0.000990149
0.000990149
0.000990149
0.00099015
0.00099015
0.00099015
0.00099015
0.000990151
0.000990151
0.000990151
0.000990151
0.000990152
0.000990152
0.000990152
0.000990152
0.000990153
0.000990153
0.000990152
0.000990153
0.000990154
0.000990156
0.000990156
0.000990155
0.000990156
0.000990153
0.000990156
0.000990156
0.00099016
0.000990156
0.000990153
0.000990154
0.000990156
0.000990156
0.000990155
0.000990155
0.000990156
0.000990158
0.000990159
0.000990159
0.000990159
0.000990159
0.000990159
0.000990159
0.000990159
0.000990159
0.000990159
0.000990159
0.000990159
0.000990159
0.000990159
0.000990159
0.000990159
0.000990159
0.000990159
0.000990159
0.000990159
0.000990159
0.000990159
0.00099016
0.00099016
0.00099016
0.00099016
0.00099016
0.00099016
0.00099016
0.00099016
0.00099016
0.00099016
0.00099016
0.00099016
0.000990161
0.000990161
0.000990164
0.000990163
0.000990166
0.000990165
0.00099017
0.000990167
0.000990179
0.00100813
4.09949e-005
4.09922e-005
4.09814e-005
4.09763e-005
4.09731e-005
4.09766e-005
4.09893e-005
4.10032e-005
4.10034e-005
4.09886e-005
4.0979e-005
4.09868e-005
4.09966e-005
4.09992e-005
4.10037e-005
4.10116e-005
4.1006e-005
4.09931e-005
4.09809e-005
4.09988e-005
4.1018e-005
4.10296e-005
4.1004e-005
4.09834e-005
4.09785e-005
4.09998e-005
4.10018e-005
4.10038e-005
4.1014e-005
4.10303e-005
4.10175e-005
4.09869e-005
4.0967e-005
4.09798e-005
4.09973e-005
4.09984e-005
4.09984e-005
4.09986e-005
4.09987e-005
4.09989e-005
4.09991e-005
4.09993e-005
4.09996e-005
4.09998e-005
4.10001e-005
4.10004e-005
4.10006e-005
4.10011e-005
4.10002e-005
4.10006e-005
4.10021e-005
4.10032e-005
4.10036e-005
4.10039e-005
4.10043e-005
4.10047e-005
4.10051e-005
4.10054e-005
4.10058e-005
4.10061e-005
4.10065e-005
4.10069e-005
4.10073e-005
4.10077e-005
4.1008e-005
4.10086e-005
4.10088e-005
4.10095e-005
4.10097e-005
4.10101e-005
4.10106e-005
4.10108e-005
4.10116e-005
4.10116e-005
4.10122e-005
4.10122e-005
4.1012e-005
4.10128e-005
4.10143e-005
4.10179e-005
4.10171e-005
4.1016e-005
4.10176e-005
4.10124e-005
4.10165e-005
4.10167e-005
4.1023e-005
4.10163e-005
4.10137e-005
4.10152e-005
4.10182e-005
4.10173e-005
4.1016e-005
4.10164e-005
4.10182e-005
4.10213e-005
4.10216e-005
4.10222e-005
4.1022e-005
4.10219e-005
4.10218e-005
4.10218e-005
4.10218e-005
4.10218e-005
4.10218e-005
4.10217e-005
4.10218e-005
4.10218e-005
4.10219e-005
4.10219e-005
4.1022e-005
4.10221e-005
4.10222e-005
4.10222e-005
4.10223e-005
4.10225e-005
4.10226e-005
4.10226e-005
4.10227e-005
4.10227e-005
4.10225e-005
4.10224e-005
4.10222e-005
4.1022e-005
4.10224e-005
4.10225e-005
4.10226e-005
4.10225e-005
4.10228e-005
4.10238e-005
4.10244e-005
4.10281e-005
4.10263e-005
4.10325e-005
4.10289e-005
4.1036e-005
4.10362e-005
4.10679e-005
4.46919e-005
3.38084e-006
3.37978e-006
3.37909e-006
3.37885e-006
3.37963e-006
3.38194e-006
3.38374e-006
3.38309e-006
3.38036e-006
3.37893e-006
3.38099e-006
3.3834e-006
3.38348e-006
3.38195e-006
3.38221e-006
3.38267e-006
3.38159e-006
3.3807e-006
3.38065e-006
3.3845e-006
3.38632e-006
3.38622e-006
3.3827e-006
3.38048e-006
3.38172e-006
3.38378e-006
3.38396e-006
3.38515e-006
3.3872e-006
3.3879e-006
3.38485e-006
3.38161e-006
3.38095e-006
3.38421e-006
3.38518e-006
3.38522e-006
3.38528e-006
3.38535e-006
3.38541e-006
3.3855e-006
3.3856e-006
3.38569e-006
3.38581e-006
3.38593e-006
3.38606e-006
3.38617e-006
3.38627e-006
3.3864e-006
3.38667e-006
3.38688e-006
3.3869e-006
3.38682e-006
3.38688e-006
3.38705e-006
3.38722e-006
3.38736e-006
3.38753e-006
3.38766e-006
3.38781e-006
3.38793e-006
3.38807e-006
3.38821e-006
3.38831e-006
3.38847e-006
3.38857e-006
3.38873e-006
3.38881e-006
3.38898e-006
3.38902e-006
3.38918e-006
3.38933e-006
3.38932e-006
3.38956e-006
3.38957e-006
3.38976e-006
3.38977e-006
3.39005e-006
3.39017e-006
3.39017e-006
3.39065e-006
3.39055e-006
3.3908e-006
3.39065e-006
3.39021e-006
3.39035e-006
3.39057e-006
3.39078e-006
3.39022e-006
3.39081e-006
3.39143e-006
3.39135e-006
3.39118e-006
3.39129e-006
3.39144e-006
3.39164e-006
3.39162e-006
3.39165e-006
3.39155e-006
3.39158e-006
3.39164e-006
3.39164e-006
3.39167e-006
3.39165e-006
3.39166e-006
3.39167e-006
3.39163e-006
3.39164e-006
3.3916e-006
3.39163e-006
3.39157e-006
3.39161e-006
3.39155e-006
3.39158e-006
3.39148e-006
3.39152e-006
3.39138e-006
3.3914e-006
3.39123e-006
3.39119e-006
3.39102e-006
3.39085e-006
3.39067e-006
3.39049e-006
3.39033e-006
3.39029e-006
3.39025e-006
3.3902e-006
3.38998e-006
3.39011e-006
3.38997e-006
3.38967e-006
3.39039e-006
3.39056e-006
3.39102e-006
3.38943e-006
3.4063e-006
3.35743e-006
3.08127e-006
5.21922e-006
5.32788e-007
5.32753e-007
5.32704e-007
5.3281e-007
5.33214e-007
5.33511e-007
5.33339e-007
5.32913e-007
5.32823e-007
5.33186e-007
5.33762e-007
5.33702e-007
5.33294e-007
5.33212e-007
5.33659e-007
5.33832e-007
5.33634e-007
5.33262e-007
5.33473e-007
5.34147e-007
5.34224e-007
5.33888e-007
5.33339e-007
5.33303e-007
5.33869e-007
5.34198e-007
5.34213e-007
5.34455e-007
5.34716e-007
5.34495e-007
5.33923e-007
5.33634e-007
5.33897e-007
5.34483e-007
5.34564e-007
5.34603e-007
5.34654e-007
5.34703e-007
5.34751e-007
5.34803e-007
5.34854e-007
5.34906e-007
5.34963e-007
5.35022e-007
5.3508e-007
5.3513e-007
5.35183e-007
5.35234e-007
5.35261e-007
5.35268e-007
5.35315e-007
5.35409e-007
5.35494e-007
5.35543e-007
5.35592e-007
5.3564e-007
5.35697e-007
5.35744e-007
5.35799e-007
5.35846e-007
5.35897e-007
5.35951e-007
5.35993e-007
5.36051e-007
5.36093e-007
5.36149e-007
5.36186e-007
5.3625e-007
5.36278e-007
5.36334e-007
5.3639e-007
5.36411e-007
5.365e-007
5.36524e-007
5.36557e-007
5.36615e-007
5.3667e-007
5.36741e-007
5.36826e-007
5.36888e-007
5.36922e-007
5.37016e-007
5.37023e-007
5.36972e-007
5.36985e-007
5.37037e-007
5.37023e-007
5.36907e-007
5.36995e-007
5.37004e-007
5.3698e-007
5.36983e-007
5.37006e-007
5.37038e-007
5.37045e-007
5.37063e-007
5.37085e-007
5.37166e-007
5.37188e-007
5.37248e-007
5.37253e-007
5.37275e-007
5.37265e-007
5.37281e-007
5.37289e-007
5.37277e-007
5.37288e-007
5.37266e-007
5.37283e-007
5.37249e-007
5.37272e-007
5.37232e-007
5.37247e-007
5.37195e-007
5.37215e-007
5.37155e-007
5.37164e-007
5.37101e-007
5.37076e-007
5.37022e-007
5.36955e-007
5.36867e-007
5.368e-007
5.36718e-007
5.36653e-007
5.36554e-007
5.36486e-007
5.36393e-007
5.36324e-007
5.36308e-007
5.36187e-007
5.36366e-007
5.35237e-007
5.41933e-007
5.41456e-007
4.48773e-007
7.24004e-007
6.66504e-005
0.00868249
1.46089e-007
1.46095e-007
1.46116e-007
1.46198e-007
1.46284e-007
1.46265e-007
1.46182e-007
1.46182e-007
1.4631e-007
1.4644e-007
1.46467e-007
1.46365e-007
1.46306e-007
1.46442e-007
1.46603e-007
1.46605e-007
1.46487e-007
1.46387e-007
1.46458e-007
1.46588e-007
1.46565e-007
1.46451e-007
1.46392e-007
1.46458e-007
1.46627e-007
1.46705e-007
1.46746e-007
1.46817e-007
1.46826e-007
1.46731e-007
1.46649e-007
1.46654e-007
1.46785e-007
1.46921e-007
1.46949e-007
1.46977e-007
1.47008e-007
1.47033e-007
1.47057e-007
1.47083e-007
1.4711e-007
1.47137e-007
1.47168e-007
1.47199e-007
1.47229e-007
1.47255e-007
1.47276e-007
1.47298e-007
1.47325e-007
1.47367e-007
1.47403e-007
1.47425e-007
1.47432e-007
1.47455e-007
1.47487e-007
1.47516e-007
1.47545e-007
1.47571e-007
1.47599e-007
1.47624e-007
1.4765e-007
1.47677e-007
1.477e-007
1.47728e-007
1.4775e-007
1.47777e-007
1.47798e-007
1.47828e-007
1.47844e-007
1.47874e-007
1.47897e-007
1.47915e-007
1.47955e-007
1.47965e-007
1.4799e-007
1.48007e-007
1.48015e-007
1.48034e-007
1.48064e-007
1.4808e-007
1.48107e-007
1.48134e-007
1.48143e-007
1.48138e-007
1.4815e-007
1.48158e-007
1.48159e-007
1.48159e-007
1.48178e-007
1.48209e-007
1.48238e-007
1.48247e-007
1.48241e-007
1.48239e-007
1.48262e-007
1.48283e-007
1.48301e-007
1.48315e-007
1.48322e-007
1.48322e-007
1.48328e-007
1.48332e-007
1.48337e-007
1.48344e-007
1.48336e-007
1.48343e-007
1.48334e-007
1.48337e-007
1.48327e-007
1.48331e-007
1.48315e-007
1.4831e-007
1.48292e-007
1.4828e-007
1.48257e-007
1.48242e-007
1.48223e-007
1.48204e-007
1.48181e-007
1.48155e-007
1.48129e-007
1.48098e-007
1.48063e-007
1.4803e-007
1.4801e-007
1.48021e-007
1.47977e-007
1.47776e-007
1.47836e-007
1.47946e-007
1.47735e-007
1.47107e-007
1.51882e-007
1.33084e-007
1.28753e-007
5.73598e-007
5.20303e-005
0.00517604
0.0981145
6.06316e-008
6.06279e-008
6.06404e-008
6.06759e-008
6.06901e-008
6.06758e-008
6.06732e-008
6.0722e-008
6.07867e-008
6.07952e-008
6.07584e-008
6.0733e-008
6.07671e-008
6.08654e-008
6.09095e-008
6.08762e-008
6.07977e-008
6.0791e-008
6.0831e-008
6.08723e-008
6.08618e-008
6.08245e-008
6.0832e-008
6.08839e-008
6.09479e-008
6.09839e-008
6.10085e-008
6.10268e-008
6.10163e-008
6.09858e-008
6.09837e-008
6.1011e-008
6.10766e-008
6.11109e-008
6.11308e-008
6.11509e-008
6.11693e-008
6.11851e-008
6.12011e-008
6.12176e-008
6.12345e-008
6.12524e-008
6.12717e-008
6.12904e-008
6.13074e-008
6.13245e-008
6.13426e-008
6.13597e-008
6.13812e-008
6.13956e-008
6.14019e-008
6.14142e-008
6.14377e-008
6.14639e-008
6.14806e-008
6.14951e-008
6.15118e-008
6.15275e-008
6.15446e-008
6.15603e-008
6.1577e-008
6.15928e-008
6.16086e-008
6.16244e-008
6.16399e-008
6.16551e-008
6.16699e-008
6.16857e-008
6.16966e-008
6.17151e-008
6.17239e-008
6.17419e-008
6.17556e-008
6.17687e-008
6.17807e-008
6.17968e-008
6.18023e-008
6.18157e-008
6.18362e-008
6.18411e-008
6.18566e-008
6.18676e-008
6.18798e-008
6.18879e-008
6.19033e-008
6.19048e-008
6.18968e-008
6.18962e-008
6.19066e-008
6.19216e-008
6.1936e-008
6.1936e-008
6.19429e-008
6.19592e-008
6.19714e-008
6.19798e-008
6.19822e-008
6.19833e-008
6.19852e-008
6.19968e-008
6.19966e-008
6.20024e-008
6.20021e-008
6.20053e-008
6.20099e-008
6.20103e-008
6.20156e-008
6.20089e-008
6.20087e-008
6.20016e-008
6.20013e-008
6.19907e-008
6.19862e-008
6.1972e-008
6.19677e-008
6.19537e-008
6.1948e-008
6.19343e-008
6.19243e-008
6.19109e-008
6.18976e-008
6.18769e-008
6.1862e-008
6.18351e-008
6.1785e-008
6.16923e-008
6.16924e-008
6.18834e-008
6.16117e-008
6.157e-008
6.15779e-008
6.29595e-008
5.24898e-008
8.21607e-008
1.21918e-006
9.15269e-005
0.00473315
0.0713703
0.38412
3.31503e-008
3.31653e-008
3.31827e-008
3.3192e-008
3.31924e-008
3.31931e-008
3.32047e-008
3.32308e-008
3.32502e-008
3.32518e-008
3.32452e-008
3.3248e-008
3.32717e-008
3.33075e-008
3.3317e-008
3.33029e-008
3.32847e-008
3.32887e-008
3.33002e-008
3.33161e-008
3.33251e-008
3.33323e-008
3.33473e-008
3.33643e-008
3.3379e-008
3.33998e-008
3.34225e-008
3.34394e-008
3.34401e-008
3.34379e-008
3.34415e-008
3.34536e-008
3.34789e-008
3.34996e-008
3.3524e-008
3.35392e-008
3.35524e-008
3.35644e-008
3.35757e-008
3.35874e-008
3.35998e-008
3.3613e-008
3.36264e-008
3.36405e-008
3.36548e-008
3.36697e-008
3.36836e-008
3.36887e-008
3.36931e-008
3.37017e-008
3.3718e-008
3.37379e-008
3.37529e-008
3.37617e-008
3.37712e-008
3.37853e-008
3.37983e-008
3.38111e-008
3.3823e-008
3.38352e-008
3.38467e-008
3.38587e-008
3.387e-008
3.38819e-008
3.38928e-008
3.39041e-008
3.39158e-008
3.39257e-008
3.39361e-008
3.39475e-008
3.39541e-008
3.39678e-008
3.39747e-008
3.3985e-008
3.39916e-008
3.40018e-008
3.4005e-008
3.40107e-008
3.40241e-008
3.40252e-008
3.40302e-008
3.40394e-008
3.40506e-008
3.40615e-008
3.40746e-008
3.40774e-008
3.40733e-008
3.40749e-008
3.40827e-008
3.40908e-008
3.41011e-008
3.41103e-008
3.41205e-008
3.41291e-008
3.41327e-008
3.41331e-008
3.41334e-008
3.41367e-008
3.41395e-008
3.41463e-008
3.4148e-008
3.41517e-008
3.41526e-008
3.41526e-008
3.41551e-008
3.41539e-008
3.4157e-008
3.4154e-008
3.41553e-008
3.41497e-008
3.41498e-008
3.41421e-008
3.41418e-008
3.41315e-008
3.41309e-008
3.41216e-008
3.41197e-008
3.41099e-008