/*--------------------------------*- C++ -*----------------------------------*\
| =========                 |                                                 |
| \\      /  F ield         | OpenFOAM: The Open Source CFD Toolbox           |
|  \\    /   O peration     | Version:  5.x                                   |
|   \\  /    A nd           | Web:      www.OpenFOAM.org                      |
|    \\/     M anipulation  |                                                 |
\*---------------------------------------------------------------------------*/
/*   Windows 32 and 64 bit porting by blueCAPE: http://www.bluecape.com.pt   *\
|  Based on Windows porting (2.0.x v4) by Symscape: http://www.symscape.com   |
\*---------------------------------------------------------------------------*/
FoamFile
{
    version     2.0;
    format      ascii;
    class       volScalarField;
    location    "390";
    object      nut;
}
// * * * * * * * * * * * * * * * * * * * * * * * * * * * * * * * * * * * * * //

dimensions      [0 2 -1 0 0 0 0];

internalField   nonuniform List<scalar> 
43900
(
5.71601e-005
5.80006e-005
5.80694e-005
5.80642e-005
5.80595e-005
5.80585e-005
5.80588e-005
5.80589e-005
5.8059e-005
5.80592e-005
5.80593e-005
5.80594e-005
5.80594e-005
5.80596e-005
5.80597e-005
5.80597e-005
5.80598e-005
5.80598e-005
5.80598e-005
5.806e-005
5.806e-005
5.80599e-005
5.806e-005
5.80604e-005
5.80607e-005
5.80604e-005
5.80596e-005
5.80594e-005
5.806e-005
0.000591877
7.39737e-006
4.30787e-006
4.16112e-006
4.57961e-006
4.60583e-006
4.60887e-006
4.60367e-006
4.60366e-006
4.60424e-006
4.60443e-006
4.60489e-006
4.60491e-006
4.60521e-006
4.60559e-006
4.60582e-006
4.60596e-006
4.60582e-006
4.60608e-006
4.60659e-006
4.60656e-006
4.60648e-006
4.60671e-006
4.60746e-006
4.60795e-006
4.60711e-006
4.60582e-006
4.60566e-006
4.60704e-006
0.153501
0.0456488
0.0052322
0.000108874
1.317e-006
6.445e-007
6.01811e-007
7.14034e-007
7.25057e-007
7.23393e-007
7.21728e-007
7.21773e-007
7.22156e-007
7.22349e-007
7.22513e-007
7.22752e-007
7.22829e-007
7.22789e-007
7.22969e-007
7.23185e-007
7.23283e-007
7.23451e-007
7.23624e-007
7.23681e-007
7.23541e-007
7.23305e-007
7.23411e-007
7.23747e-007
7.24115e-007
0.476166
0.292041
0.134202
0.0387864
0.00467275
0.000181687
4.26502e-006
2.57352e-007
1.74271e-007
1.9351e-007
2.13793e-007
2.1558e-007
2.12622e-007
2.11745e-007
2.12243e-007
2.12468e-007
2.12349e-007
2.12354e-007
2.12477e-007
2.12532e-007
2.12583e-007
2.12647e-007
2.12686e-007
2.12697e-007
2.12709e-007
2.12726e-007
2.12809e-007
2.12881e-007
2.12902e-007
0.756911
0.581594
0.41416
0.249181
0.107005
0.0268281
0.00273225
0.000132982
3.14259e-006
2.16575e-007
9.07028e-008
8.34393e-008
1.02234e-007
1.06208e-007
1.03318e-007
1.02792e-007
1.03706e-007
1.03757e-007
1.03475e-007
1.03537e-007
1.03608e-007
1.03573e-007
1.03565e-007
1.0359e-007
1.03601e-007
1.03617e-007
1.03649e-007
1.03677e-007
1.03676e-007
0.967423
0.799407
0.643159
0.491435
0.339576
0.188919
0.0689263
0.012682
0.000963574
4.84093e-005
1.46311e-006
1.5662e-007
6.39461e-008
6.06529e-008
7.2093e-008
7.24763e-008
6.896e-008
6.93802e-008
7.06115e-008
7.0307e-008
7.02043e-008
7.04151e-008
7.05158e-008
7.05494e-008
7.05696e-008
7.05693e-008
7.05576e-008
7.05673e-008
7.06032e-008
1.12498
0.962685
0.814406
0.673882
0.536109
0.397133
0.254297
0.113098
0.0293312
0.00327706
0.000202325
1.06941e-005
4.05107e-007
8.41612e-008
4.9699e-008
5.32234e-008
6.25507e-008
5.9406e-008
5.70174e-008
5.82469e-008
5.83546e-008
5.77898e-008
5.77566e-008
5.77745e-008
5.77306e-008
5.77492e-008
5.78282e-008
5.78392e-008
5.78387e-008
1.24477
1.08691
0.94427
0.811283
0.683318
0.556587
0.428378
0.298416
0.162822
0.0535759
0.0084052
0.000634833
3.87858e-005
2.13501e-006
1.37253e-007
5.65246e-008
4.29736e-008
5.08624e-008
5.3437e-008
5.04073e-008
5.08629e-008
5.20554e-008
5.18681e-008
5.18807e-008
5.20879e-008
5.20815e-008
5.20146e-008
5.20014e-008
5.19919e-008
1.33648
1.18277
1.04486
0.917718
0.797117
0.679542
0.562163
0.44287
0.319783
0.192929
0.0726165
0.0139605
0.00125778
8.57966e-005
5.58213e-006
3.36985e-007
7.37886e-008
4.76308e-008
4.59888e-008
5.23076e-008
4.9729e-008
4.83571e-008
4.89392e-008
4.87892e-008
4.83728e-008
4.85029e-008
4.87678e-008
4.88024e-008
4.88715e-008
1.40185
1.25357
1.12067
0.999219
0.885276
0.775513
0.667148
0.557915
0.446027
0.330356
0.211112
0.0859293
0.0186536
0.00192443
0.000145026
1.05256e-005
7.4899e-007
8.47113e-008
5.077e-008
4.11794e-008
4.69094e-008
4.7788e-008
4.65354e-008
4.71828e-008
4.75989e-008
4.71363e-008
4.6791e-008
4.6813e-008
4.67967e-008
1.44565
1.30034
1.17252
1.05635
0.948484
0.845746
0.745431
0.64528
0.543474
0.438677
0.330169
0.218349
0.0927686
0.0215343
0.00244786
0.000202656
1.62126e-005
1.27909e-006
1.27667e-007
5.8198e-008
4.27371e-008
4.39831e-008
4.69591e-008
4.51083e-008
4.50494e-008
4.59556e-008
4.60459e-008
4.58449e-008
4.58922e-008
1.48418
1.34191
1.21666
1.10403
1.0002
0.90237
0.80796
0.714762
0.620942
0.52506
0.426113
0.323639
0.218159
0.0970642
0.0234724
0.00288287
0.000261459
2.29159e-005
2.0084e-006
2.03073e-007
5.87843e-008
4.5229e-008
4.28745e-008
4.62868e-008
4.57719e-008
4.44318e-008
4.48698e-008
4.52262e-008
4.48733e-008
1.51158
1.37286
1.25044
1.14152
1.04157
0.948043
0.858597
0.771132
0.683866
0.595341
0.504437
0.410392
0.312826
0.21169
0.0966218
0.0237935
0.00310595
0.000308018
2.95652e-005
2.85599e-006
2.95587e-007
6.44108e-008
4.81909e-008
4.08424e-008
4.38263e-008
4.46368e-008
4.39189e-008
4.40793e-008
4.48274e-008
1.53007
1.39553
1.27643
1.16998
1.0742
0.984631
0.899598
0.817106
0.735441
0.653165
0.56912
0.482429
0.392487
0.298909
0.201428
0.0899968
0.0220043
0.00301176
0.000326863
3.44911e-005
3.66239e-006
4.05034e-007
7.89507e-008
5.09736e-008
4.18828e-008
4.20173e-008
4.38442e-008
4.31005e-008
4.27709e-008
1.54147
1.41059
1.29579
1.19255
1.09916
1.01407
0.93307
0.855018
0.778276
0.701445
0.623371
0.543138
0.460058
0.37365
0.283618
0.190039
0.0799378
0.0191088
0.0027349
0.000325288
3.77998e-005
4.41304e-006
5.34846e-007
9.83128e-008
5.05662e-008
4.35418e-008
4.20318e-008
4.38769e-008
4.35756e-008
1.54723
1.42008
1.30872
1.20982
1.11946
1.03681
0.960226
0.886285
0.814011
0.742052
0.669276
0.594762
0.517793
0.43784
0.354553
0.267798
0.178019
0.0716963
0.016726
0.00250163
0.000323163
4.09831e-005
5.22019e-006
6.89083e-007
1.20109e-007
5.15161e-008
4.49352e-008
4.12156e-008
4.27534e-008
1.54844
1.42509
1.31722
1.22162
1.1356
1.05567
0.981822
0.912033
0.843881
0.776386
0.708436
0.639113
0.567684
0.493591
0.416433
0.335964
0.252085
0.164567
0.0637189
0.0146492
0.0023047
0.00032286
4.45473e-005
6.17274e-006
8.78873e-007
1.50425e-007
5.67795e-008
4.76779e-008
4.17569e-008
1.54596
1.42647
1.32213
1.22984
1.14704
1.07149
1.0004
0.93374
0.869216
0.805643
0.74196
0.677259
0.610802
0.542007
0.470433
0.395768
0.317796
0.236298
0.150807
0.0563239
0.0129206
0.00215614
0.000327935
4.91781e-005
7.39113e-006
1.1315e-006
1.9717e-007
6.65186e-008
4.76434e-008
1.54046
1.42491
1.32413
1.23517
1.15557
1.08318
1.01593
0.952296
0.891771
0.831816
0.771988
0.711419
0.649389
0.585317
0.518748
0.449339
0.376833
0.301012
0.221583
0.137809
0.0499083
0.0115583
0.00205273
0.000337841
5.48185e-005
8.89574e-006
1.46069e-006
2.65525e-007
7.7339e-008
1.53246
1.42091
1.32373
1.23811
1.16164
1.09229
1.02827
0.967443
0.909481
0.853372
0.797373
0.740829
0.68304
0.623436
0.56156
0.497059
0.429659
0.359144
0.285295
0.207764
0.125664
0.0444645
0.0104988
0.00198718
0.000352875
6.18248e-005
1.08209e-005
1.91431e-006
3.56528e-007
1.52243
1.41493
1.3214
1.23912
1.16582
1.09955
1.03861
0.981575
0.926634
0.873558
0.820806
0.767753
0.713708
0.658101
0.600468
0.540442
0.477734
0.412117
0.343394
0.271343
0.195573
0.115028
0.0401166
0.00975533
0.00197045
0.000376492
7.0945e-005
1.33459e-005
2.48e-006
1.51073
1.40733
1.31747
1.23855
1.16836
1.10504
1.04695
0.992643
0.940606
0.890246
0.840955
0.791343
0.740909
0.689104
0.635478
0.579661
0.521363
0.460349
0.396428
0.329419
0.259094
0.185013
0.106036
0.0368204
0.00928341
0.00199948
0.000409819
8.27968e-005
1.63186e-005
1.49767
1.39841
1.31226
1.2367
1.16964
1.10929
1.0541
1.00274
0.954074
0.906729
0.860254
0.813635
0.766385
0.717967
0.667937
0.615929
0.561644
0.504844
0.445333
0.382943
0.317503
0.248782
0.176343
0.0981552
0.0342558
0.00900835
0.00206659
0.000453208
9.56786e-005
1.48353
1.38845
1.30602
1.23383
1.16987
1.11241
1.05997
1.01124
0.96504
0.920209
0.8764
0.832954
0.788967
0.743932
0.697426
0.649094
0.598647
0.545847
0.4905
0.432444
0.37153
0.307602
0.240449
0.169972
0.0907892
0.0321442
0.00884884
0.0021606
0.00049374
1.46853
1.37765
1.29896
1.23014
1.16927
1.1147
1.065
1.01895
0.975477
0.933713
0.892659
0.851997
0.810675
0.768515
0.725091
0.680045
0.633081
0.583951
0.532454
0.47842
0.421705
0.362173
0.299685
0.234121
0.165924
0.0853245
0.0307115
0.00884162
0.00223376
1.45285
1.3662
1.29127
1.22582
1.16803
1.11631
1.06933
1.02589
0.985002
0.945805
0.907317
0.869041
0.830597
0.79136
0.750949
0.709037
0.665345
0.619639
0.571719
0.521418
0.468593
0.413115
0.354869
0.293753
0.229818
0.163516
0.0817234
0.0299988
0.00880578
1.43665
1.35424
1.28307
1.22099
1.16627
1.11738
1.07304
1.0321
0.993602
0.956663
0.920485
0.884783
0.849006
0.812544
0.775016
0.736104
0.695536
0.653082
0.608545
0.56176
0.512584
0.460892
0.406576
0.349543
0.289753
0.227298
0.162554
0.0800548
0.0294097
1.42003
1.34187
1.27447
1.21577
1.1641
1.11803
1.07631
1.03788
1.00182
0.967348
0.933838
0.900542
0.867239
0.833158
0.798171
0.761955
0.724235
0.684775
0.643375
0.599863
0.554091
0.505932
0.455275
0.402025
0.346117
0.287535
0.226374
0.163208
0.0786494
1.40307
1.32917
1.26555
1.21022
1.16161
1.11833
1.07922
1.04326
1.00958
0.977459
0.946263
0.915282
0.884167
0.852621
0.8202
0.786617
0.751624
0.714998
0.676548
0.636104
0.593517
0.548658
0.501413
0.451686
0.399396
0.344494
0.286994
0.226898
0.163924
1.3858
1.31617
1.25633
1.20438
1.15882
1.11833
1.08181
1.04829
1.01694
0.987054
0.958028
0.929305
0.900453
0.871284
0.841313
0.810259
0.77788
0.74396
0.708313
0.670772
0.631189
0.589434
0.545389
0.498955
0.450045
0.398593
0.344565
0.287936
0.228824
1.36825
1.30288
1.24682
1.19825
1.15574
1.11804
1.0841
1.05299
1.02394
0.996277
0.969409
0.942813
0.916326
0.889413
0.861771
0.833125
0.803237
0.771897
0.738918
0.704135
0.667399
0.628577
0.58755
0.544211
0.49847
0.450249
0.399491
0.346157
0.290137
1.35038
1.28926
1.23699
1.19181
1.15234
1.11743
1.08607
1.05739
1.03066
1.00526
0.980656
0.956437
0.932088
0.907469
0.881974
0.855573
0.828027
0.799123
0.768671
0.736502
0.702463
0.666417
0.62824
0.587819
0.545057
0.499867
0.452178
0.401928
0.349007
1.33214
1.27527
1.22678
1.18497
1.14857
1.11646
1.08769
1.06145
1.03704
1.01389
0.991491
0.969444
0.947239
0.924647
0.901487
0.877415
0.852225
0.825723
0.797732
0.768088
0.736638
0.703245
0.667779
0.630125
0.590177
0.547841
0.503035
0.455683
0.405696
1.31346
1.26081
1.21609
1.17767
1.14433
1.11503
1.08887
1.06508
1.04301
1.0221
1.00189
0.981968
0.96195
0.941522
0.920609
0.898826
0.875964
0.851834
0.826262
0.799085
0.770152
0.739322
0.706463
0.671455
0.634184
0.594551
0.552463
0.507837
0.460591
1.29424
1.24579
1.20483
1.16979
1.13952
1.11305
1.08951
1.0682
1.04849
1.02986
1.01187
0.994105
0.976207
0.958136
0.939462
0.919952
0.899404
0.877627
0.854449
0.829705
0.803243
0.774917
0.74459
0.712136
0.677435
0.640379
0.600868
0.55881
0.514125
1.27439
1.2301
1.19288
1.16121
1.13402
1.11038
1.0895
1.0707
1.0534
1.03711
1.02141
1.00596
0.990444
0.974611
0.958286
0.940993
0.922726
0.903288
0.882493
0.860172
0.836163
0.810312
0.782476
0.752518
0.720309
0.685732
0.648679
0.609051
0.566762
1.25384
1.21367
1.18015
1.15184
1.12773
1.10694
1.08874
1.07248
1.05763
1.04373
1.0304
1.01731
1.0042
0.990617
0.976507
0.961637
0.945797
0.9288
0.910469
0.890631
0.86912
0.845775
0.82044
0.792967
0.763218
0.731062
0.69638
0.659065
0.619025
1.23258
1.19645
1.1666
1.14163
1.12058
1.10265
1.08715
1.07347
1.06111
1.04964
1.03871
1.02798
1.01718
1.00602
0.994265
0.981941
0.968648
0.954212
0.938457
0.92121
0.902298
0.881547
0.85879
0.833861
0.806603
0.776868
0.744522
0.709444
0.671531
1.21069
1.17853
1.15229
1.13061
1.11262
1.09755
1.08475
1.07367
1.06383
1.05484
1.04635
1.03805
1.02966
1.02087
1.01183
1.00207
0.991373
0.979579
0.96651
0.951982
0.935809
0.917801
0.897767
0.875518
0.850869
0.823645
0.793683
0.760839
0.724994
1.1884
1.16011
1.13742
1.119
1.10404
1.09181
1.08173
1.07325
1.06596
1.05946
1.05344
1.04763
1.04178
1.03572
1.02913
1.02206
1.0139
1.00479
0.994507
0.982835
0.969569
0.954496
0.937397
0.918049
0.896229
0.871719
0.844312
0.813823
0.780098
1.16614
1.14162
1.12241
1.1072
1.09523
1.08584
1.07845
1.07258
1.0678
1.06377
1.06019
1.05681
1.05343
1.04986
1.04573
1.041
1.03568
1.0294
1.02202
1.01333
1.00313
0.991197
0.977279
0.961118
0.94244
0.92097
0.896435
0.868584
0.837202
1.14459
1.12371
1.10789
1.09584
1.08684
1.08026
1.07553
1.07219
1.06986
1.06819
1.06692
1.06581
1.06466
1.0633
1.06151
1.05923
1.05643
1.05283
1.04826
1.04255
1.03549
1.02683
1.01632
1.00364
0.988472
0.970464
0.949257
0.924503
0.895889
1.12463
1.10726
1.09475
1.08581
1.07972
1.07587
1.07371
1.07278
1.0727
1.07314
1.07387
1.07467
1.07538
1.07586
1.076
1.07572
1.075
1.07373
1.07171
1.06879
1.06477
1.0594
1.05241
1.04347
1.03218
1.0181
1.00079
0.979751
0.954536
1.10733
1.09331
1.08401
1.07808
1.0748
1.07354
1.07374
1.07492
1.0767
1.07878
1.08092
1.08297
1.08481
1.08638
1.08765
1.08849
1.08924
1.08979
1.08984
1.08929
1.08799
1.08574
1.08226
1.07719
1.07009
1.06043
1.04763
1.03106
1.01007
1.09378
1.08293
1.07667
1.07357
1.07289
1.07392
1.07607
1.07882
1.08178
1.08465
1.08725
1.08947
1.0913
1.09277
1.09392
1.09492
1.09643
1.09782
1.09907
1.10018
1.10106
1.10154
1.10138
1.10019
1.09749
1.09267
1.08507
1.07383
1.05804
1.0849
1.07695
1.07347
1.07291
1.07443
1.07722
1.08061
1.08404
1.08708
1.08948
1.09111
1.09199
1.09219
1.09198
1.09199
1.09247
1.09294
1.0937
1.09497
1.09678
1.09904
1.10168
1.10447
1.10703
1.10882
1.10915
1.10745
1.10252
1.09305
1.08116
1.0758
1.0747
1.07618
1.07924
1.08295
1.08653
1.08934
1.09096
1.09118
1.09002
1.08765
1.0849
1.082
1.07895
1.07636
1.07411
1.07284
1.07291
1.07432
1.077
1.08102
1.08625
1.09226
1.09846
1.10385
1.1089
1.11134
1.1092
1.08249
1.07927
1.07999
1.08278
1.08648
1.08997
1.09234
1.09291
1.0913
1.08733
1.08171
1.07496
1.06689
1.0584
1.05015
1.04271
1.03636
1.03186
1.02948
1.02911
1.0313
1.03583
1.0426
1.05135
1.06167
1.07315
1.08451
1.09308
1.10029
1.08814
1.08653
1.08834
1.09156
1.09478
1.09671
1.09631
1.09285
1.08617
1.07678
1.06471
1.05051
1.03503
1.01938
1.00444
0.990909
0.979321
0.970291
0.963982
0.960815
0.961111
0.964789
0.971862
0.982221
0.99561
1.01173
1.03024
1.04764
1.06133
1.09683
1.09627
1.0984
1.10106
1.10264
1.10163
1.097
1.08806
1.07523
1.05789
1.03732
1.01463
0.990993
0.967386
0.944865
0.924312
0.906376
0.891602
0.880319
0.872924
0.869738
0.870851
0.876404
0.886456
0.90096
0.919929
0.943566
0.969345
0.992929
1.1071
1.10702
1.10872
1.10993
1.10884
1.10371
1.09397
1.07836
1.05748
1.03178
1.00264
0.971312
0.939191
0.907499
0.877332
0.849573
0.824893
0.803803
0.786666
0.773824
0.765579
0.762169
0.763862
0.770869
0.783353
0.801809
0.827269
0.857786
0.891374
1.11754
1.11747
1.11814
1.1172
1.11274
1.10297
1.08707
1.06435
1.03565
1.00189
0.964608
0.925367
0.885679
0.846845
0.809931
0.775746
0.744879
0.717742
0.694629
0.675791
0.661471
0.651932
0.647505
0.648414
0.654854
0.667861
0.689421
0.718236
0.757014
1.12709
1.1267
1.12595
1.12254
1.11431
1.09969
1.0777
1.04837
1.01264
0.971905
0.927905
0.882378
0.836887
0.792702
0.750787
0.71182
0.676241
0.644316
0.616201
0.592004
0.571834
0.55585
0.544296
0.53708
0.534359
0.537983
0.549562
0.569042
0.602125
1.13515
1.13423
1.13198
1.12599
1.11418
1.09493
1.06768
1.03277
0.991458
0.945454
0.896687
0.846973
0.797846
0.750484
0.705714
0.664059
0.625805
0.591068
0.559858
0.532133
0.507839
0.486957
0.469511
0.455577
0.444608
0.438061
0.436883
0.441725
0.460581
1.14149
1.14001
1.13633
1.12799
1.11305
1.09006
1.0587
1.01967
0.974513
0.925174
0.873685
0.821862
0.771167
0.722659
0.67703
0.63467
0.595742
0.560256
0.528121
0.499194
0.473309
0.450315
0.430031
0.412787
0.397524
0.384872
0.374255
0.36317
0.366086
1.14615
1.14418
1.13932
1.1292
1.11189
1.08623
1.05212
1.01056
0.963286
0.912398
0.859951
0.807717
0.757061
0.708931
0.66391
0.622296
0.58418
0.549515
0.518172
0.489976
0.464729
0.442247
0.42228
0.404908
0.38966
0.377661
0.365337
0.34974
0.337482
1.14934
1.14704
1.14142
1.13014
1.11143
1.08427
1.04879
1.00616
0.958274
0.907258
0.855156
0.803669
0.754076
0.707239
0.663672
0.623621
0.587148
0.554195
0.524637
0.498314
0.475052
0.454708
0.437065
0.422255
0.409409
0.401411
0.392093
0.387952
0.358657
1.15133
1.14889
1.14299
1.13129
1.11215
1.08465
1.04904
1.00659
0.95922
0.909068
0.858126
0.808035
0.760014
0.714878
0.673107
0.634935
0.600426
0.569538
0.542173
0.51821
0.497527
0.480046
0.465636
0.454562
0.445983
0.443353
0.438985
0.447057
0.401858
1.1524
1.15002
1.14437
1.133
1.11436
1.08756
1.05286
1.01153
0.965469
0.916783
0.867421
0.818991
0.772691
0.729327
0.689384
0.653113
0.620599
0.591833
0.566754
0.545289
0.527374
0.513006
0.502163
0.495241
0.491621
0.495112
0.497722
0.513986
0.468665
5.80607e-005
5.80607e-005
5.80601e-005
5.80598e-005
5.80596e-005
5.80597e-005
5.80603e-005
5.80611e-005
5.80613e-005
5.80605e-005
5.80599e-005
5.80602e-005
5.80607e-005
5.80609e-005
5.80612e-005
5.80617e-005
5.80614e-005
5.80607e-005
5.806e-005
5.80608e-005
5.80618e-005
5.80625e-005
5.80612e-005
5.80601e-005
5.80598e-005
5.80609e-005
5.8061e-005
5.80611e-005
5.80616e-005
5.80625e-005
5.80619e-005
5.80603e-005
5.80592e-005
5.80598e-005
5.80607e-005
5.80608e-005
5.80608e-005
5.80608e-005
5.80608e-005
5.80608e-005
5.80608e-005
5.80608e-005
5.80608e-005
5.80609e-005
5.80609e-005
5.80609e-005
5.80609e-005
5.80609e-005
5.80608e-005
5.80609e-005
5.80609e-005
5.8061e-005
5.8061e-005
5.80611e-005
5.80611e-005
5.80611e-005
5.80611e-005
5.80611e-005
5.80611e-005
5.80611e-005
5.80612e-005
5.80612e-005
5.80612e-005
5.80612e-005
5.80612e-005
5.80613e-005
5.80613e-005
5.80613e-005
5.80613e-005
5.80613e-005
5.80613e-005
5.80614e-005
5.80614e-005
5.80614e-005
5.80614e-005
5.80614e-005
5.80614e-005
5.80614e-005
5.80615e-005
5.80617e-005
5.80617e-005
5.80616e-005
5.80617e-005
5.80614e-005
5.80617e-005
5.80617e-005
5.8062e-005
5.80617e-005
5.80615e-005
5.80615e-005
5.80617e-005
5.80617e-005
5.80616e-005
5.80616e-005
5.80617e-005
5.80619e-005
5.80619e-005
5.80619e-005
5.80619e-005
5.80619e-005
5.80619e-005
5.80619e-005
5.80619e-005
5.80619e-005
5.80619e-005
5.80619e-005
5.80619e-005
5.80619e-005
5.80619e-005
5.80619e-005
5.80619e-005
5.80619e-005
5.80619e-005
5.80619e-005
5.80619e-005
5.80619e-005
5.8062e-005
5.8062e-005
5.8062e-005
5.8062e-005
5.8062e-005
5.8062e-005
5.8062e-005
5.8062e-005
5.8062e-005
5.8062e-005
5.8062e-005
5.8062e-005
5.8062e-005
5.80621e-005
5.80621e-005
5.80623e-005
5.80622e-005
5.80625e-005
5.80623e-005
5.80627e-005
5.80626e-005
5.80634e-005
5.9321e-005
4.60833e-006
4.60798e-006
4.60678e-006
4.60622e-006
4.6059e-006
4.6064e-006
4.60787e-006
4.60934e-006
4.60919e-006
4.60751e-006
4.60659e-006
4.60757e-006
4.60865e-006
4.60883e-006
4.60931e-006
4.61017e-006
4.6095e-006
4.60809e-006
4.60679e-006
4.6089e-006
4.61103e-006
4.61226e-006
4.60933e-006
4.60701e-006
4.60656e-006
4.60894e-006
4.60915e-006
4.60942e-006
4.61061e-006
4.61242e-006
4.61085e-006
4.60742e-006
4.60525e-006
4.60679e-006
4.6087e-006
4.60882e-006
4.60882e-006
4.60883e-006
4.60885e-006
4.60887e-006
4.60889e-006
4.60892e-006
4.60894e-006
4.60898e-006
4.60901e-006
4.60904e-006
4.60907e-006
4.60912e-006
4.60904e-006
4.60909e-006
4.60926e-006
4.60936e-006
4.6094e-006
4.60944e-006
4.60949e-006
4.60953e-006
4.60958e-006
4.60962e-006
4.60967e-006
4.6097e-006
4.60975e-006
4.6098e-006
4.60984e-006
4.60989e-006
4.60993e-006
4.60999e-006
4.61002e-006
4.6101e-006
4.61012e-006
4.61016e-006
4.61023e-006
4.61024e-006
4.61034e-006
4.61034e-006
4.61041e-006
4.61041e-006
4.61039e-006
4.61048e-006
4.61064e-006
4.61105e-006
4.61096e-006
4.61085e-006
4.61101e-006
4.61042e-006
4.61087e-006
4.6109e-006
4.61159e-006
4.61085e-006
4.6106e-006
4.6108e-006
4.61111e-006
4.61101e-006
4.61087e-006
4.61092e-006
4.61112e-006
4.61145e-006
4.61148e-006
4.61153e-006
4.61151e-006
4.6115e-006
4.61149e-006
4.61149e-006
4.61149e-006
4.61149e-006
4.61149e-006
4.61149e-006
4.61149e-006
4.61149e-006
4.6115e-006
4.61151e-006
4.61152e-006
4.61152e-006
4.61153e-006
4.61154e-006
4.61155e-006
4.61157e-006
4.61158e-006
4.61158e-006
4.61158e-006
4.61157e-006
4.61156e-006
4.61154e-006
4.61152e-006
4.61149e-006
4.61153e-006
4.61154e-006
4.61155e-006
4.61154e-006
4.61158e-006
4.61168e-006
4.61174e-006
4.61216e-006
4.61197e-006
4.61268e-006
4.61225e-006
4.61301e-006
4.61321e-006
4.61791e-006
5.10953e-006
7.24026e-007
7.23804e-007
7.23668e-007
7.23629e-007
7.23827e-007
7.24334e-007
7.24672e-007
7.24471e-007
7.23891e-007
7.23647e-007
7.2414e-007
7.2463e-007
7.24589e-007
7.2425e-007
7.24336e-007
7.24434e-007
7.24205e-007
7.24004e-007
7.24028e-007
7.24854e-007
7.25212e-007
7.2514e-007
7.24395e-007
7.23956e-007
7.24268e-007
7.24687e-007
7.24719e-007
7.24979e-007
7.25415e-007
7.25519e-007
7.24847e-007
7.24184e-007
7.24096e-007
7.248e-007
7.24981e-007
7.24988e-007
7.25002e-007
7.25017e-007
7.25032e-007
7.25052e-007
7.25073e-007
7.25095e-007
7.2512e-007
7.25147e-007
7.25176e-007
7.25199e-007
7.25223e-007
7.2525e-007
7.25308e-007
7.25348e-007
7.25349e-007
7.25338e-007
7.25359e-007
7.25395e-007
7.2543e-007
7.2546e-007
7.25496e-007
7.25524e-007
7.25557e-007
7.25583e-007
7.25612e-007
7.25643e-007
7.25666e-007
7.257e-007
7.25722e-007
7.25756e-007
7.25772e-007
7.25812e-007
7.2582e-007
7.25853e-007
7.25886e-007
7.25884e-007
7.25939e-007
7.25941e-007
7.25979e-007
7.25984e-007
7.26047e-007
7.26075e-007
7.26078e-007
7.26176e-007
7.26158e-007
7.26219e-007
7.26184e-007
7.26095e-007
7.26119e-007
7.2617e-007
7.26203e-007
7.26083e-007
7.26218e-007
7.26343e-007
7.26316e-007
7.26281e-007
7.26309e-007
7.26345e-007
7.26383e-007
7.26374e-007
7.2638e-007
7.26363e-007
7.2637e-007
7.26388e-007
7.26388e-007
7.26394e-007
7.2639e-007
7.26393e-007
7.26395e-007
7.26387e-007
7.26391e-007
7.26382e-007
7.26388e-007
7.26375e-007
7.26385e-007
7.2637e-007
7.26377e-007
7.26356e-007
7.26365e-007
7.26333e-007
7.26339e-007
7.26301e-007
7.26292e-007
7.26257e-007
7.26219e-007
7.2618e-007
7.2614e-007
7.26106e-007
7.26094e-007
7.26084e-007
7.26071e-007
7.26022e-007
7.26046e-007
7.2602e-007
7.2595e-007
7.26097e-007
7.26158e-007
7.26149e-007
7.25823e-007
7.30889e-007
7.15724e-007
6.41457e-007
1.2427e-006
2.1291e-007
2.12898e-007
2.12887e-007
2.1294e-007
2.13105e-007
2.13202e-007
2.13111e-007
2.1294e-007
2.12932e-007
2.13104e-007
2.1332e-007
2.13274e-007
2.13094e-007
2.13087e-007
2.13272e-007
2.13336e-007
2.13249e-007
2.13098e-007
2.13193e-007
2.13445e-007
2.13454e-007
2.13301e-007
2.13103e-007
2.13113e-007
2.13349e-007
2.13461e-007
2.13471e-007
2.13566e-007
2.13654e-007
2.13544e-007
2.13326e-007
2.13237e-007
2.13362e-007
2.13589e-007
2.1361e-007
2.13626e-007
2.13646e-007
2.13665e-007
2.13684e-007
2.13704e-007
2.13725e-007
2.13745e-007
2.13768e-007
2.13791e-007
2.13814e-007
2.13834e-007
2.13855e-007
2.13874e-007
2.13883e-007
2.13888e-007
2.1391e-007
2.13949e-007
2.13978e-007
2.13995e-007
2.14015e-007
2.14034e-007
2.14057e-007
2.14075e-007
2.14097e-007
2.14116e-007
2.14136e-007
2.14157e-007
2.14174e-007
2.14196e-007
2.14213e-007
2.14235e-007
2.1425e-007
2.14275e-007
2.14286e-007
2.14308e-007
2.1433e-007
2.14338e-007
2.14375e-007
2.14383e-007
2.14398e-007
2.14419e-007
2.14439e-007
2.14467e-007
2.14499e-007
2.1452e-007
2.14536e-007
2.14574e-007
2.14575e-007
2.14558e-007
2.1456e-007
2.1458e-007
2.14572e-007
2.14533e-007
2.14568e-007
2.14573e-007
2.14566e-007
2.1457e-007
2.14576e-007
2.14584e-007
2.14587e-007
2.14595e-007
2.14605e-007
2.14638e-007
2.14648e-007
2.14667e-007
2.1467e-007
2.14677e-007
2.14676e-007
2.14681e-007
2.14682e-007
2.14679e-007
2.1468e-007
2.14675e-007
2.14678e-007
2.14669e-007
2.14673e-007
2.14661e-007
2.14663e-007
2.14646e-007
2.14649e-007
2.14628e-007
2.14628e-007
2.14606e-007
2.14594e-007
2.14573e-007
2.14547e-007
2.14514e-007
2.14487e-007
2.14457e-007
2.14431e-007
2.14389e-007
2.14362e-007
2.14335e-007
2.14302e-007
2.14286e-007
2.14255e-007
2.1435e-007
2.1366e-007
2.17507e-007
2.17227e-007
1.65368e-007
3.4e-007
6.62973e-005
0.00605321
1.03709e-007
1.03714e-007
1.03733e-007
1.03792e-007
1.03847e-007
1.0382e-007
1.0376e-007
1.03771e-007
1.03873e-007
1.03966e-007
1.03959e-007
1.03881e-007
1.03849e-007
1.03961e-007
1.04068e-007
1.04061e-007
1.03966e-007
1.03906e-007
1.03955e-007
1.04027e-007
1.04004e-007
1.03917e-007
1.03899e-007
1.03953e-007
1.0407e-007
1.04112e-007
1.04144e-007
1.04188e-007
1.04179e-007
1.04104e-007
1.04063e-007
1.04082e-007
1.04182e-007
1.0426e-007
1.04274e-007
1.04294e-007
1.04315e-007
1.04332e-007
1.04348e-007
1.04365e-007
1.04383e-007
1.04401e-007
1.04421e-007
1.04443e-007
1.04464e-007
1.04481e-007
1.04494e-007
1.04508e-007
1.04529e-007
1.04559e-007
1.04581e-007
1.04589e-007
1.04593e-007
1.04612e-007
1.04634e-007
1.04653e-007
1.04672e-007
1.0469e-007
1.04708e-007
1.04725e-007
1.04743e-007
1.0476e-007
1.04776e-007
1.04794e-007
1.04809e-007
1.04827e-007
1.04841e-007
1.04861e-007
1.04872e-007
1.04892e-007
1.04907e-007
1.04919e-007
1.04945e-007
1.04952e-007
1.04969e-007
1.04981e-007
1.04985e-007
1.04999e-007
1.05019e-007
1.05026e-007
1.05048e-007
1.05065e-007
1.05072e-007
1.05069e-007
1.05078e-007
1.05082e-007
1.05079e-007
1.05081e-007
1.05094e-007
1.05115e-007
1.05135e-007
1.05139e-007
1.05135e-007
1.05135e-007
1.05152e-007
1.05168e-007
1.0518e-007
1.05187e-007
1.05192e-007
1.05191e-007
1.05195e-007
1.05198e-007
1.05201e-007
1.05205e-007
1.05201e-007
1.05206e-007
1.052e-007
1.05201e-007
1.05194e-007
1.05197e-007
1.05186e-007
1.05183e-007
1.0517e-007
1.05163e-007
1.05146e-007
1.05137e-007
1.05123e-007
1.05111e-007
1.05096e-007
1.05078e-007
1.05061e-007
1.05041e-007
1.05018e-007
1.04996e-007
1.04987e-007
1.05012e-007
1.04982e-007
1.04796e-007
1.04876e-007
1.04989e-007
1.0479e-007
1.04169e-007
1.08998e-007
8.98227e-008
8.96106e-008
6.83775e-007
8.06692e-005
0.00584792
0.0684615
7.06293e-008
7.06248e-008
7.06408e-008
7.06823e-008
7.06901e-008
7.06682e-008
7.06685e-008
7.07316e-008
7.08027e-008
7.08054e-008
7.07518e-008
7.07249e-008
7.07711e-008
7.08866e-008
7.09229e-008
7.08789e-008
7.07841e-008
7.07841e-008
7.08306e-008
7.08629e-008
7.08467e-008
7.08026e-008
7.08201e-008
7.0885e-008
7.09529e-008
7.09856e-008
7.10117e-008
7.10238e-008
7.10027e-008
7.09666e-008
7.09755e-008
7.10116e-008
7.10894e-008
7.11137e-008
7.11357e-008
7.11555e-008
7.11735e-008
7.11887e-008
7.12045e-008
7.1221e-008
7.12378e-008
7.12561e-008
7.12762e-008
7.12949e-008
7.13111e-008
7.13279e-008
7.1349e-008
7.13674e-008
7.13875e-008
7.13953e-008
7.14002e-008
7.14166e-008
7.14479e-008
7.14743e-008
7.14889e-008
7.15024e-008
7.15191e-008
7.15349e-008
7.15523e-008
7.15681e-008
7.15852e-008
7.1601e-008
7.16175e-008
7.16332e-008
7.16494e-008
7.16644e-008
7.16802e-008
7.16953e-008
7.17076e-008
7.17255e-008
7.17348e-008
7.17535e-008
7.17668e-008
7.17809e-008
7.17923e-008
7.18094e-008
7.18133e-008
7.18253e-008
7.18465e-008
7.18479e-008
7.18628e-008
7.18726e-008
7.18874e-008
7.18998e-008
7.19178e-008
7.19181e-008
7.19058e-008
7.19072e-008
7.19196e-008
7.19348e-008
7.19508e-008
7.19505e-008
7.19601e-008
7.19791e-008
7.19902e-008
7.1996e-008
7.19963e-008
7.19951e-008
7.19969e-008
7.20104e-008
7.20099e-008
7.2016e-008
7.2015e-008
7.2017e-008
7.20225e-008
7.20219e-008
7.20285e-008
7.20203e-008
7.20218e-008
7.20121e-008
7.20134e-008
7.2001e-008
7.19981e-008
7.19814e-008
7.19789e-008
7.19632e-008
7.19589e-008
7.19436e-008
7.19347e-008
7.19207e-008
7.19074e-008
7.18853e-008
7.18714e-008
7.18422e-008
7.17711e-008
7.1629e-008
7.16475e-008
7.20085e-008
7.15492e-008
7.14871e-008
7.15231e-008
7.374e-008
5.8874e-008
1.16299e-007
2.64459e-006
0.000194931
0.00781498
0.0778912
0.267536
5.78577e-008
5.78914e-008
5.79211e-008
5.79319e-008
5.7927e-008
5.79261e-008
5.79456e-008
5.79864e-008
5.8011e-008
5.80129e-008
5.80006e-008
5.80053e-008
5.8043e-008
5.80931e-008
5.8097e-008
5.80746e-008
5.80538e-008
5.80602e-008
5.80703e-008
5.80818e-008
5.80966e-008
5.81203e-008
5.81498e-008
5.81713e-008
5.81795e-008
5.82053e-008
5.82421e-008
5.82678e-008
5.82669e-008
5.82636e-008
5.82688e-008
5.82859e-008
5.83226e-008
5.83486e-008
5.83855e-008
5.84078e-008
5.84265e-008
5.84441e-008
5.84594e-008
5.84751e-008
5.84923e-008
5.85111e-008
5.85298e-008
5.85505e-008
5.85726e-008
5.85954e-008
5.86122e-008
5.86129e-008
5.86146e-008
5.86303e-008
5.86612e-008
5.86909e-008
5.87064e-008
5.87121e-008
5.87261e-008
5.87483e-008
5.87672e-008
5.87862e-008
5.88028e-008
5.88206e-008
5.8837e-008
5.8854e-008
5.88703e-008
5.88872e-008
5.89027e-008
5.89184e-008
5.89357e-008
5.89487e-008
5.89645e-008
5.89798e-008
5.89882e-008
5.90083e-008
5.90161e-008
5.90315e-008
5.90397e-008
5.90544e-008
5.90566e-008
5.90637e-008
5.90832e-008
5.90804e-008
5.90869e-008
5.91015e-008
5.91184e-008
5.91342e-008
5.91556e-008
5.91596e-008
5.91506e-008
5.91519e-008
5.91632e-008
5.91739e-008
5.91887e-008
5.92058e-008
5.92223e-008
5.92333e-008
5.92378e-008
5.9236e-008
5.92373e-008
5.92435e-008
5.92489e-008
5.92566e-008
5.92596e-008
5.92641e-008
5.92661e-008
5.92657e-008
5.92683e-008
5.92656e-008
5.92683e-008
5.92648e-008
5.92654e-008
5.92573e-008
5.92559e-008
5.92439e-008
5.92427e-008
5.92269e-008
5.92251e-008
5.92114e-008
5.92086e-008
5.91935e-008
5.91859e-008
5.91748e-008
5.9162e-008
5.9144e-008
5.91316e-008
5.91131e-008
5.92072e-008
5.92709e-008
5.91403e-008
5.84053e-008
5.9409e-008
5.90771e-008
5.97466e-008
5.51521e-008
1.66861e-007
8.54675e-006
0.000469738
0.0138073
0.105904
0.323348
0.582661
5.19631e-008
5.19761e-008
5.20203e-008
5.20511e-008
5.20557e-008
5.20538e-008
5.20826e-008
5.21279e-008
5.21221e-008
5.20956e-008
5.20949e-008
5.21339e-008
5.21997e-008
5.22287e-008
5.22138e-008
5.2166e-008
5.21512e-008
5.21793e-008
5.22554e-008
5.23018e-008
5.22872e-008
5.22586e-008
5.22609e-008
5.23043e-008
5.23827e-008
5.24184e-008
5.24234e-008
5.24079e-008
5.23872e-008
5.23819e-008
5.23989e-008