/*--------------------------------*- C++ -*----------------------------------*\
| =========                 |                                                 |
| \\      /  F ield         | OpenFOAM: The Open Source CFD Toolbox           |
|  \\    /   O peration     | Version:  5.x                                   |
|   \\  /    A nd           | Web:      www.OpenFOAM.org                      |
|    \\/     M anipulation  |                                                 |
\*---------------------------------------------------------------------------*/
/*   Windows 32 and 64 bit porting by blueCAPE: http://www.bluecape.com.pt   *\
|  Based on Windows porting (2.0.x v4) by Symscape: http://www.symscape.com   |
\*---------------------------------------------------------------------------*/
FoamFile
{
    version     2.0;
    format      ascii;
    class       volScalarField;
    location    "390";
    object      p;
}
// * * * * * * * * * * * * * * * * * * * * * * * * * * * * * * * * * * * * * //

dimensions      [0 2 -2 0 0 0 0];

internalField   nonuniform List<scalar> 
43900
(
0.338028
0.337678
0.337637
0.337509
0.337305
0.337079
0.336875
0.336546
0.336303
0.335978
0.335652
0.335321
0.334973
0.33461
0.334239
0.333858
0.333467
0.333067
0.33266
0.332244
0.33182
0.331391
0.330955
0.330512
0.330065
0.329611
0.329154
0.328692
0.328226
0.336033
0.34412
0.337977
0.34127
0.338755
0.33951
0.338593
0.338414
0.33796
0.337526
0.337126
0.33669
0.336259
0.335832
0.335402
0.334969
0.334531
0.33409
0.333646
0.333197
0.332748
0.332293
0.331831
0.331369
0.330902
0.330429
0.329955
0.329473
0.328988
0.329246
0.351053
0.339948
0.34621
0.341114
0.343698
0.341312
0.341648
0.340561
0.340149
0.339558
0.338994
0.338457
0.337923
0.337395
0.336871
0.336353
0.33584
0.335328
0.33482
0.334311
0.333801
0.333295
0.332785
0.332272
0.331759
0.33124
0.330727
0.330211
0.324464
0.352111
0.345388
0.34518
0.344826
0.344399
0.343306
0.343264
0.342467
0.34209
0.341519
0.340999
0.340471
0.33994
0.339407
0.338874
0.338339
0.337802
0.337267
0.336728
0.336188
0.335651
0.335111
0.334568
0.334028
0.333486
0.33294
0.33239
0.331837
0.327013
0.350857
0.345847
0.345234
0.345211
0.344778
0.34458
0.344347
0.343818
0.343509
0.343075
0.342651
0.342226
0.341783
0.341326
0.340859
0.340385
0.3399
0.339404
0.338901
0.338392
0.337874
0.33735
0.336821
0.336283
0.335738
0.335191
0.334638
0.334078
0.332195
0.350235
0.347212
0.346901
0.346825
0.346414
0.34614
0.345892
0.345673
0.345402
0.345031
0.344687
0.344315
0.343927
0.343526
0.343111
0.342678
0.342234
0.341778
0.341306
0.340822
0.340325
0.339814
0.339291
0.338755
0.338212
0.337656
0.337085
0.336506
0.338349
0.352331
0.350509
0.349972
0.349923
0.349778
0.349444
0.348988
0.348662
0.348426
0.34809
0.347724
0.347351
0.346955
0.346544
0.346121
0.345688
0.345233
0.344762
0.344283
0.34379
0.343278
0.342753
0.342216
0.341668
0.341102
0.340525
0.339939
0.339342
0.345286
0.356464
0.355329
0.354714
0.354532
0.354389
0.35417
0.353814
0.353345
0.352895
0.35255
0.35218
0.351768
0.35134
0.350897
0.35044
0.349967
0.349479
0.348973
0.34845
0.347915
0.347367
0.346799
0.346218
0.345617
0.345006
0.344387
0.343744
0.343085
0.353261
0.362182
0.361491
0.360856
0.360572
0.360359
0.360106
0.359796
0.359401
0.358882
0.358361
0.357941
0.357503
0.35702
0.356522
0.356011
0.355483
0.354928
0.354355
0.353774
0.35317
0.352544
0.351906
0.351242
0.350567
0.349875
0.349161
0.348439
0.347709
0.362321
0.369271
0.368865
0.368219
0.367854
0.367572
0.36726
0.366904
0.366503
0.366033
0.365454
0.364832
0.364299
0.363766
0.363198
0.362609
0.362007
0.361379
0.360732
0.360059
0.359364
0.358651
0.357913
0.357163
0.356387
0.355593
0.35479
0.353953
0.353106
0.371795
0.377733
0.377441
0.37677
0.37634
0.375993
0.37562
0.375201
0.374738
0.374228
0.373651
0.372978
0.372241
0.371585
0.37093
0.370254
0.369558
0.368836
0.368086
0.367319
0.366528
0.36571
0.364863
0.363991
0.363109
0.362218
0.361282
0.360344
0.359382
0.38188
0.38731
0.387069
0.386364
0.385877
0.385474
0.385043
0.384564
0.384035
0.383455
0.382818
0.382112
0.381321
0.380461
0.379649
0.378851
0.37804
0.377211
0.37634
0.375443
0.37454
0.373596
0.372627
0.371632
0.370602
0.369559
0.368493
0.367386
0.366273
0.393098
0.397842
0.39763
0.396904
0.396366
0.395906
0.39542
0.394883
0.394292
0.393644
0.392933
0.392156
0.391301
0.390355
0.389336
0.38835
0.387395
0.386429
0.385436
0.384399
0.383323
0.38224
0.38112
0.37996
0.378786
0.377572
0.37633
0.375077
0.37379
0.405075
0.409302
0.409095
0.408343
0.407755
0.40724
0.406697
0.4061
0.405445
0.404727
0.403939
0.403078
0.402139
0.401111
0.399981
0.398781
0.397609
0.396468
0.395302
0.394107
0.392868
0.391594
0.390306
0.38897
0.387596
0.386219
0.384806
0.383347
0.381863
0.417715
0.421576
0.421357
0.420573
0.419933
0.419362
0.41876
0.4181
0.417376
0.416583
0.415713
0.414761
0.413723
0.412594
0.411365
0.410023
0.408609
0.407229
0.405875
0.40447
0.403047
0.401596
0.400089
0.398565
0.396994
0.395385
0.393763
0.392102
0.390387
0.430943
0.434559
0.434318
0.433497
0.432806
0.432178
0.431516
0.430791
0.429995
0.429124
0.428169
0.427123
0.425981
0.42474
0.423396
0.421941
0.420366
0.418723
0.417105
0.4155
0.413847
0.412175
0.41046
0.408692
0.406901
0.405064
0.403199
0.401286
0.399309
0.444684
0.448145
0.44788
0.447018
0.446277
0.445594
0.444872
0.444082
0.443216
0.442265
0.441223
0.44008
0.438832
0.437474
0.436003
0.434415
0.432702
0.430861
0.428955
0.427058
0.425156
0.423205
0.421234
0.419204
0.417124
0.415022
0.412865
0.41068
0.408455
0.45882
0.462204
0.461913
0.461007
0.460215
0.459478
0.458696
0.457839
0.456899
0.455867
0.454734
0.453492
0.452133
0.450651
0.449043
0.447308
0.445439
0.443428
0.441282
0.439062
0.436846
0.434607
0.432323
0.430033
0.427674
0.425268
0.422843
0.420344
0.417818
0.47327
0.476636
0.47632
0.47537
0.474528
0.473738
0.472897
0.471975
0.470961
0.469848
0.468623
0.46728
0.46581
0.464207
0.462465
0.460583
0.458557
0.456383
0.454055
0.451582
0.44904
0.446495
0.443924
0.441309
0.438663
0.435961
0.433195
0.430387
0.427504
0.487918
0.491315
0.490978
0.489983
0.489093
0.488251
0.487352
0.486363
0.485275
0.48408
0.482767
0.481323
0.479742
0.478017
0.476141
0.47411
0.471924
0.469579
0.467072
0.464396
0.46157
0.458669
0.45575
0.452772
0.449747
0.446672
0.443515
0.440314
0.437074
0.502644
0.506119
0.505762
0.50472
0.503781
0.502888
0.501933
0.50088
0.499719
0.498439
0.497029
0.495478
0.493778
0.49192
0.489898
0.487707
0.485344
0.482806
0.480092
0.477197
0.474114
0.470869
0.467537
0.464161
0.460731
0.457246
0.453733
0.450164
0.446546
0.517355
0.520947
0.520574
0.519484
0.518498
0.517554
0.516541
0.515419
0.514179
0.512812
0.511306
0.509648
0.507827
0.505835
0.503664
0.50131
0.498768
0.496034
0.493108
0.489989
0.48667
0.483149
0.479457
0.475674
0.471817
0.467914
0.463967
0.459946
0.455862
0.531943
0.535687
0.5353
0.534163
0.53313
0.532137
0.531066
0.529879
0.528565
0.527112
0.525505
0.523734
0.521787
0.519656
0.517334
0.514813
0.512089
0.509159
0.50602
0.502672
0.499116
0.495345
0.491357
0.487189
0.48289
0.47852
0.474078
0.469557
0.464984
0.546323
0.550253
0.549855
0.54867
0.547591
0.546549
0.545419
0.544163
0.542767
0.541219
0.539507
0.537619
0.535543
0.533267
0.530785
0.528088
0.525172
0.522033
0.518669
0.515079
0.511263
0.507223
0.502955
0.49845
0.493746
0.488898
0.483958
0.478945
0.47387
0.560405
0.564551
0.564144
0.562911
0.561785
0.560692
0.559502
0.558173
0.556695
0.555053
0.553235
0.551224
0.549008
0.546577
0.543923
0.541039
0.537918
0.534558
0.530955
0.527108
0.523018
0.518687
0.514117
0.509308
0.504254
0.498976
0.493552
0.488014
0.482388
0.574123
0.578515
0.578101
0.576819
0.575647
0.574503
0.573252
0.57185
0.570284
0.568541
0.566604
0.564458
0.562092
0.559495
0.556659
0.553574
0.550234
0.546637
0.542778
0.538656
0.534273
0.52963
0.524732
0.519584
0.514189
0.508532
0.502649
0.496585
0.490368
0.587415
0.592079
0.591659
0.590327
0.58911
0.587915
0.5866
0.58512
0.583461
0.581609
0.579546
0.57726
0.574736
0.571963
0.568928
0.565625
0.562048
0.558191
0.554053
0.549631
0.544928
0.539945
0.534687
0.52916
0.523374
0.517329
0.511021
0.504477
0.497719
0.600227
0.605188
0.604762
0.603381
0.602117
0.60087
0.599488
0.597927
0.596171
0.594205
0.592013
0.589577
0.586882
0.583916
0.580668
0.577129
0.573293
0.569156
0.564713
0.559965
0.554913
0.549559
0.543909
0.53797
0.531753
0.525266
0.518519
0.511506
0.504291
0.612518
0.617798
0.617366
0.615936
0.614627
0.613328
0.611879
0.610233
0.608376
0.606291
0.603959
0.601361
0.598482
0.59531
0.591832
0.588039
0.583924
0.579481
0.574707
0.569602
0.564168
0.558409
0.55233
0.545941
0.539252
0.532277
0.52503
0.517515
0.509785
0.624254
0.629869
0.629432
0.627953
0.626601
0.62525
0.623734
0.622002
0.62004
0.61783
0.615351
0.612583
0.609511
0.606119
0.602395
0.598328
0.593909
0.589134
0.583999
0.578504
0.572651
0.566445
0.559894
0.553008
0.545801
0.538289
0.53049
0.52242
0.514086
0.635404
0.64137
0.640927
0.639401
0.638008
0.636607
0.635021
0.633202
0.631133
0.628793
0.626161
0.623216
0.61994
0.616317
0.612331
0.60797
0.603226
0.598091
0.592563
0.586642
0.58033
0.573632
0.566559
0.559123
0.551341
0.54323
0.534814
0.526115
0.517146
0.645948
0.652273
0.651824
0.650253
0.648822
0.647372
0.645719
0.643812
0.641633
0.639162
0.636373
0.633245
0.629757
0.625889
0.621624
0.61695
0.611857
0.606337
0.600384
0.594
0.587186
0.579949
0.572301
0.564256
0.555833
0.547055
0.537949
0.528543
0.518862
0.65587
0.662559
0.6621
0.66049
0.659025
0.65753
0.655811
0.653818
0.651531
0.648927
0.645979
0.642662
0.638951
0.634827
0.63027
0.625267
0.619803
0.61387
0.607461
0.600576
0.593216
0.58539
0.57711
0.568393
0.559262
0.549742
0.539868
0.529672
0.519192
0.66516
0.67221
0.671742
0.670096
0.668603
0.667066
0.665286
0.663208
0.660815
0.658078
0.654969
0.651459
0.647522
0.643134
0.638275
0.632926
0.627071
0.620698
0.613801
0.606376
0.598425
0.589958
0.580987
0.571532
0.561618
0.551279
0.540551
0.529478
0.518106
0.673812
0.681219
0.680738
0.679062
0.677548
0.675974
0.674135
0.671977
0.669479
0.666611
0.66334
0.659636
0.655468
0.650811
0.64564
0.639931
0.633665
0.626829
0.619412
0.61141
0.602824
0.593661
0.583937
0.573674
0.562901
0.551657
0.539986
0.527941
0.515578
0.681824
0.689581
0.689085
0.687386
0.685857
0.684252
0.682359
0.680124
0.677524
0.674526
0.671095
0.667196
0.662796
0.657865
0.652372
0.64629
0.639596
0.632274
0.624309
0.615692
0.606425
0.596513
0.585971
0.574825
0.56311
0.550869
0.538156
0.525034
0.511574
0.689197
0.6973
0.696786
0.695071
0.693536
0.691905
0.689962
0.687654
0.684957
0.681833
0.678244
0.674152
0.669518
0.664307
0.658483
0.652018
0.644882
0.637052
0.62851
0.619242
0.609247
0.598528
0.587101
0.574993
0.562244
0.548905
0.535041
0.520728
0.506054
0.695935
0.704387
0.70385
0.702128
0.700592
0.698941
0.696953
0.694578
0.691786
0.68854
0.684797
0.680512
0.675643
0.67015
0.663992
0.657135
0.649544
0.641186
0.632038
0.622083
0.611312
0.599727
0.587341
0.574185
0.560302
0.545752
0.530615
0.514983
0.498963
0.702039
0.710858
0.710294
0.708569
0.707041
0.705374
0.703345
0.700906
0.698025
0.694659
0.690763
0.686287
0.681184
0.675408
0.668915
0.661661
0.653601
0.644698
0.63492
0.624242
0.612648
0.600134
0.586713
0.572413
0.557284
0.541397
0.524846
0.507746
0.490231
0.707511
0.716738
0.716136
0.714414
0.7129
0.71122
0.709154
0.706654
0.703686
0.700205
0.696158
0.691493
0.686159
0.680104
0.673275
0.665618
0.657082
0.647621
0.637192
0.625758
0.613295
0.59979
0.585249
0.569701
0.5532
0.535828
0.517699
0.498957
0.47977
0.712356
0.722054
0.7214
0.719682
0.718185
0.716496
0.714395
0.711838
0.708787
0.705194
0.701001
0.696154
0.690595
0.684264
0.6771
0.669042
0.66003
0.650005
0.638909
0.626694
0.613318
0.598759
0.583012
0.566102
0.548085
0.529057
0.509155
0.488559
0.467486
0.716579
0.726836
0.726108
0.724393
0.722916
0.721219
0.719085
0.716473
0.713344
0.709644
0.705312
0.70029
0.694514
0.687917
0.68043
0.671984
0.662505
0.65192
0.640154
0.62714
0.612819
0.597148
0.58011
0.561717
0.542025
0.521141
0.499232
0.476524
0.453299
0.720196
0.731111
0.730278
0.728562
0.727109
0.725405
0.72324
0.720578
0.717376
0.713576
0.709116
0.703931
0.697954
0.691111
0.683325
0.674514
0.664592
0.653467
0.641045
0.627233
0.611949
0.595124
0.576716
0.556719
0.535181
0.512215
0.488022
0.462885
0.437174
0.723237
0.734902
0.733924
0.732207
0.730779
0.729069
0.726878
0.724172
0.720907
0.717021
0.712449
0.707124
0.700974
0.693918
0.685871
0.676738
0.666417
0.654795
0.641753
0.62717
0.61093
0.59293
0.573092
0.551379
0.527816
0.502518
0.475714
0.447761
0.419142
0.72575
0.738226
0.737058
0.735344
0.733946
0.732234
0.730025
0.727288
0.723976
0.720026
0.715372
0.709943
0.703662
0.696445
0.688192
0.678801
0.66815
0.6561
0.642504
0.627208
0.610054
0.590893
0.569596
0.546076
0.520318
0.492416
0.462628
0.431385
0.39932
0.727802
0.741095
0.739695
0.737998
0.736637
0.734933
0.73272
0.729973
0.726642
0.722662
0.717968
0.712486
0.706135
0.698823
0.690447
0.680887
0.67
0.657622
0.643575
0.627664
0.609682
0.589418
0.566674
0.541292
0.51319
0.482414
0.449227
0.414121
0.377927
0.729474
0.743521
0.74186
0.740205
0.738896
0.737214
0.735022
0.732295
0.728983
0.725022
0.720343
0.714874
0.708532
0.701219
0.692822
0.683204
0.672203
0.659631
0.645273
0.628886
0.610205
0.588947
0.564828
0.537583
0.507026
0.473121
0.436109
0.396477
0.355291
0.730852
0.745529
0.743591
0.742016
0.740777
0.73914
0.737
0.734334
0.73109
0.727203
0.722611
0.717239
0.711002
0.703796
0.695497
0.685953
0.674982
0.662368
0.647862
0.631172
0.61197
0.589889
0.564536
0.535509
0.502472
0.46522
0.423924
0.379014
0.331868
0.732013
0.747159
0.744942
0.743496
0.742345
0.740782
0.73873
0.736168
0.733044
0.729299
0.724869
0.719682
0.713648
0.706657
0.698574
0.689233
0.678434
0.66594
0.651466
0.634675
0.615172
0.592501
0.566145
0.53553
0.500116
0.459406
0.41342
0.362314
0.30807
0.733019
0.748464
0.745978
0.744709
0.743666
0.742203
0.740274
0.737859
0.734906
0.73136
0.727159
0.722227
0.716472
0.709777
0.702002
0.69297
0.682469
0.670241
0.655975
0.639291
0.619737
0.596761
0.569721
0.537837
0.500323
0.456244
0.405375
0.347067
0.284321
0.733907
0.749505
0.746763
0.745717
0.744792
0.743451
0.741673
0.739436
0.736689
0.733377
0.729439
0.724797
0.719357
0.713
0.705581
0.696919
0.686793
0.674935
0.661011
0.644614
0.625241
0.602258
0.574904
0.542176
0.503032
0.45592
0.40032
0.333963
0.261196
0.734696
0.750344
0.747354
0.746565
0.745759
0.744553
0.74294
0.740892
0.738358
0.735284
0.731607
0.72725
0.722116
0.716087
0.709016
0.700722
0.690981
0.679519
0.665995
0.649981
0.630941
0.608177
0.580835
0.547694
0.507491
0.457886
0.398084
0.323149
0.239084
0.735396
0.751039
0.747804
0.747293
0.746595
0.745526
0.744074
0.742204
0.739866
0.737004
0.733555
0.72944
0.724563
0.718806
0.712021
0.70403
0.694611
0.683489
0.670321
0.654668
0.635977
0.6135
0.586321
0.553013
0.512173
0.460552
0.397204
0.313422
0.217
0.73601
0.751639
0.748158
0.747931
0.747323
0.74638
0.74507
0.743353
0.741176
0.738482
0.735206
0.731269
0.726574
0.721003
0.714411
0.70662
0.697411
0.686509
0.673571
0.658151
0.639682
0.617377
0.590274
0.556736
0.515295
0.461707
0.395023
0.301861
0.191117
0.73646
0.752102
0.748375
0.74842
0.747874
0.747035
0.745835
0.744231
0.742168
0.739588
0.736423
0.732594
0.728001
0.722529
0.716031
0.708332
0.699211
0.688393
0.675528
0.660164
0.641716
0.619351
0.59207
0.55801
0.515661
0.459632
0.388987
0.284329
0.154072
0.736485
0.752175
0.748198
0.748472
0.747945
0.747163
0.746014
0.744459
0.742443
0.739906
0.736782
0.732988
0.728425
0.722975
0.716492
0.708796
0.699664
0.688814
0.67589
0.660421
0.641802
0.619146
0.591405
0.556487
0.512851
0.453768
0.378334
0.257835
0.101418
0.736211
0.751907
0.747691
0.748125
0.747573
0.746787
0.745619
0.744034
0.741981
0.739406
0.736241
0.732405
0.727799
0.722301
0.715762
0.707998
0.698781
0.687819
0.674743
0.659064
0.640147
0.617048
0.588666
0.552676
0.507557
0.445219
0.365204
0.226314
0.0375251
0.73834
0.753932
0.749681
0.750247
0.749771
0.749083
0.748003
0.74649
0.744482
0.74192
0.738735
0.734851
0.730171
0.724578
0.717927
0.710035
0.700673
0.689548
0.676282
0.660372
0.641163
0.617667
0.588735
0.551876
0.505546
0.440919
0.35868
0.212062
0.00335633
0.748869
0.764767
0.761032
0.761954
0.762106
0.762173
0.761956
0.761338
0.760184
0.758375
0.75581
0.752402
0.748062
0.742695
0.736178
0.728355
0.719018
0.707897
0.694633
0.67874
0.659581
0.636196
0.607417
0.570918
0.52454
0.461337
0.380709
0.269119
0.195819
0.327671
0.327025
0.326372
0.325714
0.325049
0.324378
0.323703
0.32302
0.32233
0.321637
0.32094
0.320235
0.319526
0.318811
0.318091
0.317365
0.316631
0.315899
0.315163
0.314421
0.313665
0.312905
0.312153
0.311404
0.310655
0.309892
0.309126
0.308358
0.307587
0.306815
0.306041
0.305282
0.304521
0.303747
0.302978
0.302214
0.301453
0.300694
0.299935
0.299178
0.298422
0.297668
0.296915
0.296165
0.295417
0.294672
0.29393
0.29319
0.292455
0.291726
0.291
0.290277
0.289559
0.288845
0.288136
0.287432
0.286734
0.286041
0.285354
0.284672
0.283997
0.283328
0.282666
0.282011
0.281362
0.280721
0.280086
0.27946
0.278841
0.27823
0.277626
0.277031
0.276444
0.275866
0.275295
0.274733
0.274181
0.273639
0.273103
0.272579
0.272064
0.271557
0.271059
0.270571
0.270094
0.269624
0.269165
0.268717
0.268278
0.267851
0.26743
0.267023
0.266626
0.26624
0.265865
0.2655
0.265146
0.264802
0.264471
0.264151
0.263842
0.263545
0.263259
0.262984
0.26272
0.262467
0.262224
0.261993
0.261773
0.261564
0.261365
0.261178
0.261002
0.260837
0.260683
0.260539
0.260406
0.260283
0.260169
0.260065
0.25997
0.259884
0.259805
0.259735
0.259673
0.259617
0.259571
0.259532
0.259499
0.259476
0.259457
0.259449
0.259447
0.25945
0.259474
0.259488
0.259548
0.259556
0.259711
0.328415
0.327745
0.327071
0.326387
0.325697
0.325002
0.324296
0.323585
0.322871
0.322148
0.321422
0.320686
0.319942
0.319198
0.318449
0.3177
0.31695
0.316187
0.315418
0.31465
0.313898
0.313139
0.312369
0.31158
0.31079
0.31002
0.309243
0.308465
0.307695
0.306944
0.306185
0.305388
0.304596
0.303816
0.303036
0.302246
0.301455
0.300667
0.299881
0.299099
0.298318
0.297541
0.296766
0.295994
0.295226
0.294461
0.293699
0.292939
0.292176
0.291411
0.29065
0.289894
0.289151
0.288422
0.287697
0.286977
0.286261
0.285551
0.284845
0.284145
0.283451
0.282764
0.282082
0.281408
0.28074
0.280079
0.279427
0.278781
0.278144
0.277514
0.276893
0.27628
0.275676
0.275081
0.274493
0.273913
0.273332
0.272754
0.272196
0.271648
0.271107
0.270576
0.270056
0.269553
0.269058
0.268575
0.268106
0.267649
0.267202
0.266766
0.26634
0.265924
0.265517
0.265117
0.264728
0.264352
0.26399
0.263649
0.263322
0.263006
0.262701
0.262405
0.26212
0.261846
0.261583
0.261332
0.261093
0.260866
0.26065
0.260447
0.260255
0.260075
0.259907
0.25975
0.259605
0.25947
0.259346
0.259231
0.259126
0.259031
0.258945
0.258868
0.258801
0.258743
0.258692
0.258654
0.258619
0.258597
0.258574
0.258556
0.258549
0.258527
0.258539
0.258492
0.258539
0.258466
0.258517
0.258441
0.258402
0.329588
0.328867
0.32814
0.327405
0.326666
0.325916
0.325181
0.324442
0.323682
0.322912
0.322131
0.321378
0.320627
0.319854
0.319073
0.31828
0.317486
0.316701
0.315926
0.315139
0.314332
0.313527
0.312717
0.311932
0.311138
0.310312
0.309502
0.308704
0.307894
0.307043
0.306196
0.305373
0.304552
0.30373
0.302905
0.30209
0.301278
0.300466
0.299653
0.298839
0.298025
0.297212
0.296401
0.295593
0.294786
0.293982
0.293181
0.292388
0.291597
0.290808
0.290024
0.289246
0.288465
0.287677
0.286896
0.286125
0.285362
0.284606
0.283858
0.283117
0.282382
0.281656
0.280936
0.280223
0.279519
0.278822
0.278133
0.277452
0.276779
0.276116
0.275462
0.274816
0.274179
0.273551
0.272936
0.272332
0.271743
0.271171
0.2706
0.270036
0.269481
0.268935
0.268401
0.267867
0.267345
0.266834
0.266329
0.265832
0.265348
0.264875
0.264421
0.263981
0.263554
0.26315
0.262756
0.26238
0.26202
0.261663
0.261318
0.260984
0.260666
0.260361
0.260071
0.259793
0.259529
0.259279
0.259042
0.258819
0.258608
0.258411
0.258226
0.258055
0.257896
0.25775
0.257616
0.257496
0.257387
0.25729
0.257207
0.257136
0.257077
0.257032
0.256999
0.256978
0.256969
0.256969
0.256982
0.257004
0.257044
0.257079
0.257144
0.257194
0.257276
0.257354
0.257384
0.257543
0.257431
0.257799
0.257467
0.33119
0.330447
0.329694
0.328935
0.328176
0.327411
0.326617
0.32582
0.325036
0.324268
0.323498
0.322674
0.321832
0.321004
0.320183
0.319374
0.318549
0.317696
0.316834
0.315967
0.315108
0.314249
0.313377
0.312502
0.311628
0.310749
0.309881
0.309013
0.308139
0.307263
0.306383
0.305503
0.304621
0.303733
0.302844
0.301963
0.301087
0.300211
0.299337
0.298465
0.297596
0.296728
0.295861
0.294995
0.29413
0.293266
0.292401
0.291537
0.290677
0.289815
0.288957
0.288104
0.287254
0.286425
0.285619
0.284817
0.284015
0.283216
0.282421
0.281632
0.280849
0.280073
0.279305
0.278545
0.277793
0.277049
0.276315
0.27559
0.274876
0.274171
0.273474
0.272789
0.272108
0.271433
0.270766
0.270106
0.269462
0.268822
0.268187
0.267567
0.266964
0.266377
0.265801
0.265249
0.264714
0.264191
0.263684
0.263191
0.26271
0.262248
0.261788
0.261339
0.260913
0.260492
0.260085
0.25969
0.2593
0.258914
0.258536
0.258174
0.25783
0.257502
0.25719
0.2569
0.256623
0.25636
0.256112
0.255881
0.255666
0.255468
0.255287
0.255121
0.254972
0.254838
0.254721
0.254619
0.254536
0.254469
0.254421
0.254388
0.254378
0.254382
0.254408
0.254453
0.254516
0.254598
0.254698
0.254814
0.254962
0.255107
0.255274
0.255547
0.255533
0.25618
0.255587
0.257102
0.255571
0.25834
0.255185
0.333411
0.332629
0.331841
0.331049
0.330241
0.329421
0.328599
0.327766
0.326916
0.326044
0.325166
0.324291
0.323428
0.322553
0.321651
0.320738
0.319822
0.318915
0.318009
0.317089
0.316161
0.315226
0.314293
0.313355
0.31241
0.311462
0.310489
0.309499
0.308528
0.307577
0.306616
0.305644
0.304678
0.303709
0.302745
0.301788
0.300833
0.299875
0.298917
0.29796
0.297003
0.296048
0.295097
0.294149
0.293206
0.292268
0.29133
0.290393
0.289468
0.288554
0.287647
0.286746
0.285852
0.284949
0.28404
0.283143
0.282262
0.281391
0.28053
0.279678
0.278834
0.277998
0.277171
0.276353
0.275543
0.27474
0.273946
0.27316
0.27238
0.271607
0.270846
0.270092
0.269352
0.26863
0.267918
0.267221
0.266535
0.265865
0.265216
0.264583
0.263959
0.263342
0.262739
0.262139
0.261549
0.260978
0.260414
0.259869
0.259343
0.258817
0.258315
0.257838
0.257364
0.256908
0.256476
0.256054
0.255643
0.255263
0.2549
0.254556
0.25422
0.2539
0.253592
0.253291
0.253011
0.252741
0.252493
0.252257
0.252036
0.251831
0.251644
0.25147
0.251319
0.251182
0.25107
0.250976
0.250907
0.250861
0.250835
0.250839
0.250862
0.250911
0.250981
0.251077
0.251195
0.25134
0.25152
0.251706
0.251943
0.252285
0.252347
0.253202
0.252582
0.254833
0.252448
0.257657
0.251436
0.262314
0.247605
0.335815
0.335009
0.33418
0.333328
0.332464
0.331592
0.330714
0.32981
0.328897
0.32798
0.32705
0.326102
0.325138
0.324174
0.323205
0.322231
0.32125
0.320253
0.319235
0.318221
0.31721
0.316195
0.315172
0.314129
0.313076
0.312041
0.311008
0.309971
0.308927
0.307874
0.306827
0.305786
0.304742
0.303701
0.302654
0.30159
0.300517
0.29945
0.298392
0.297338
0.296289
0.295244
0.294205
0.293171
0.292141
0.291119
0.290098
0.289073
0.288051
0.287041
0.28604
0.285043
0.284053
0.283069
0.282088
0.281114
0.280156
0.279205
0.278263
0.277331
0.276409
0.275497
0.274593
0.2737
0.272813
0.271936
0.271067
0.270208
0.269361
0.268523
0.267701
0.266896
0.266107
0.265332
0.264573
0.263831
0.263101
0.262382
0.261673
0.260973
0.260295
0.259623
0.258963
0.258328
0.257708
0.257097
0.256497
0.255912
0.255332
0.254776
0.254232
0.253699
0.253192
0.252697
0.252202
0.251719
0.25127
0.250829
0.250416
0.250017
0.249643
0.249286
0.248949
0.248638
0.248335
0.248066
0.247806
0.247571
0.247355
0.247161
0.246983
0.246832
0.246699
0.246592
0.246504
0.24644
0.246397
0.246374
0.246378
0.246399
0.246447
0.246516
0.246617
0.246746
0.24691
0.247101
0.247348
0.247678
0.247826
0.248619
0.248248
0.250118
0.248392
0.252295
0.248163
0.255086
0.246169
0.261115
0.231561
0.338621
0.337757
0.336879
0.335993
0.335085
0.334147
0.33319
0.332233
0.331256
0.330248
0.329234
0.328225
0.327205
0.326155
0.325088
0.324003
0.322915
0.321824
0.320738
0.319644
0.318516
0.317375
0.316239
0.315108
0.313977
0.312823
0.31166
0.310525
0.309391
0.308221
0.307041
0.305864
0.304675
0.303504
0.302352
0.301191
0.300028
0.298871
0.297712
0.296553
0.295398
0.294246
0.293096
0.291947
0.290798
0.289647
0.288502
0.287372
0.286251
0.285129
0.28402
0.282922
0.281835
0.280765
0.279709
0.278657
0.277612
0.27658
0.275557
0.274545
0.27354
0.272543
0.271558
0.270582
0.269621
0.268672
0.267737
0.266816
0.265905
0.265008
0.26412
0.26324
0.262371
0.26151
0.260666
0.259839
0.259023
0.258231
0.257455
0.25669
0.255945
0.255229
0.254533
0.25384
0.253169
0.252522
0.251893
0.251278
0.250692
0.250121
0.24956
0.249015
0.248482
0.247959
0.247453
0.246977
0.2465
0.246045
0.245599
0.245159
0.244741
0.244336
0.243953
0.243582
0.243239
0.242904
0.242599
0.242314
0.242046
0.241804
0.241588
0.241409
0.241245
0.241099
0.240976
0.24088
0.240806
0.240756
0.240726
0.240728
0.240743
0.240808
0.240889
0.241012
0.241169
0.241348
0.241516
0.241889
0.24183
0.242648
0.242069
0.243548
0.242382
0.244319
0.243095
0.244529
0.243148
0.251227
0.218449
0.3423
0.341387
0.340437
0.339447
0.338442
0.337434
0.336393
0.335309
0.334222
0.333138
0.332012
0.330848
0.329671
0.328493
0.327314
0.326126
0.324923
0.323695
0.322449
0.321191
0.319952
0.318735
0.317479
0.316193
0.314908
0.313622
0.312335
0.311013
0.309696
0.308407
0.307117
0.305819
0.304534
0.303225
0.301911
0.300636
0.299383
0.29812
0.296847
0.295575
0.294304
0.293032
0.29176
0.290491
0.289224
0.287961
0.28672
0.285493
0.28427
0.283071
0.281875
0.280684
0.279495
0.27831
0.277134
0.275962
0.274791
0.273631
0.272487
0.271349
0.270223
0.269113
0.26802
0.266942
0.265885
0.264848
0.263829
0.262829
0.261852
0.260894
0.259957
0.25904
0.258143
0.257265
0.256394
0.255538
0.254698
0.25386
0.253028
0.252216
0.251418
0.25062
0.249827
0.249052
0.248295
0.247555
0.246824
0.246116
0.245438
0.24477
0.244129
0.24351
0.242899
0.242317
0.241775
0.241239
0.240731
0.240251
0.239774
0.239338
0.238922
0.238523
0.238139
0.237773
0.237425
0.237099
0.236792
0.236497
0.236234
0.235985
0.235752
0.235524
0.235319
0.235136
0.234977
0.234838
0.234716
0.234626
0.234558
0.234513
0.234503
0.234492
0.234523
0.234535
0.234582
0.234659
0.234611
0.234865
0.234639
0.23511
0.234745
0.235343
0.235047
0.23537
0.235943
0.235589
0.235762
0.242697
0.212521
0.346817
0.345746
0.344669
0.343584
0.342454
0.341279
0.340109
0.338929
0.337711
0.336462
0.335211
0.333954
0.332673
0.331373
0.330041
0.328696
0.327334
0.325975
0.324618
0.323224
0.321807
0.320374
0.318944
0.317527
0.316108
0.314671
0.313231
0.31183
0.310409
0.308946
0.307488
0.306078
0.304667
0.303222
0.30176
0.300293
0.298829
0.297371
0.295929
0.294503
0.293086
0.291681
0.290289
0.288913
0.28755
0.286184
0.284809
0.283428
0.282064
0.280708
0.279357
0.278025
0.276717
0.275422
0.27413
0.272862
0.271619
0.270395
0.269181
0.267988
0.266805
0.265631
0.264466
0.263312
0.262167
0.26103
0.259905
0.258792
0.257689
0.256596
0.255515
0.254449
0.253396
0.252363
0.25136
0.250371
0.249412
0.248491
0.247593
0.246716
0.245869
0.245063
0.244269
0.243488
0.242736
0.242001
0.241274
0.24056
0.239851
0.239158
0.238475
0.237807
0.237161
0.236533
0.235902
0.23529
0.23471
0.234133
0.233597
0.233078
0.232566
0.232073
0.231611
0.231187
0.230804
0.230429
0.230067
0.229733
0.229414
0.229111
0.228836
0.228572
0.228332
0.228116
0.22792
0.22774
0.227588
0.227443
0.227316
0.227213
0.227102
0.227026
0.226935
0.226885
0.226806
0.226823
0.226693
0.226824
0.226646
0.226884
0.226673
0.226964
0.226985
0.226725
0.227204
0.226233
0.224951
0.232005
0.205429
0.352097
0.350911
0.349681
0.348397
0.347125
0.345844
0.344508
0.343136
0.341761
0.340377
0.338952
0.337502
0.336029
0.334561
0.333068
0.331562
0.330038
0.328492
0.326949
0.325389
0.323825
0.32226
0.320663
0.319062
0.317458
0.315839
0.314211
0.312581
0.310939
0.309317
0.307699
0.306055
0.304424
0.302821
0.301219
0.299632
0.298055
0.296475
0.294897
0.29332
0.291744
0.290177
0.288621
0.287067
0.2855
0.283931
0.282385
0.280894
0.279416
0.277933
0.27648
0.275042
0.273612
0.272181
0.270767
0.269376
0.267989
0.266602
0.26523
0.263873
0.26254
0.261237
0.259957
0.258702
0.257469
0.256263
0.255081
0.253922
0.252784
0.251663
0.250562
0.249481
0.248423
0.247368
0.246328
0.245314
0.244293
0.24328
0.242292
0.2413
0.240313
0.239366
0.238447
0.237534
0.236639
0.235785
0.234965
0.234175
0.233402
0.232646
0.231932
0.231239
0.230565
0.229908
0.229291
0.228692
0.228088
0.227518
0.226969
0.226424
0.2259
0.225403
0.224917
0.224448
0.223966
0.223514
0.223089
0.222679
0.22229
0.221933
0.221581
0.221256
0.220954
0.22067
0.220403
0.220156
0.219925
0.219706
0.219502
0.219307
0.219138
0.218956
0.218804
0.218668
0.218512
0.218441
0.218262
0.218288
0.218077
0.218192
0.218019
0.218029
0.218296
0.218004
0.218087
0.217332
0.215891
0.22215
0.19899
0.358198
0.35684
0.355443
0.354001
0.352525
0.351016
0.349487
0.347936
0.346327
0.344703
0.343078
0.341425
0.339743
0.338033
0.336314
0.334627
0.332923
0.331165
0.329398
0.327616
0.325812
0.32401
0.322211
0.320408
0.318606
0.316797
0.314983
0.313152
0.311321
0.309516
0.30773
0.305932
0.304118
0.3023
0.300499
0.298725
0.296955
0.295194
0.29344
0.291688
0.289941
0.288198
0.286459
0.284727
0.283031
0.281364
0.279736
0.278106
0.27645
0.274837
0.273247
0.271654
0.270077
0.268512
0.266972
0.265452
0.263935
0.262447
0.260996
0.259566
0.258155
0.256746
0.255349
0.253974
0.25262
0.251284
0.249963
0.248666
0.247393
0.246148
0.244932
0.243737
0.242559
0.241428
0.240314
0.239209
0.238162
0.237142
0.236122
0.235146
0.234205
0.233254
0.232304
0.231383
0.230475
0.229571
0.228677
0.227792
0.226943
0.226124
0.225329
0.224554
0.223799
0.223082
0.222364
0.221667
0.221016
0.220386
0.219756
0.219161
0.218597
0.218062
0.21755
0.217038
0.216552
0.216078
0.215621
0.21519
0.214778
0.214366
0.213974
0.213619
0.213272
0.212934
0.212613
0.212306
0.212006
0.211722
0.211449
0.211198
0.210956
0.210745
0.21053
0.210382
0.210167
0.210089
0.209875
0.209859
0.209673
0.209671
0.209587
0.209445
0.209596
0.209003
0.208629
0.208006
0.20683
0.212253
0.191938
0.364951
0.363349
0.361712
0.360067
0.358376
0.356641
0.354882
0.353111
0.351318
0.349496
0.347624
0.345736
0.34386