/*--------------------------------*- C++ -*----------------------------------*\
| =========                 |                                                 |
| \\      /  F ield         | OpenFOAM: The Open Source CFD Toolbox           |
|  \\    /   O peration     | Version:  5.x                                   |
|   \\  /    A nd           | Web:      www.OpenFOAM.org                      |
|    \\/     M anipulation  |                                                 |
\*---------------------------------------------------------------------------*/
/*   Windows 32 and 64 bit porting by blueCAPE: http://www.bluecape.com.pt   *\
|  Based on Windows porting (2.0.x v4) by Symscape: http://www.symscape.com   |
\*---------------------------------------------------------------------------*/
FoamFile
{
    version     2.0;
    format      ascii;
    class       surfaceScalarField;
    location    "390";
    object      phi;
}
// * * * * * * * * * * * * * * * * * * * * * * * * * * * * * * * * * * * * * //

dimensions      [0 3 -1 0 0 0 0];

internalField   nonuniform List<scalar> 
87341
(
0.366399
39.5566
0.530945
39.7585
0.498429
39.9556
0.605495
39.816
0.642929
39.8856
0.688483
39.8775
0.726468
39.8851
0.765483
39.884
0.802692
39.8858
0.83491
39.8908
0.866809
39.8911
0.895433
39.8944
0.924294
39.8942
0.950362
39.897
0.973635
39.8998
0.996357
39.9003
1.01772
39.9017
1.03949
39.9013
1.06005
39.9025
1.07703
39.9061
1.09461
39.9055
1.11416
39.9035
1.13285
39.9044
1.14419
39.9117
1.14857
39.9187
1.1587
39.9129
1.18263
39.8991
1.21152
39.8941
39.9046
1.22995
0.971199
38.5854
1.36412
39.3656
1.47589
39.8438
1.61319
39.6787
1.6533
39.8455
1.81204
39.7187
1.91381
39.7833
2.04542
39.7524
2.14331
39.7879
2.25024
39.7839
2.34886
39.7925
2.44162
39.8017
2.52718
39.8086
2.61087
39.8133
2.68903
39.8216
2.75551
39.8338
2.82017
39.837
2.88637
39.8351
2.94512
39.8437
2.99764
39.8535
3.04506
39.858
3.08129
39.8673
3.10854
39.8771
3.1424
39.8778
3.19656
39.8645
3.25524
39.8542
3.28866
39.8657
3.29581
39.887
39.9021
3.29829
2.03559
36.5498
3.35235
38.0488
4.1324
39.0637
4.2165
39.5946
4.37444
39.6875
4.30958
39.7836
4.34007
39.7528
4.31237
39.7801
4.33236
39.7679
4.3456
39.7707
4.36511
39.773
4.39224
39.7745
4.42277
39.7781
4.45622
39.7798
4.49265
39.7852
4.53712
39.7894
4.57968
39.7945
4.61452
39.8002
4.65601
39.8022
4.70692
39.8026
4.7544
39.8106
4.80326
39.8184
4.86404
39.8163
4.93067
39.8112
4.97743
39.8177
5.0008
39.8309
5.0209
39.8456
5.0643
39.8436
39.8362
5.13022
1.70031
34.8495
3.5054
36.2437
4.96071
37.6084
5.85284
38.7024
6.15793
39.3825
6.24974
39.6918
6.26968
39.7329
6.30613
39.7437
6.32844
39.7456
6.34785
39.7512
6.36445
39.7564
6.37697
39.762
6.39272
39.7623
6.40798
39.7646
6.42439
39.7688
6.44504
39.7687
6.47719
39.7623
6.5154
39.762
6.54752
39.7701
6.57561
39.7745
6.61417
39.772
6.66904
39.7635
6.7219
39.7635
6.75767
39.7754
6.78789
39.7875
6.83012
39.7886
6.88917
39.7865
6.95138
39.7814
39.7783
7.00925
1.09547
33.7541
2.46876
34.8704
4.04834
36.0288
5.52016
37.2306
6.59845
38.3042
7.19415
39.0961
7.4096
39.5174
7.46016
39.6931
7.50902
39.6968
7.56045
39.6998
7.61041
39.7065
7.66464
39.7078
7.72004
39.7069
7.76547
39.7191
7.81197
39.7223
7.86469
39.716
7.9067
39.7203
7.95235
39.7164
8.00276
39.7197
8.05335
39.7239
8.10169
39.7237
8.1356
39.7296
8.16673
39.7323
8.20681
39.7353
8.26141
39.7329
8.32292
39.7271
8.38415
39.7253
8.43275
39.7328
39.7364
8.47465
0.8593
32.8948
1.87813
33.8516
3.0538
34.8532
4.39093
35.8935
5.75274
36.9424
6.89701
37.9518
7.63167
38.7827
7.99167
39.3331
8.12613
39.5623
8.21218
39.6138
8.30512
39.6135
8.39492
39.618
8.47906
39.6228
8.56955
39.6286
8.65241
39.6394
8.73602
39.6324
8.82511
39.6312
8.89924
39.6422
8.97574
39.6432
9.06287
39.6368
9.14672
39.6398
9.22877
39.6476
9.31043
39.6507
9.39599
39.6498
9.48429
39.6446
9.56471
39.6467
9.63804
39.652
9.71635
39.6545
39.6542
9.79855
0.756857
32.1379
1.61453
32.9939
2.57594
33.8918
3.64493
34.8245
4.81108
35.7762
6.03503
36.7279
7.15916
37.6586
8.00077
38.4915
8.47137
39.0917
8.67989
39.4052
8.8021
39.4913
8.93154
39.4885
9.06158
39.4928
9.18823
39.502
9.32057
39.5071
9.44957
39.5034
9.57402
39.5068
9.70206
39.5142
9.82525
39.52
9.93433
39.5277
10.0499
39.5243
10.1784
39.5191
10.311
39.5181
10.4317
39.5291
10.5414
39.5349
10.6516
39.5365
10.7549
39.5487
10.8555
39.5539
39.5592
10.9505
0.704341
31.4336
1.47834
32.2199
2.32548
33.0446
3.2482
33.9018
4.24406
34.7803
5.30423
35.6677
6.41351
36.5493
7.50015
37.4049
8.38605
38.2058
8.95434
38.837
9.22776
39.2179
9.37735
39.3389
9.52759
39.3425
9.68041
39.3492
9.82688
39.3606
9.97272
39.3575
10.1257
39.3538
10.2744
39.3654
10.4163
39.3781
10.5683
39.3758
10.7071
39.3855
10.8404
39.3858
10.9745
39.3839
11.1183
39.3853
11.2528
39.4004
11.3769
39.4124
11.5069
39.4187
11.6499
39.4108
39.4057
11.8034
0.67567
30.7579
1.40267
31.4929
2.18447
32.2628
3.02307
33.0632
3.91798
33.8854
4.86574
34.7199
5.85894
35.5561
6.88183
36.382
7.90489
37.1827
8.8027
37.9391
9.43988
38.5807
9.77332
39.0055
9.95793
39.1579
10.1379
39.1692
10.3236
39.1748
10.4947
39.1865
10.663
39.1855
10.8423
39.1862
11.0264
39.194
11.1968
39.2053
11.3739
39.2084
11.5418
39.2179
11.6957
39.2299
11.8419
39.2391
12.0035
39.2388
12.1797
39.2362
12.3437
39.2547
12.4865
39.268
39.2726
12.6197
0.659857
30.098
1.36183
30.791
2.10627
31.5184
2.89476
32.2747
3.72743
33.0528
4.60265
33.8447
5.51657
34.6422
6.46216
35.4364
7.42771
36.2172
8.39427
36.9726
9.29043
37.6846
9.97704
38.3189
10.3735
38.7615
10.5972
38.9455
10.8072
38.9648
11.0166
38.9772
11.2247
38.9774
11.426
38.9849
11.6284
38.9916
11.837
38.9967
12.0422
39.0031
12.2488
39.0114
12.4537
39.025
12.6503
39.0425
12.8355
39.0536
13.0129
39.0588
13.2076
39.06
13.4162
39.0593
39.0861
13.6027
0.656131
29.4419
1.34689
30.1002
2.07262
30.7926
2.83404
31.5133
3.63108
32.2557
4.46265
33.0131
5.32641
33.7785
6.21848
34.5443
7.13275
35.3029
8.05971
36.0456
8.9828
36.7615
9.86714
37.4345
10.577
38.0516
11.015
38.5075
11.2713
38.7085
11.5099
38.7386
11.7407
38.7466
11.9832
38.7424
12.2111
38.7637
12.433
38.7748
12.666
38.7702
12.8943
38.783
13.1207
38.7985
13.3608
38.8025
13.5859
38.8285
13.7932
38.8515
13.9855
38.8677
14.1615
38.8834
38.8834
14.3642
0.660746
28.7812
1.35014
29.4108
2.06987
30.0729
2.82018
30.763
3.60076
31.4751
4.41055
32.2034
5.24771
32.9413
6.10943
33.6826
6.99163
34.4207
7.88836
35.1489
8.79036
35.8595
9.68164
36.5433
10.5455
37.1878
11.2715
37.7814
11.7424
38.2376
12.0401
38.4408
12.3077
38.479
12.5644
38.4856
12.8445
38.4837
13.0963
38.523
13.3306
38.5359
13.5812
38.5324
13.8235
38.5562
14.0457
38.5803
14.2795
38.5947
14.5212
38.6098
14.7664
38.6225
15.0004
38.6493
38.681
15.2027
0.667415
28.1138
1.3616
28.7166
2.08272
29.3518
2.83076
30.0149
3.60533
30.7006
4.40557
31.4031
5.22991
32.117
6.07613
32.8364
6.94118
33.5557
7.82095
34.2691
8.70972
34.9707
9.59921
35.6538
10.4768
36.3102
11.3291
36.9291
12.0667
37.5
12.5568
37.9507
12.8826
38.1532
13.1803
38.1879
13.4572
38.2069
13.7632
38.217
14.0387
38.2604
14.3006
38.2706
14.5778
38.279
14.8458
38.3124
15.1069
38.3336
15.3487
38.368
15.5857
38.3855
15.8349
38.4002
38.4282
16.0878
0.677264
27.4365
1.37888
28.015
2.10515
28.6255
2.85599
29.2641
3.63066
29.9259
4.42828
30.6055
5.24759
31.2976
6.0867
31.9973
6.94314
32.6992
7.8138
33.3985
8.69465
34.0898
9.58036
34.7681
10.4635
35.4271
11.3331
36.0595
12.1775
36.6556
12.9212
37.207
13.4209
37.6535
13.7642
37.8446
14.0881
37.883
14.3938
37.9112
14.7169
37.9373
15.0158
37.9717
15.3011
37.9936
15.5968
38.0167
15.8858
38.0446
16.1841
38.0697
16.4618
38.1078
16.7255
38.1365
38.1559
16.9978
0.689851
26.7466
1.40233
27.3025
2.13757
27.8903
2.8956
28.5061
3.67583
29.1457
4.47709
29.8042
5.29818
30.4765
6.13759
31.1579
6.99327
31.8436
7.8627
32.529
8.74275
33.2098
9.62953
33.8813
10.5179
34.5387
11.401
35.1765
12.2686
35.788
13.1115
36.3642
13.8638
36.9011
14.3697
37.3387
14.7285
37.5242
15.0834
37.5563
15.4152
37.6056
15.7539
37.6329
16.0802
37.6674
16.403
37.6939
16.7045
37.7431
16.9997
37.7746
17.3085
37.799
17.6013
37.8437
37.8859
17.8712
0.703785
26.0429
1.429
26.5773
2.17563
27.1436
2.94352
27.7382
3.73235
28.3568
4.54112
28.9955
5.36834
29.6493
6.2126
30.3136
7.07219
30.984
7.94501
31.6562
8.8285
32.3263
9.71957
32.9902
10.6144
33.6439
11.5079
34.2829
12.3934
34.9025
13.2608
35.4968
14.1041
36.0579
14.8581
36.5847
15.3658
37.0165
15.7347
37.1874
16.1115
37.2287
16.457
37.2874
16.809
37.3154
17.1467
37.3562
17.4994
37.3904
17.8183
37.4556
18.1287
37.4886
18.463
37.5093
37.5837
18.7653
0.71766
25.3252
1.45596
25.839
2.21473
26.3849
2.99364
26.9593
3.79221
27.5583
4.60981
28.1779
5.44515
28.814
6.29659
29.4622
7.16247
30.1181
8.04086
30.7778
8.92949
31.4377
9.82576
32.0939
10.7265
32.7431
11.628
33.3815
12.5252
34.0053
13.4118
34.6102
14.2786
35.191
15.1214
35.7419
15.8748
36.2631
16.3813
36.681
16.7677
36.8423
17.1565
36.8986
17.5189
36.953
17.8845
36.9907
18.2307
37.0441
18.6056
37.0808
18.9252
37.1689
19.2279
37.2067
37.2355
19.576
0.731737
24.5935
1.48347
25.0873
2.25503
25.6133
3.04601
26.1683
3.8558
26.7485
4.68366
27.35
5.52868
27.969
6.3894
28.6014
7.26418
29.2433
8.15129
29.8907
9.04865
30.5403
9.95393
31.1887
10.8645
31.8325
11.7772
32.4687
12.6885
33.094
13.5936
33.705
14.4868
34.2978
15.3607
34.8681
16.2122
35.4115
16.9658
35.9274
17.4785
36.3296
17.8868
36.4902
18.2747
36.5651
18.6526
36.6128
19.0165
36.6803
19.3672
36.7301
19.7553
36.7808
20.0791
36.8829
36.9475
20.3672
0.744786
23.8487
1.50916
24.3229
2.2929
24.8296
3.0956
25.3656
3.91664
25.9275
4.75516
26.5115
5.61024
27.1139
6.48063
27.7311
7.36471
28.3592
8.26087
28.9946
9.16731
29.6339
10.082
30.274
11.0026
30.9119
11.9265
31.5448
12.8507
32.1699
13.7716
32.7841
14.685
33.3845
15.5854
33.9676
16.4669
34.5301
17.3248
35.0694
18.0705
35.584
18.5835
35.9772
18.9953
36.1533
19.3762
36.2319
19.7625
36.2939
20.1105
36.3821
20.4398
36.4515
20.8434
36.4792
36.5834
21.2075
0.756297
23.0924
1.53189
23.5473
2.3265
24.035
3.13968
24.5524
3.97079
25.0963
4.819
25.6633
5.68332
26.2496
6.56263
26.8517
7.45544
27.4664
8.36003
28.09
9.2747
28.7192
10.1975
29.3512
11.1264
29.983
12.0591
30.6122
12.9929
31.2361
13.9248
31.8521
14.8515
32.4578
15.7687
33.0504
16.6716
33.6272
17.5555
34.1855
18.4146
34.7249
19.1507
35.2411
19.6639
35.6401
20.0852
35.8106
20.4861
35.893
20.9097
35.9585
21.293
36.0682
21.6158
36.1564
36.1989
22.0003
0.766559
22.3258
1.55213
22.7617
2.35646
23.2306
3.17908
23.7298
4.01937
24.2561
4.87649
24.8062
5.74941
25.3767
6.63703
25.9641
7.53808
26.5653
8.45092
27.1771
9.37385
27.7963
10.3051
28.4199
11.2427
29.0454
12.1846
29.6703
13.1284
30.2922
14.0717
30.9088
15.0116
31.5179
15.9449
32.1172
16.8678
32.7042
17.7766
33.2767
18.6686
33.8329
19.5358
34.3739
20.276
34.8998
20.7957
35.2909
21.2015
35.4872
21.586
35.5741
22.0186
35.6356
22.4141
35.7609
35.8582
22.7547
0.775173
21.5506
1.5692
21.9677
2.38178
22.4181
3.21247
22.8991
4.06064
23.4079
4.9255
23.9413
5.80605
24.4961
6.70117
25.069
7.60961
25.6569
8.52993
26.2568
9.46047
26.8657
10.3995
27.4808
11.3453
28.0997
12.2958
28.7198
13.249
29.339
14.2027
29.9552
15.1544
30.5663
16.1014
31.1702
17.0407
31.7649
17.969
32.3484
18.8829
32.919
19.781
33.4758
20.6566
34.0242
21.3856
34.5619
21.9
34.9728
22.3167
35.1574
22.6943
35.2579
23.1143
35.3409
35.486
23.4865
0.782228
20.7684
1.58311
21.1668
2.40236
21.5988
3.23956
22.0619
4.09408
22.5534
4.96515
23.0702
5.8518
23.6094
6.75289
24.1679
7.66718
24.7426
8.59333
25.3307
9.52976
25.9293
10.4748
26.5358
11.4268
27.1477
12.3839
27.7627
13.3441
28.3788
14.3055
28.9939
15.2657
29.606
16.2224
30.2134
17.1731
30.8143
18.1148
31.4067
19.0446
31.9892
19.9599
32.5605
20.863
33.1212
21.7455
33.6794
22.4824
34.2359
22.9892
34.6506
23.4053
34.8419
23.7953
34.9509
35.1015
24.1798
0.787492
19.9809
1.5935
20.3608
2.41772
20.7746
3.25973
21.2199
4.11893
21.6941
4.99458
22.1946
5.88574
22.7183
6.79132
23.2623
7.7101
23.8238
8.64073
24.4
9.58172
24.9883
10.5314
25.5861
11.4881
26.191
12.4501
26.8008
13.4154
27.4134
14.3822
28.0271
15.3485
28.6398
16.312
29.2499
17.2706
29.8557
18.2218
30.4555
19.1631
31.0479
20.092
31.6316
21.0072
32.206
21.9149
32.7717
22.8119
33.3389
23.5461
33.9163
24.0355
34.3525
24.4345
34.5519
34.6949
24.8411
0.791357
19.1896
1.60104
19.5512
2.42878
19.9468
3.27417
20.3745
4.13664
20.8317
5.01544
21.3158
5.90965
21.8241
6.81819
22.3538
7.73982
22.9022
8.67322
23.4666
9.61696
24.0446
10.5695
24.6336
11.529
25.2314
12.494
25.8358
13.4626
26.4449
14.4328
27.0568
15.4028
27.6698
16.3705
28.2822
17.3339
28.8923
18.2907
29.4987
19.2387
30.0999
20.1756
30.6947
21.0996
31.282
22.0096
31.8617
22.915
32.4335
23.817
33.0143
24.554
33.6155
25.0151
34.0908
34.3092
25.4007
0.793736
18.3958
1.60563
18.7393
2.4354
19.1171
3.28267
19.5272
4.14688
19.9675
5.02731
20.4354
5.92305
20.9283
6.83304
21.4438
7.75608
21.9792
8.69081
22.5319
9.63583
23.0995
10.5895
23.6799
11.5503
24.2706
12.5165
24.8697
13.4862
25.4752
14.4577
26.0853
15.429
26.6984
16.3983
27.3129
17.3634
27.9272
18.3224
28.5397
19.2731
29.1493
20.2133
29.7545
21.141
30.3543
22.0547
30.948
22.9528
31.5354
23.8506
32.1165
24.7554
32.7108
25.493
33.3532
33.8599
25.9423
0.794773
17.6011
1.60751
17.9265
2.43795
18.2866
3.28572
18.6795
4.15031
19.1029
5.031
19.5547
5.92693
20.0324
6.83706
20.5337
7.7602
21.056
8.69504
21.5971
9.64013
22.1545
10.5939
22.7261
11.5547
23.3098
12.5207
23.9036
13.4902
24.5057
14.4613
25.1142
15.4322
25.7276
16.4009
26.3442
17.3655
26.9626
18.324
27.5813
19.2743
28.199
20.2144
28.8144
21.1423
29.4264
22.0563
30.034
22.9549
30.6368
23.8369
31.2344
24.721
31.8267
25.6294
32.4448
33.1259
26.3634
0.794659
16.8064
1.60706
17.1141
2.43698
17.4567
3.2841
17.8323
4.14792
18.2391
5.02776
18.6748
5.92279
19.1374
6.83196
19.6245
7.75409
20.1339
8.68783
20.6633
9.63174
21.2106
10.5843
21.7736
11.5437
22.3504
12.5083
22.939
13.4763
23.5377
14.4458
24.1447
15.4149
24.7585
16.3816
25.3775
17.3439
26.0002
18.2999
26.6253
19.2475
27.2513
20.1848
27.8771
21.1097
28.5014
22.0204
29.1233
22.9154
29.7418
23.7933
30.3566
24.6524
30.9676
25.5213
31.5759
32.2255
26.4217
0.793389
16.013
1.60428
16.3032
2.43251
16.6285
3.27778
16.9871
4.13966
17.3772
5.01751
17.797
5.9105
18.2444
6.81762
18.7174
7.73769
19.2138
8.66937
19.7316
9.61119
20.2687
10.5616
20.8232
11.5189
21.3931
12.4812
21.9766
13.4468
22.5721
14.4138
23.1778
15.38
23.7923
16.3436
24.4139
17.3025
25.0414
18.2546
25.6732
19.1978
26.3081
20.1303
26.9447
21.0499
27.5819
21.9547
28.2184
22.8431
28.8534
23.7136
29.486
24.5654
30.1158
25.3985
30.7428
31.3706
26.2534
0.790963
15.222
1.59917
15.495
2.4245
15.8031
3.26674
16.1448
4.12551
16.5184
5.00023
16.9222
5.89011
17.3545
6.79417
17.8133
7.71125
18.2967
8.64005
18.8028
9.57909
19.3297
10.5268
19.8755
11.4813
20.4385
12.4409
21.017
13.4037
21.6093
14.3675
22.214
15.3304
22.8294
16.2902
23.4541
17.2449
24.0867
18.1923
24.7258
19.1301
25.3702
20.0564
26.0184
20.969
26.6692
21.866
27.3215
22.7454
27.974
23.6057
28.6258
24.4455
29.276
25.2642
29.9241
30.5683
26.0665
0.787359
14.4347
1.59167
14.6907
2.41289
14.9819
3.25091
15.3068
4.10543
15.6639
4.97593
16.0517
5.86169
16.4688
6.76176
16.9133
7.67504
17.3835
8.60022
17.8777
9.53583
18.3941
10.4802
18.9311
11.4316
19.4871
12.3882
20.0605
13.3478
20.6497
14.3083
21.2534
15.2677
21.87
16.2237
22.4981
17.174
23.1364
18.1163
23.7835
19.0484
24.4381
19.968
25.0988
20.8729
25.7644
21.7608
26.4335
22.6299
27.1049
23.4783
27.7774
24.3043
28.4499
25.107
29.1214
29.7901
25.8853
0.782508
13.6522
1.58164
13.8916
2.39748
14.1661
3.23003
14.4743
4.0791
14.8148
4.94426
15.1866
5.82485
15.5882
6.72001
16.0181
7.62864
16.4748
8.54946
16.9568
9.48098
17.4626
10.4216
17.9905
11.3694
18.5393
12.3225
19.1074
13.2788
19.6934
14.2361
20.2961
15.1921
20.9139
16.1445
21.5457
17.0908
22.1901
18.0284
22.8458
18.9551
23.5115
19.8681
24.1857
20.7653
24.8673
21.6441
25.5547
22.5023
26.2467
23.3379
26.9418
24.1492
27.6387
24.9345
28.336
29.0319
25.6927
0.776293
12.8759
1.56886
13.099
2.37792
13.357
3.20363
13.6485
4.04593
13.9725
4.90448
14.328
5.77873
14.7139
6.66786
15.129
7.57086
15.5718
8.48648
16.0412
9.41324
16.5358
10.3495
17.0543
11.2934
17.5953
12.2431
18.1578
13.1962
18.7403
14.1505
19.3418
15.1035
19.9609
16.0528
20.5965
16.9956
21.2473
17.9294
21.9121
18.8512
22.5896
19.7585
23.2785
20.6485
23.9773
21.5186
24.6846
22.3663
25.399
23.1893
26.1188
23.9854
26.8426
24.7529
27.5685
28.2948
25.4901
0.7686
12.1073
1.55312
12.3145
2.35391
12.5562
3.17133
12.8311
4.00544
13.1384
4.85604
13.4774
5.72267
13.8473
6.60463
14.247
7.50097
14.6755
8.41051
15.1317
9.33183
15.6145
10.2633
16.1228
11.2031
16.6556
12.1491
17.2118
13.0991
17.7903
14.0507
18.3902
15.0013
19.0103
15.9482
19.6496
16.8884
20.307
17.8191
20.9814
18.7373
21.6714
19.6399
22.3759
20.5239
23.0933
21.3863
23.8222
22.2243
24.561
23.0352
25.3079
23.8165
26.0612
24.5662
26.8189
27.5788
25.2821
0.759323
11.348
1.53421
11.5396
2.3252
11.7652
3.1328
12.0235
3.95727
12.314
4.79853
12.6362
5.65626
12.9896
6.52985
13.3734
7.41845
13.7869
8.32097
14.2292
9.23606
14.6994
10.1621
15.1967
11.0973
15.7204
12.0396
16.2695
12.9866
16.8433
13.9357
17.441
14.8843
18.0617
15.8295
18.7045
16.7681
19.3684
17.697
20.0525
18.6128
20.7556
19.5121
21.4765
20.3916
22.2139
21.2477
22.966
22.0773
23.7314
22.8772
24.508
23.6446
25.2938
24.3769
26.0866
26.8839
25.0719
0.74837
10.5996
1.512
10.776
2.29158
10.9857
3.08783
11.2273
3.90116
11.5006
4.73166
11.8057
5.57912
12.1421
6.44308
12.5094
7.3228
12.9072
8.21728
13.3347
9.12524
13.7914
10.0451
14.2768
10.9752
14.7903
11.9132
15.3315
12.8569
15.8996
13.8038
16.4942
14.7509
17.1146
15.6952
17.7602
16.6333
18.4303
17.5618
19.1241
18.4768
19.8406
19.3746
20.5787
20.2514
21.3372
21.1031
22.1143
21.9259
22.9085
22.7164
23.7175
23.4711
24.5391
24.1869
25.3707
26.2094
24.8614
0.735661
9.86393
1.48636
10.0253
2.25292
10.2191
3.03625
10.4439
3.83691
10.7
4.65514
10.9874
5.49089
11.3064
6.34382
11.6565
7.21333
12.0377
8.09854
12.4495
8.99826
12.8917
9.91103
13.3641
10.8351
13.8663
11.7685
14.3981
12.7089
14.9592
13.6536
15.5495
14.5997
16.1685
15.5439
16.8159
16.4827
17.4915
17.4122
18.1946
18.3283
18.9245
19.2266
19.6804
20.1028
20.461
20.9523
21.2649
21.7706
22.0901
22.5536
22.9346
23.2971
23.7956
23.9976
24.6702
25.5549
24.6522
0.721141
9.14279
1.45723
9.2892
2.20914
9.46719
2.97794
9.67515
3.76434
9.91356
4.56873
10.183
5.3912
10.4839
6.23158
10.8161
7.0894
11.1798
7.96392
11.575
8.85412
12.0015
9.75868
12.4595
10.676
12.949
11.6041
13.4699
12.5408
14.0226
13.4834
14.6069
14.4288
15.223
15.3737
15.871
16.3143
16.5509
17.2465
17.2624
18.1656
18.0053
19.0669
18.7791
19.9452
19.5827
20.7952
20.4148
21.6117
21.2736
22.3896
22.1568
23.1239
23.0612
23.8106
23.9835
24.9195
24.446
0.704788
8.438
1.42458
8.56941
2.16018
8.73159
2.91277
8.92256
3.68321
9.14312
4.47203
9.39422
5.27948
9.67643
6.10555
9.99007
6.94996
10.3354
7.81215
10.7128
8.69126
11.1224
9.58616
11.5646
10.4954
12.0397
11.4173
12.5481
12.3495
13.0903
13.2895
13.6669
14.2343
14.2782
15.1806
14.9248
16.1242
15.6072
17.0609
16.3258
17.9855
17.0807
18.8926
17.8719
19.7764
18.6989
20.6305
19.5607
21.4488
20.4554
22.2249
21.3807
22.9529
22.3332
23.6277
23.3087
24.3022
24.2449
0.686611
7.75139
1.38838
7.86764
2.1059
8.01406
2.84044
8.18803
3.59298
8.39058
4.36421
8.62299
5.15455
8.88609
5.96418
9.18044
6.79301
9.5066
7.64069
9.8651
8.50659
10.2565
9.3898
10.6814
10.2891
11.1404
11.2029
11.6343
12.1292
12.164
13.0658
12.7303
14.0097
13.3343
14.9576
13.9769
15.9054
14.6594
16.8484
15.3827
17.7812
16.1479
18.6977
16.9555
19.591
17.8056
20.4539
18.6978
21.2787
19.6306
22.0577
20.6017
22.7836
21.6073
23.4497
22.6426
23.7013
24.0506
0.666644
7.08474
1.34857
7.18571
2.04603
7.3166
2.76036
7.4737
3.4927
7.65824
4.24387
7.87182
5.0145
8.11546
5.80496
8.38998
6.61537
8.69618
7.44563
9.03484
8.29536
9.40677
9.16393
9.81281
10.0504
10.2539
10.9536
10.7311
11.872
11.2456
12.8034
11.7989
13.7453
12.3924
14.6945
13.0277
15.6469
13.7069
16.5978
14.4318
17.5414
15.2043
18.4709
16.026
19.3786
16.8979
20.2558
17.8205
21.0934
18.793
21.8817
19.8134
22.6113
20.8777
23.2737
21.9802
23.1132
23.8618
0.64492
6.43982
1.30498
6.52565
1.98007
6.64152
2.67164
6.78213
3.38097
6.9489
4.10908
7.1437
4.85677
7.36777
5.62463
7.62212
6.41303
7.90779
7.22212
8.22576
8.05185
8.57704
8.90194
8.96271
9.77191
9.38394
10.661
9.84205
11.568
10.3386
12.4914
10.8755
13.429
11.4548
14.378
12.0788
15.3345
12.7504
16.2939
13.4725
17.2501
14.2481
18.1959
15.0802
19.1227
15.9711
20.0205
16.9227
20.8781
17.9354
21.6836
19.0079
22.4248
20.1365
23.0905
21.3145
22.5325
23.6712
0.62143
5.8184
1.25731
5.88977
1.90731
5.99151
2.57311
6.11634
3.25615
6.26586
3.95764
6.44222
4.67857
6.64684
5.41976
6.88094
6.18183
7.14571
6.96525
7.44234
7.77033
7.77197
8.59722
8.13582
9.44591
8.53525
10.3162
8.9718
11.2074
9.44736
12.1187
9.96421
13.0485
10.525
13.9943
11.1329
14.953
11.7917
15.92
12.5055
16.8894
13.2787
17.8538
14.1158
18.8037
15.0212
19.7278
15.9986
20.6129
17.0503
21.4443
18.1766
22.2064
19.3744
22.8842
20.6367
21.952
23.4647
0.596072
5.22232
1.20513
5.28071
1.82698
5.36967
2.46364
5.47968
3.11675
5.61274
3.78769
5.77128
4.47766
5.95687
5.1877
6.17089
5.91872
6.41469
6.67152
6.68954
7.44682
6.99667
8.24525
7.33739
9.06736
7.71314
9.9135
8.12566
10.7838
8.57705
11.6781
9.06996
12.5953
9.60776
13.5338
10.1944
14.4911
10.8345
15.4631
11.5334
16.4445
12.2973
17.4278
13.1325
18.403
14.0459
19.3579
15.0437
20.2771
16.1312
21.1428
17.3109
21.9354
18.5817
22.635
19.937
21.3634
23.2236
0.568646
4.65368
1.14799
4.70137
1.73847
4.77919
2.34257
4.87558
2.96209
4.99322
3.59856
5.13481
4.2534
5.30203
4.92789
5.49641
5.62323
5.71935
6.34057
5.97219
7.08109
6.25615
7.84594
6.57253
8.63625
6.92284
9.45303
7.30888
10.2971
7.733
11.1688
8.19822
12.068
8.70853
12.9939
9.26849
13.9448
9.88361
14.9177
10.5606
15.9077
11.3072
16.9079
12.1323
17.9085
13.0453
18.8963
14.0559
19.8543
15.1732
20.7614
16.4038
21.5935
17.7496
22.3245
19.206
20.7584
22.9295
0.53892
4.11476
1.08569
4.1546
1.64181
4.22307
2.21025
4.30714
2.79293
4.41054
3.39152
4.53621
4.00763
4.68592
4.64278
4.86125
5.29849
5.06364
5.97631
5.29438
6.67785
5.55461
7.40479
5.84559
8.1588
6.16883
8.94145
6.52623
9.75407
6.92038
10.5977
7.35457
11.4732
7.83306
12.3807
8.361
13.3195
8.94483
14.2875
9.59255
15.2811
10.3136
16.2943
11.1192
17.3176
12.022
18.3378
13.0357
19.3367
14.1743
20.2903
15.4503
21.1695
16.8704
21.9403
18.4352
20.1294
22.5693
0.506799
3.60796
1.01854
3.64286
1.53795
3.70366
2.06841
3.77668
2.61187
3.86708
3.17011
3.97797
3.74494
4.11109
4.33812
4.26808
4.95146
4.4503
5.58691
4.65893
6.2465
4.89502
6.93232
5.15977
7.64641
5.45474
8.39079
5.78185
9.16748
6.1437
9.97828
6.54377
10.8249
6.98649
11.7083
7.47758
12.6288
8.02433
13.5856
8.63576
14.5763
9.32289
15.5962
10.0993
16.6373
10.9809
17.6868
11.9862
18.7261
13.135
19.7288
14.4476
20.6606
15.9387
21.4786
17.6171
19.4697
22.1384
0.472515
3.13544
0.9476
3.16778
1.42894
3.22232
1.92019
3.28543
2.42322
3.36406
2.93992
3.46126
3.47226
3.57876
4.0222
3.71814
4.59187
3.88062
5.1835
4.0673
5.79938
4.27914
6.44189
4.51726
7.11358
4.78305
7.81698
5.07845
8.55458
5.4061
9.32879
5.76955
10.1419
6.17338
10.9958
6.62371
11.8918
7.12836
12.8304
7.69715
13.8107
8.34252
14.8299
9.0801
15.8817
9.92906
16.955
10.9128
18.0318
12.0582
19.0837
13.3957
20.0723
14.9501
20.9438
16.7457
18.7726
21.6408
0.436732
2.69871
0.874596
2.72991
1.31768
2.77923
1.76971
2.8334
2.23238
2.90139
2.70767
2.98597
3.19767
3.08876
3.70452
3.21128
4.23051
3.35463
4.77806
3.51975
5.34974
3.70746
5.94831
3.91869
6.57661
4.15475
7.23748
4.41757
7.93379
4.7098
8.66838
5.03495
9.44406
5.3977
10.2635
5.80432
11.129
6.26285
12.0424
6.78372
13.0045
7.38039
14.0145
8.07015
15.0686
8.87495
16.1582
9.82325
17.2674
10.949
18.3673
12.2959
19.4165
13.9009
20.347
15.8152
18.0311
21.0885
0.400475
2.29823
0.801673
2.32872
1.20745
2.37345
1.62135
2.4195
2.04489
2.47785
2.4801
2.55076
2.9291
2.63976
3.39412
2.74626
3.87756
2.87119
4.38207
3.01524
4.91045
3.17908
5.46558
3.36356
6.05042
3.56991
6.66805
3.79995
7.32159
4.05626
8.01424
4.34231
8.74923
4.66271
9.5299
5.02365
10.3595
5.43321
11.2412
5.90204
12.1774
6.44416
13.1696
7.07804
14.2168
7.8277
15.3137
8.72631
16.4485
9.81421
17.5932
11.1512
18.707
12.787
19.7038
14.8184
17.2345
20.5004
0.364918
1.93332
0.730969
1.96267
1.10129
2.00313
1.47907
2.04172
1.86559
2.09132
2.26292
2.15343
2.67312
2.22956
3.09852
2.32085
3.54162
2.4281
4.00512
2.55174
4.49185
2.69235
5.00474
2.85067
5.54683
3.02782
6.12128
3.2255
6.73136
3.44617
7.38053
3.69314
8.07241
3.97083
8.81088
4.28518
9.60004
4.64405
10.4441
5.05795
11.3473
5.54094
12.3133
6.11209
13.3444
6.79657
14.4391
7.63159
15.5915
8.66181
16.7765
9.96626
17.9596
11.6039
19.0328
13.7451
16.3647
19.9027
0.331129
1.60219
0.664243
1.62955
1.0016
1.66578
1.34582
1.69749
1.69803
1.73912
2.06022
1.79124
2.43448
1.8553
2.82311
1.93222
3.22861
2.02259
3.65364
2.12672
4.10096
2.24503
4.57348
2.37815
5.07419
2.52711
5.60624
2.69345
6.17298
2.87943
6.778
3.08811
7.42521
3.32361
8.11895
3.59145
8.864
3.899
9.66567
4.25628
10.5297
4.67686
11.462
5.1798
12.4683
5.79029
13.5514
6.54852
14.7133
7.49991
15.9337
8.74585
17.1929
10.3447
18.3588
12.5793
15.3888
19.3346
0.299888
1.3023
0.602659
1.32678
0.909879
1.35856
1.22341
1.38397
1.54426
1.41827
1.87438
1.46112
2.21579
1.51389
2.57075
1.57727
2.94165
1.65169
3.33105
1.73732
3.74159
1.83448
4.17604
1.9437
4.63728
2.06587
5.12838
2.20235
5.65265
2.35516
6.21376
2.52701
6.81577
2.72159
7.46336
2.94386
8.16189
3.20047
8.91756
3.50061
9.7376
3.85682
10.63
4.28739
11.604
4.81634
12.6672
5.48527
13.8311
6.33603
15.0835
7.49338
16.4284
8.99983
17.7176
11.2902
14.2493
18.8571
0.271609
1.03069
0.546752
1.05164
0.826778
1.07853
1.11249
1.09825
1.40498
1.12578
1.70609
1.16001
2.01776
1.20222
2.34211
1.25292
2.68144
1.31236
3.03812
1.38064
3.41463
1.45797
3.81355
1.54478
4.23759
1.64182
4.68968
1.75027
5.17303
1.87181
5.69126
2.00878
6.24853
2.16433
6.8497
2.34269
7.50054
2.54963
8.20801
2.79314
8.98057
3.08427
9.82833
3.43963
10.7639
3.88082
11.8004
4.44873
12.9584
5.178
14.2415
6.21033
15.6799
7.56142
17.1531
9.81693
12.8598
18.5426
0.246393
0.784298
0.496546
0.801483
0.75223
0.822848
1.01287
0.837609
1.27984
0.858816
1.55481
0.885035
1.83961
0.917419
2.13625
0.956286
2.44684
1.00177
2.77358
1.0539
3.11874
1.11281
3.48468
1.17885
3.87391
1.2526
4.28916
1.33501
4.73351
1.42746
5.21046
1.53182
5.72415
1.65064
6.27951
1.78733
6.88255
1.94658
7.54074
2.13495
8.26345
2.36155
9.06268
2.6404
9.9539
2.9896
10.9565
3.44618
12.0983
4.03615
13.408
4.90067
14.9363
6.03306
16.6952
8.05809
11.1239
18.4311
0.224206
0.560091
0.451711
0.573978
0.685674
0.588886
0.923722
0.59956
1.16773
0.614812
1.41914
0.633623
1.67967
0.656889
1.95117
0.684782
2.23559
0.717347
2.53492
0.754574
2.85119
0.796543
3.18654
0.843493
3.54326
0.895875
3.92388
0.954396
4.33126
1.02008
4.76875
1.09433
5.24036
1.17903
5.75097
1.27673
6.30663
1.39092
6.91503
1.52656
7.58607
1.69051
8.33297
1.8935
9.17315
2.14941
10.1316
2.48778
11.2412
2.92647
12.5584
3.58353
14.1517
4.43975
16.2566
5.95321
8.95646
18.424
0.204992
0.3551
0.41165
0.36732
0.626234
0.374301
0.84386
0.381935
1.06714
0.391529
1.29725
0.403521
1.53577
0.418364
1.78441
0.436138
2.04493
0.456833
2.31908
0.480418
2.60869
0.506932
2.91566
0.536529
3.24203
0.569505
3.5901
0.606328
3.96251
0.647667
4.3624
0.694438
4.79356
0.747869
5.26066
0.809624
5.7696
0.881982
6.32799
0.968167
6.94577
1.07272
7.63659
1.20268
8.41864
1.36736
9.31987
1.58656
10.3757
1.87059
11.6595
2.29982
13.2615
2.83773
15.5959
3.61876
6.37555
18.1768
0.188355
0.166745
0.375547
0.180128
0.572925
0.176924
0.771926
0.182933
0.9764
0.187055
1.1871
0.192819
1.40556
0.199906
1.63331
0.20839
1.8719
0.21824
2.12289
0.22943
2.38785
0.241971
2.66844
0.255937
2.96647
0.271473
3.284
0.288806
3.6234
0.308264
3.98755
0.330288
4.37995
0.35547
4.80496
0.38461
5.26814
0.418808
5.77671
0.459599
6.3402
0.509231
6.97194
0.57094
7.68971
0.649591
8.52194
0.754323
9.50228
0.89025
10.7059
1.0962
12.2087
1.33493
14.4783
1.34914
3.56102
17.2928
0.166745
0.346873
0.523796
0.70673
0.893785
1.0866
1.28651
1.4949
1.71314
1.94257
2.18454
2.44048
2.71195
3.00076
3.30902
3.63931
3.99478
4.37939
4.7982
5.25779
5.76703
6.33797
6.98756
7.74188
8.63213
9.72833
11.0633
12.4124
15.9734
1.23509
54.1351
1.24161
54.1337
1.26305
54.1188
1.2914
54.1119
1.32566
54.106
1.35914
54.1068
1.37774
54.1216
1.37451
54.1435
1.36511
54.1496
1.37416
54.1312
1.40142
54.113
1.42233
54.1193
1.4294
54.1332
1.42951
54.1401
1.4224
54.1473
1.4038
54.1588
1.3914
54.1526
1.39747
54.1342
1.42145
54.1163
1.42603
54.1357
1.4045
54.1618
1.36527
54.1795
1.35781
54.1477
1.37707
54.121
1.40619
54.1111
1.40664
54.1398
1.40417
54.1427
1.40047
54.1439
1.38509
54.1556
1.34761
54.1777
1.32263
54.1652
1.33768
54.1252
1.3809
54.097
1.41158
54.1096
1.41713
54.1347
1.42081
54.1365
1.42447
54.1366
1.42794
54.1368
1.43119
54.137
1.4342
54.1372
1.43696
54.1375
1.43949
54.1377
1.44176
54.138
1.44376
54.1382
1.44547
54.1385
1.44689
54.1388
1.44801
54.1391
1.4485
54.1397
1.45084
54.1379
1.45312
54.138
1.453
54.1404
1.45079
54.1424
1.44791
54.1431
1.44475
54.1434
1.44122
54.1438
1.43734
54.1441
1.43304
54.1445
1.42839
54.1449
1.42331
54.1453
1.41787
54.1457
1.41202
54.1461
1.4057
54.1466
1.39896
54.147
1.39168
54.1475
1.38404
54.1479
1.37582
54.1485
1.36723
54.1488
1.35786
54.1496
1.34822
54.1499
1.33819
54.1503
1.32753
54.1509
1.31657
54.1512
1.30469
54.1521
1.29271
54.1522
1.28019
54.1527
1.2675
54.1529
1.25564
54.1521
1.24267
54.1532
1.22714
54.1558
1.20721
54.1602
1.18824
54.1592
1.17137
54.1571
1.15155
54.1601
1.13873
54.1531
1.11992
54.159
1.1012
54.159
1.07331
54.1681
1.05449
54.159
1.04082
54.1539
1.02634
54.1547
1.00705
54.1595
0.988645
54.1586
0.972446
54.1564
0.955818
54.1569
0.936892
54.1592
0.913117
54.164
0.888977
54.1644
0.86339
54.1658
0.838184
54.1654
0.813204
54.1652
0.788348
54.1651
0.76355
54.165
0.738758
54.165
0.714007
54.165
0.689266
54.165
0.664565
54.1649
0.639835
54.165
0.615061
54.165
0.590209
54.1651
0.565232
54.1652
0.540172
54.1653
0.514961
54.1654
0.489635
54.1656
0.464136
54.1657
0.438504
54.1659
0.412544
54.1662
0.386437
54.1663
0.360119
54.1666
0.333681
54.1667
0.307153
54.1668
0.280682
54.1667
0.254241
54.1667