/*--------------------------------*- C++ -*----------------------------------*\
| =========                 |                                                 |
| \\      /  F ield         | OpenFOAM: The Open Source CFD Toolbox           |
|  \\    /   O peration     | Version:  5.x                                   |
|   \\  /    A nd           | Web:      www.OpenFOAM.org                      |
|    \\/     M anipulation  |                                                 |
\*---------------------------------------------------------------------------*/
/*   Windows 32 and 64 bit porting by blueCAPE: http://www.bluecape.com.pt   *\
|  Based on Windows porting (2.0.x v4) by Symscape: http://www.symscape.com   |
\*---------------------------------------------------------------------------*/
FoamFile
{
    version     2.0;
    format      ascii;
    class       volVectorField;
    location    "390";
    object      U;
}
// * * * * * * * * * * * * * * * * * * * * * * * * * * * * * * * * * * * * * //

dimensions      [0 1 -1 0 0 0 0];

internalField   nonuniform List<vector> 
43900
(
(1.16162 -0.000741274 -1.61011e-027)
(1.16713 0.00218546 -4.31476e-027)
(1.16971 0.000364475 1.43649e-030)
(1.16837 0.00183984 2.8235e-030)
(1.16974 0.000800707 3.67261e-030)
(1.16991 0.00200909 3.67684e-030)
(1.17013 0.00119115 5.7598e-027)
(1.17052 0.00190269 -1.14994e-026)
(1.17049 0.00165702 9.70794e-030)
(1.17017 0.00183228 -1.14713e-026)
(1.17015 0.00192204 1.14941e-026)
(1.16997 0.00198397 1.16104e-029)
(1.16999 0.00201068 -1.14347e-026)
(1.17016 0.00209405 2.51025e-029)
(1.16998 0.00215907 2.57253e-029)
(1.1699 0.00219964 2.6402e-029)
(1.1702 0.00224183 -2.27632e-026)
(1.17031 0.00229654 5.52165e-029)
(1.16995 0.00236097 2.27907e-026)
(1.16978 0.00236554 2.87203e-029)
(1.16988 0.00243656 2.9165e-029)
(1.16992 0.00246864 2.95756e-029)
(1.16969 0.00249771 3.00602e-029)
(1.16957 0.00256362 3.0433e-029)
(1.16998 0.0025486 3.07892e-029)
(1.17059 0.00257666 -2.24953e-026)
(1.17076 0.002609 6.28258e-029)
(1.17031 0.0026708 6.34748e-029)
(1.16962 0.00274103 8.97878e-026)
(1.15867 0.0114633 0)
(1.16548 -0.00497336 0)
(1.17141 0.00906997 0)
(1.16654 -0.000167093 0)
(1.16839 0.00620015 0)
(1.16799 0.00276799 0)
(1.16829 0.00491163 0)
(1.16764 0.00467978 0)
(1.16811 0.00464162 0)
(1.1685 0.00539476 0)
(1.1686 0.00537302 0)
(1.16886 0.00557281 0)
(1.16875 0.00590391 0)
(1.16871 0.00607113 0)
(1.16901 0.00623491 0)
(1.16909 0.00642995 0)
(1.16886 0.00655755 0)
(1.16872 0.00675432 0)
(1.16911 0.00683203 0)
(1.16947 0.00704364 0)
(1.16934 0.00713176 0)
(1.16918 0.00718297 0)
(1.16943 0.00733799 0)
(1.16996 0.00734579 0)
(1.16996 0.00744296 0)
(1.16905 0.00763455 0)
(1.16808 0.00770324 0)
(1.16821 0.0077775 0)
(1.16945 0.00777287 0)
(1.10194 0.0321424 0)
(1.14464 -0.0175904 0)
(1.16299 0.0288163 0)
(1.16317 -0.00370115 0)
(1.16628 0.0208923 0)
(1.16421 0.00398324 0)
(1.16568 0.0150284 0)
(1.16634 0.00833794 0)
(1.16645 0.0118327 0)
(1.16643 0.0105142 0)
(1.16664 0.0106942 0)
(1.16673 0.0110154 0)
(1.16707 0.0109471 0)
(1.16708 0.0110233 0)
(1.167 0.0111335 0)
(1.16744 0.0112011 0)
(1.16765 0.0113883 0)
(1.16744 0.0114047 0)
(1.16742 0.0115541 0)
(1.16752 0.0116454 0)
(1.16774 0.0117067 0)
(1.16823 0.0119487 0)
(1.16837 0.0120004 0)
(1.16779 0.0121377 0)
(1.16692 0.0123902 0)
(1.16708 0.0123765 0)
(1.16855 0.0124403 0)
(1.16959 0.0125896 0)
(1.16922 0.0126048 1.57838e-027)
(1.04078 0.0199698 0)
(1.08663 -0.00669516 0)
(1.12952 0.0201061 0)
(1.1555 0.00822279 0)
(1.16321 0.0222937 0)
(1.16589 0.0107596 0)
(1.16472 0.0206434 0)
(1.16357 0.0136925 0)
(1.16461 0.0182138 0)
(1.16483 0.0158216 0)
(1.16502 0.0169483 0)
(1.16542 0.0166805 0)
(1.16543 0.0167212 0)
(1.16562 0.0167833 0)
(1.16598 0.0168007 0)
(1.16579 0.0169056 0)
(1.16581 0.0168982 0)
(1.16628 0.0170805 0)
(1.16646 0.017098 0)
(1.16622 0.0171957 0)
(1.1664 0.0173297 0)
(1.16636 0.0173908 0)
(1.16598 0.0175362 0)
(1.16621 0.0177385 0)
(1.16738 0.0177455 0)
(1.16788 0.0178406 0)
(1.16727 0.0180179 0)
(1.1661 0.0180924 0)
(1.16597 0.018326 1.68486e-027)
(1.0033 0.0102096 3.37616e-027)
(1.0388 -0.000891339 0)
(1.07567 0.0108531 0)
(1.11396 0.0129411 0)
(1.14433 0.0183705 0)
(1.15993 0.0174156 0)
(1.16328 0.0229197 0)
(1.16435 0.0186523 0)
(1.16336 0.0217848 0)
(1.16356 0.0204683 0)
(1.16367 0.0209441 0)
(1.16364 0.0212896 0)
(1.16397 0.0212708 0)
(1.16388 0.0213933 0)
(1.16396 0.0215425 0)
(1.16433 0.0216491 0)
(1.16412 0.0218898 0)
(1.16383 0.0218728 0)
(1.16419 0.022083 0)
(1.16484 0.0222465 0)
(1.16462 0.0223062 0)
(1.1642 0.0224847 0)
(1.16467 0.0225935 0)
(1.16513 0.0226114 0)
(1.1647 0.0227479 0)
(1.16435 0.0229705 0)
(1.16482 0.0231308 0)
(1.16565 0.0232618 0)
(1.16562 0.0234372 -7.08855e-027)
(0.975965 0.00683477 -3.52334e-027)
(1.00583 0.000687956 0)
(1.03704 0.00760747 0)
(1.06943 0.0110625 0)
(1.10186 0.014941 0)
(1.13218 0.0182522 0)
(1.1526 0.0222093 0)
(1.16094 0.0223455 0)
(1.16217 0.0246279 0)
(1.16179 0.0230746 0)
(1.16177 0.0244558 0)
(1.16199 0.0243295 0)
(1.16178 0.0245971 0)
(1.1621 0.0248759 0)
(1.1622 0.0251583 0)
(1.16186 0.0254218 0)
(1.16215 0.0255465 0)
(1.16234 0.0259872 0)
(1.16215 0.026034 0)
(1.16179 0.0263365 0)
(1.1621 0.0266251 0)
(1.16288 0.0268267 0)
(1.16271 0.0270202 0)
(1.16242 0.0273439 0)
(1.1627 0.0275721 0)
(1.16286 0.0278482 0)
(1.16224 0.0279733 0)
(1.16192 0.0282714 0)
(1.16237 0.0284484 3.75392e-027)
(0.952718 0.00529783 0)
(0.979046 0.00143348 0)
(1.00663 0.00647054 0)
(1.03528 0.00970308 0)
(1.06442 0.0130438 0)
(1.09336 0.0166842 0)
(1.12141 0.0204591 0)
(1.14476 0.023365 0)
(1.15634 0.0260585 0)
(1.15947 0.026635 0)
(1.15928 0.0265714 0)
(1.15899 0.0275093 0)
(1.15939 0.0277208 0)
(1.15912 0.028042 0)
(1.15933 0.0285429 0)
(1.15967 0.0289443 0)
(1.15926 0.0293919 0)
(1.15957 0.029599 0)
(1.1597 0.030137 0)
(1.15983 0.0305395 0)
(1.15979 0.0306584 0)
(1.15954 0.0312558 0)
(1.15998 0.0315428 0)
(1.16019 0.032022 0)
(1.15971 0.032278 0)
(1.15971 0.032644 0)
(1.16055 0.033027 0)
(1.16132 0.0333715 0)
(1.16106 0.0336224 0)
(0.931521 0.00444199 0)
(0.955465 0.00192239 0)
(0.980565 0.00604732 0)
(1.00665 0.00911925 0)
(1.03336 0.0121843 0)
(1.06024 0.0154994 0)
(1.0868 0.0190659 0)
(1.11228 0.0226552 0)
(1.13553 0.0259962 0)
(1.15029 0.0284115 0)
(1.15538 0.0302289 0)
(1.15547 0.0299587 0)
(1.15508 0.0308463 0)
(1.15554 0.0312298 0)
(1.15541 0.0317496 0)
(1.15523 0.0322743 0)
(1.15585 0.0325864 0)
(1.15569 0.0333451 0)
(1.15588 0.0335706 0)
(1.15623 0.0341096 0)
(1.15602 0.0347351 0)
(1.15611 0.0350348 0)
(1.15566 0.0354451 0)
(1.15593 0.0359861 0)
(1.15681 0.0363472 0)
(1.15695 0.0369865 0)
(1.15667 0.0370533 0)
(1.15641 0.0377279 0)
(1.15693 0.0380425 0)
(0.911418 0.00386055 0)
(0.933628 0.00233691 0)
(0.95691 0.00595554 0)
(0.981115 0.00895937 0)
(1.00596 0.0119206 0)
(1.03113 0.015054 0)
(1.05627 0.0183944 0)
(1.08096 0.0218885 0)
(1.10467 0.0254415 0)
(1.12672 0.0287358 0)
(1.14349 0.031569 0)
(1.15018 0.0336464 0)
(1.15071 0.0336851 0)
(1.15032 0.0345242 0)
(1.15063 0.0351164 0)
(1.15102 0.0358846 0)
(1.15052 0.0363738 0)
(1.15113 0.0367942 0)
(1.15139 0.0376441 0)
(1.15107 0.0382868 0)
(1.15178 0.0385541 0)
(1.15173 0.0395607 0)
(1.15218 0.0398837 0)
(1.15184 0.0403962 0)
(1.15183 0.0409999 0)
(1.15249 0.0414442 0)
(1.15312 0.0421674 0)
(1.15322 0.0427908 0)
(1.15251 0.0430947 0)
(0.89195 0.00340432 0)
(0.91282 0.00273275 0)
(0.9347 0.00606693 0)
(0.957448 0.00906587 0)
(0.980836 0.0120121 0)
(1.00461 0.0150845 0)
(1.02852 0.0183264 0)
(1.05225 0.0217115 0)
(1.07548 0.0252044 0)
(1.09778 0.0287377 0)
(1.1185 0.0321052 0)
(1.13622 0.0350889 0)
(1.14422 0.0375942 0)
(1.14513 0.0379074 0)
(1.1448 0.0388439 0)
(1.14489 0.0395717 0)
(1.14572 0.040442 0)
(1.14522 0.0411073 0)
(1.14524 0.0417571 0)
(1.14623 0.0425 0)
(1.1459 0.0435268 0)
(1.14646 0.0438525 0)
(1.14673 0.0449347 0)
(1.14765 0.0455618 0)
(1.14762 0.0461021 0)
(1.14685 0.0471372 0)
(1.14728 0.0473824 0)
(1.148 0.048335 0)
(1.14894 0.0489031 -9.92297e-027)
(0.872686 0.00321954 0)
(0.892481 0.00305467 0)
(0.913263 0.00632806 0)
(0.934876 0.00938808 0)
(0.957124 0.0123887 0)
(0.979793 0.0154876 0)
(1.00266 0.0187308 0)
(1.0255 0.0221005 0)
(1.04805 0.025572 0)
(1.07003 0.0291198 0)
(1.09104 0.0326922 0)
(1.11047 0.0361301 0)
(1.12804 0.0392578 0)
(1.1375 0.0420751 0)
(1.13853 0.0425501 0)
(1.13861 0.0438107 0)
(1.13834 0.0445626 0)
(1.13928 0.0454055 0)
(1.13937 0.0463418 0)
(1.13894 0.0474036 0)
(1.13975 0.0478646 0)
(1.13962 0.049216 0)
(1.14024 0.049742 0)
(1.14036 0.0506243 0)
(1.14102 0.0519201 0)
(1.14214 0.0522674 0)
(1.14196 0.0532202 0)
(1.14149 0.0542408 0)
(1.14218 0.0543979 1.04588e-026)
(0.853468 0.00318408 0)
(0.872327 0.00336832 0)
(0.892155 0.00669956 0)
(0.912805 0.0098818 0)
(0.9341 0.013 0)
(0.955851 0.0162001 0)
(0.977861 0.0195286 0)
(0.999933 0.0229717 0)
(1.02186 0.0265082 0)
(1.04342 0.0301183 0)
(1.06437 0.0337763 0)
(1.08436 0.0374312 0)
(1.10297 0.0409562 0)
(1.1199 0.044238 0)
(1.13008 0.0471693 0)
(1.13099 0.0481294 0)
(1.13179 0.0495792 0)
(1.13111 0.0502904 0)
(1.13204 0.0513405 0)
(1.13286 0.0525474 0)
(1.13228 0.0537286 0)
(1.13309 0.0541325 0)
(1.13332 0.0558138 0)
(1.13369 0.0563649 0)
(1.13431 0.0571209 0)
(1.13451 0.0586531 0)
(1.1357 0.0590513 0)
(1.13662 0.0601457 0)
(1.13643 0.0614053 1.15049e-026)
(0.834022 0.00311221 0)
(0.852074 0.00372933 0)
(0.871076 0.0071512 0)
(0.890895 0.0104889 0)
(0.911364 0.0137684 0)
(0.932317 0.0171204 0)
(0.95358 0.0205902 0)
(0.974975 0.0241669 0)
(0.996327 0.0278325 0)
(1.01745 0.0315705 0)
(1.03817 0.035362 0)
(1.05824 0.0391811 0)
(1.07739 0.0429802 0)
(1.09525 0.046653 0)
(1.11154 0.0500971 0)
(1.12197 0.0531931 0)
(1.12268 0.0545318 0)
(1.12399 0.0559697 0)
(1.12318 0.0569414 0)
(1.1242 0.0581245 0)
(1.1256 0.0594687 0)
(1.12503 0.0609405 0)
(1.12597 0.0613578 0)
(1.12679 0.0631452 0)
(1.12717 0.0641939 0)
(1.12798 0.0649024 0)
(1.12789 0.0663114 0)
(1.12886 0.0674638 0)
(1.13072 0.0677572 -1.21495e-026)
(0.814341 0.00309889 0)
(0.831649 0.00410426 0)
(0.849896 0.00766698 0)
(0.868966 0.0111916 0)
(0.888704 0.0146653 0)
(0.908947 0.0182051 0)
(0.929543 0.0218556 0)
(0.950331 0.0256077 0)
(0.971154 0.0294453 0)
(0.991855 0.0333545 0)
(1.01227 0.0373197 0)
(1.03224 0.0413219 0)
(1.05155 0.0453355 0)
(1.06996 0.0493142 0)
(1.08712 0.0531449 0)
(1.10287 0.0567956 0)
(1.1134 0.0600579 0)
(1.11361 0.0617115 0)
(1.11545 0.062977 0)
(1.11493 0.0643339 0)
(1.11601 0.0659587 0)
(1.1175 0.0670448 0)
(1.11725 0.0689722 0)
(1.11839 0.0694751 0)
(1.11897 0.0711624 0)
(1.12014 0.0729314 0)
(1.1213 0.073429 0)
(1.12107 0.0750411 0)
(1.12172 0.0765492 -1.34069e-026)
(0.794335 0.00313961 0)
(0.810959 0.00450113 0)
(0.828515 0.00825598 0)
(0.846892 0.0120017 0)
(0.865962 0.0157044 0)
(0.885569 0.0194712 0)
(0.905558 0.0233431 0)
(0.925792 0.027314 0)
(0.946126 0.0313691 0)
(0.966419 0.0354959 0)
(0.986532 0.0396813 0)
(1.00632 0.0439093 0)
(1.02563 0.0481603 0)
(1.04428 0.0524088 0)
(1.06204 0.056608 0)
(1.07858 0.0606314 0)
(1.09397 0.0645004 0)
(1.10433 0.0680582 0)
(1.10432 0.0698202 0)
(1.10614 0.0709829 0)
(1.10655 0.073121 0)
(1.10753 0.0746317 0)
(1.109 0.0757003 0)
(1.1093 0.0781583 0)
(1.1106 0.078852 0)
(1.11065 0.0803994 0)
(1.11224 0.0825734 0)
(1.11434 0.0831396 0)
(1.11429 0.0846262 1.41575e-026)
(0.773921 0.0032255 0)
(0.789901 0.00491892 0)
(0.806813 0.00890806 0)
(0.824546 0.0129071 0)
(0.842982 0.0168673 0)
(0.861992 0.0208929 0)
(0.881424 0.0250224 0)
(0.901138 0.0292478 0)
(0.921006 0.033557 0)
(0.940901 0.0379383 0)
(0.960698 0.0423802 0)
(0.980271 0.0468688 0)
(0.999493 0.0513872 0)
(1.01822 0.055915 0)
(1.0363 0.0604253 0)
(1.05351 0.0648669 0)
(1.0696 0.0691115 0)
(1.08469 0.0732432 0)
(1.09483 0.0769856 0)
(1.09459 0.0788114 0)
(1.09672 0.0802328 0)
(1.09726 0.0825348 0)
(1.09853 0.0842264 0)
(1.09964 0.0853414 0)
(1.10084 0.0879735 0)
(1.10276 0.0892269 0)
(1.10232 0.0905077 0)
(1.10345 0.0929116 0)
(1.10675 0.0939003 0)
(0.753101 0.00334662 0)
(0.768467 0.00535462 0)
(0.784766 0.00960965 0)
(0.801897 0.0138892 0)
(0.819739 0.0181316 0)
(0.838177 0.022439 0)
(0.857084 0.0268524 0)
(0.876318 0.0313625 0)
(0.895753 0.035955 0)
(0.915272 0.0406198 0)
(0.93476 0.0453455 0)
(0.954106 0.0501195 0)
(0.9732 0.0549266 0)
(0.991928 0.0597488 0)
(1.01016 0.064565 0)
(1.02777 0.0693469 0)
(1.04456 0.0740357 0)
(1.06033 0.0785169 0)
(1.07522 0.082943 0)
(1.0847 0.0867793 0)
(1.08472 0.0887965 0)
(1.08727 0.0904461 0)
(1.08771 0.0928546 0)
(1.08929 0.0948232 0)
(1.09016 0.0960995 0)
(1.09196 0.0986247 0)
(1.09494 0.100525 0)
(1.09489 0.101614 0)
(1.09572 0.103959 0)
(0.731869 0.00350197 0)
(0.74664 0.00581437 0)
(0.762351 0.0103667 0)
(0.778903 0.0149541 0)
(0.796186 0.0195074 0)
(0.814079 0.0241251 0)
(0.832471 0.0288494 0)
(0.85124 0.0336738 0)
(0.870261 0.0385832 0)
(0.889423 0.043567 0)
(0.908617 0.0486148 0)
(0.927742 0.0537143 0)
(0.946698 0.0588516 0)
(0.965388 0.0640106 0)
(0.983708 0.0691729 0)
(1.00155 0.0743173 0)
(1.01878 0.0794137 0)
(1.03527 0.0844021 0)
(1.05088 0.089201 0)
(1.06565 0.0939011 0)
(1.07447 0.0980253 0)
(1.07504 0.100093 0)
(1.07773 0.102058 0)
(1.07828 0.104598 0)
(1.08086 0.106723 0)
(1.08122 0.108147 0)
(1.08326 0.110659 0)
(1.08676 0.112987 0)
(1.08758 0.114081 0)
(0.71023 0.00368373 4.06633e-026)
(0.724421 0.00629254 0)
(0.739558 0.0111666 0)
(0.75555 0.016084 0)
(0.77229 0.0209693 0)
(0.789667 0.0259215 0)
(0.807569 0.0309821 0)
(0.825884 0.0361453 0)
(0.844495 0.0413964 0)
(0.863292 0.0467235 0)
(0.88218 0.0521183 0)
(0.901063 0.0575687 0)
(0.91985 0.0630617 0)
(0.938453 0.0685827 0)
(0.956785 0.0741151 0)
(0.974753 0.0796401 0)
(0.992258 0.0851362 0)
(1.00919 0.090572 0)
(1.02545 0.0958881 0)
(1.04096 0.101001 0)
(1.0556 0.10606 0)
(1.06374 0.110274 0)
(1.06516 0.112565 0)
(1.06746 0.114468 0)
(1.06891 0.117337 0)
(1.07187 0.119554 0)
(1.07274 0.12077 0)
(1.07447 0.123771 0)
(1.0782 0.125839 0)
(0.68823 0.00388812 1.31421e-027)
(0.701852 0.00678659 0)
(0.716427 0.0120025 0)
(0.731868 0.0172678 0)
(0.748076 0.0225021 0)
(0.764944 0.0278065 0)
(0.782365 0.0332218 0)
(0.800236 0.0387427 0)
(0.818454 0.044356 0)
(0.836908 0.0500488 0)
(0.8555 0.0558099 0)
(0.874144 0.0616294 0)
(0.892754 0.0674943 0)
(0.911252 0.0733907 0)
(0.929557 0.079303 0)
(0.947593 0.0852137 0)
(0.965276 0.0911033 0)
(0.98252 0.0969496 0)
(0.999235 0.10272 0)
(1.01534 0.10835 0)
(1.03086 0.113792 0)
(1.04538 0.119176 0)
(1.05345 0.123471 0)
(1.05548 0.125885 0)
(1.05752 0.12827 0)
(1.05958 0.131031 0)
(1.06344 0.133768 0)
(1.06441 0.135424 0)
(1.06636 0.138402 0)
(0.665912 0.0041158 -4.69092e-026)
(0.678972 0.00729999 0)
(0.692995 0.0128789 0)
(0.707897 0.0185117 0)
(0.723586 0.0241139 0)
(0.739961 0.0297897 0)
(0.756918 0.0355816 0)
(0.774355 0.0414823 0)
(0.792176 0.0474788 0)
(0.810281 0.0535597 0)
(0.828578 0.0597137 0)
(0.846981 0.0659297 0)
(0.86541 0.072195 0)
(0.883792 0.0784963 0)
(0.902054 0.0848187 0)
(0.920125 0.0911462 0)
(0.937937 0.0974611 0)
(0.955416 0.103744 0)
(0.972488 0.109973 0)
(0.989081 0.116117 0)
(1.00515 0.122112 0)
(1.02078 0.12795 0)
(1.03572 0.1337 0)
(1.04337 0.138118 0)
(1.04648 0.140798 0)
(1.04859 0.143472 0)
(1.0505 0.146075 0)
(1.05494 0.148995 0)
(1.05611 0.151169 0)
(0.643314 0.00436333 0)
(0.655819 0.00783037 0)
(0.669295 0.0137912 0)
(0.683664 0.0198092 0)
(0.698837 0.0257966 0)
(0.714719 0.0318619 0)
(0.731213 0.0380492 0)
(0.748221 0.0443503 0)
(0.765651 0.050752 0)
(0.783413 0.0572435 0)
(0.801415 0.0638132 0)
(0.819573 0.0704488 0)
(0.837813 0.0771391 0)
(0.856062 0.0838702 0)
(0.874255 0.090628 0)
(0.892326 0.0973972 0)
(0.910214 0.104161 0)
(0.927854 0.110902 0)
(0.945185 0.117601 0)
(0.962142 0.124236 0)
(0.978675 0.130774 0)
(0.994785 0.137155 0)
(1.01074 0.143404 0)
(1.02591 0.149591 0)
(1.03397 0.153772 0)
(1.03699 0.157283 0)
(1.03948 0.159501 0)
(1.04225 0.162339 0)
(1.04603 0.165694 0)
(0.620485 0.0046308 -5.72148e-026)
(0.632441 0.00837852 0)
(0.645376 0.0147396 0)
(0.659217 0.0211595 0)
(0.673881 0.027548 0)
(0.689277 0.0340191 0)
(0.705315 0.0406183 0)
(0.7219 0.0473377 0)
(0.738941 0.054162 0)
(0.756352 0.0610802 0)
(0.774049 0.0680816 0)
(0.791952 0.0751543 0)
(0.80999 0.0822857 0)
(0.828093 0.0894624 0)
(0.846198 0.0966702 0)
(0.864245 0.103894 0)
(0.882175 0.111118 0)
(0.899932 0.118326 0)
(0.91746 0.125497 0)
(0.934704 0.132614 0)
(0.951613 0.139655 0)
(0.968159 0.14659 0)
(0.984393 0.15336 0)
(1.00074 0.160056 0)
(1.01663 0.166607 0)
(1.02429 0.171116 0)
(1.02785 0.174545 0)
(1.03087 0.177147 0)
(1.03504 0.180367 5.41491e-026)
(0.597476 0.00491544 -1.59823e-027)
(0.608887 0.00894253 0)
(0.621286 0.0157207 0)
(0.634603 0.0225581 0)
(0.648761 0.0293627 0)
(0.663674 0.0362549 0)
(0.679255 0.0432823 0)
(0.695416 0.0504363 0)
(0.71207 0.0577011 0)
(0.729135 0.0650657 0)
(0.746534 0.0725193 0)
(0.764186 0.0800487 0)
(0.782021 0.0876403 0)
(0.799972 0.095281 0)
(0.81798 0.102956 0)
(0.835987 0.110651 0)
(0.853939 0.11835 0)
(0.871783 0.126035 0)
(0.889469 0.133691 0)
(0.906947 0.141297 0)
(0.924172 0.148836 0)
(0.941106 0.156288 0)
(0.957745 0.163636 0)
(0.974154 0.170784 0)
(0.990929 0.178023 0)
(1.00758 0.184955 0)
(1.01566 0.189719 0)
(1.01884 0.193042 0)
(1.02359 0.195926 1.06234e-027)
(0.574334 0.00521916 6.58595e-026)
(0.585205 0.00952626 0)
(0.597073 0.0167404 0)
(0.609871 0.0240127 0)
(0.623526 0.0312502 0)
(0.637959 0.0385808 0)
(0.653087 0.0460538 0)
(0.668826 0.05366 0)
(0.685095 0.0613833 0)
(0.701813 0.069211 0)
(0.718905 0.0771321 0)
(0.736298 0.0851337 0)
(0.753924 0.0932021 0)
(0.77172 0.101324 0)
(0.789627 0.109483 0)
(0.807588 0.117665 0)
(0.825551 0.125853 0)
(0.843467 0.13403 0)
(0.861287 0.14218 0)
(0.878966 0.150284 0)
(0.896461 0.158323 0)
(0.913734 0.166278 0)
(0.930761 0.174136 0)
(0.947548 0.181872 0)
(0.96411 0.189444 0)
(0.981445 0.197012 0)
(0.999005 0.204657 0)
(1.0079 0.209277 0)
(1.01112 0.21261 -6.18826e-026)
(0.5511 0.00554021 0)
(0.561436 0.0101291 0)
(0.572777 0.0177977 0)
(0.58506 0.0255217 0)
(0.598216 0.0332082 0)
(0.612172 0.0409934 0)
(0.62685 0.0489289 0)
(0.642172 0.0570047 0)
(0.658059 0.0652041 0)
(0.674433 0.0735134 0)
(0.691224 0.0819207 0)
(0.708362 0.0904136 0)
(0.72578 0.0989773 0)
(0.743417 0.107596 0)
(0.761216 0.116255 0)
(0.779124 0.124939 0)
(0.797091 0.133629 0)
(0.815068 0.14231 0)
(0.83301 0.150963 0)
(0.850873 0.15957 0)
(0.868615 0.168113 0)
(0.886199 0.17657 0)
(0.903596 0.184926 0)
(0.920788 0.193165 0)
(0.937776 0.201284 0)
(0.954598 0.209163 0)
(0.972436 0.217263 0)
(0.991606 0.225285 0)
(1.00097 0.230157 0)
(0.527817 0.00587853 0)
(0.537623 0.0107529 0)
(0.548442 0.0188952 0)
(0.560215 0.0270884 0)
(0.572877 0.0352411 0)
(0.586359 0.0434987 0)
(0.60059 0.051915 0)
(0.615494 0.0604793 0)
(0.630998 0.0691739 0)
(0.647029 0.0779849 0)
(0.66352 0.0869004 0)
(0.680404 0.0959062 0)
(0.697616 0.104986 0)
(0.715098 0.114124 0)
(0.732794 0.123304 0)
(0.750652 0.132508 0)
(0.768623 0.141718 0)
(0.786661 0.150917 0)
(0.804721 0.160087 0)
(0.822761 0.169208 0)
(0.840742 0.178261 0)
(0.858627 0.187227 0)
(0.876382 0.196086 0)
(0.893984 0.204821 0)
(0.911419 0.213423 0)
(0.928692 0.221872 0)
(0.945811 0.230092 0)
(0.964611 0.238625 0)
(0.984925 0.247221 7.25864e-026)
(0.50452 0.00623444 0)
(0.513803 0.0114002 0)
(0.524106 0.0200375 0)
(0.535373 0.0287191 0)
(0.547544 0.0373571 0)
(0.560556 0.046107 0)
(0.57434 0.055025 0)
(0.58883 0.0640991 0)
(0.603954 0.0733109 0)
(0.619644 0.0826459 0)
(0.635834 0.0920904 0)
(0.652463 0.10163 0)
(0.669471 0.111247 0)
(0.686799 0.120925 0)
(0.704395 0.130647 0)
(0.722207 0.140393 0)
(0.740188 0.150145 0)
(0.758292 0.159883 0)
(0.776475 0.169586 0)
(0.794697 0.179236 0)
(0.812917 0.188812 0)
(0.8311 0.198294 0)
(0.849212 0.207661 0)
(0.867223 0.216893 0)
(0.885114 0.225976 0)
(0.902875 0.234895 0)
(0.920513 0.243643 0)
(0.938103 0.252082 0)
(0.958088 0.261405 9.19183e-028)
(0.481243 0.00660668 0)
(0.49001 0.0120718 0)
(0.499802 0.0212249 0)
(0.510567 0.0304141 0)
(0.52225 0.0395565 0)
(0.534793 0.0488187 0)
(0.548134 0.058259 0)
(0.562209 0.0678645 0)
(0.576954 0.077616 0)
(0.592304 0.0874982 0)
(0.608198 0.0974962 0)
(0.624576 0.107594 0)
(0.641382 0.117775 0)
(0.65856 0.128021 0)
(0.676059 0.13831 0)
(0.693829 0.148624 0)
(0.711825 0.158942 0)
(0.730002 0.169241 0)
(0.748317 0.179502 0)
(0.766729 0.189701 0)
(0.7852 0.199817 0)
(0.803691 0.209827 0)
(0.822169 0.219711 0)
(0.8406 0.229448 0)
(0.85896 0.239017 0)
(0.877231 0.248403 0)
(0.895405 0.257599 0)
(0.913498 0.266526 0)
(0.931735 0.275418 -1.63846e-025)
(0.45802 0.00699379 0)
(0.466277 0.0127677 0)
(0.475564 0.0224576 0)
(0.485832 0.0321731 0)
(0.49703 0.0418388 0)
(0.509105 0.0516336 0)
(0.522002 0.0616176 0)
(0.535663 0.0717772 0)
(0.550028 0.0820923 0)
(0.565038 0.0925471 0)
(0.580634 0.103126 0)
(0.596761 0.113812 0)
(0.613366 0.124587 0)
(0.630396 0.13543 0)
(0.647802 0.146318 0)
(0.665537 0.157231 0)
(0.683556 0.168145 0)
(0.701816 0.179036 0)
(0.720275 0.189881 0)
(0.738892 0.200655 0)
(0.757629 0.211334 0)
(0.776447 0.221893 0)
(0.79531 0.232309 0)
(0.814184 0.242559 0)
(0.833038 0.25262 0)
(0.851847 0.262473 0)
(0.870592 0.272102 0)
(0.889262 0.2815 0)
(0.907827 0.290492 -6.20015e-028)
(0.434885 0.00739396 0)
(0.44264 0.0134879 0)
(0.451429 0.0237349 0)
(0.461202 0.0339949 0)
(0.471916 0.044203 0)
(0.483525 0.0545508 0)
(0.495977 0.0651009 0)
(0.509221 0.0758384 0)
(0.523202 0.0867428 0)
(0.537866 0.0977976 0)
(0.55316 0.108987 0)
(0.569032 0.120292 0)
(0.585434 0.131693 0)
(0.602316 0.143167 0)
(0.619633 0.15469 0)
(0.637338 0.166238 0)
(0.655389 0.177785 0)
(0.673744 0.189304 0)
(0.692362 0.200768 0)
(0.711203 0.212151 0)
(0.730227 0.223424 0)
(0.749397 0.23456 0)
(0.768674 0.245532 0)
(0.788021 0.256314 0)
(0.807406 0.266879 0)
(0.826794 0.277206 0)
(0.846159 0.287274 0)
(0.865476 0.297075 0)
(0.884702 0.306519 9.20062e-026)
(0.411872 0.00780463 0)
(0.419135 0.0142311 0)
(0.427431 0.0250541 0)
(0.436714 0.0358754 0)
(0.446944 0.0466439 0)
(0.458083 0.0575648 0)
(0.470087 0.0687029 0)
(0.482908 0.0800425 0)
(0.4965 0.0915623 0)
(0.510812 0.103246 0)
(0.525797 0.115076 0)
(0.541409 0.127032 0)
(0.557603 0.139093 0)
(0.574334 0.151235 0)
(0.591558 0.16343 0)
(0.609236 0.175653 0)
(0.627324 0.187875 0)
(0.645784 0.200065 0)
(0.664575 0.212193 0)
(0.683658 0.224227 0)
(0.702994 0.236136 0)
(0.722545 0.247887 0)
(0.74227 0.25945 0)
(0.762131 0.270793 0)
(0.782091 0.281887 0)
(0.802111 0.292706 0)
(0.822155 0.303223 0)
(0.842189 0.313422 0)
(0.862164 0.32327 9.76352e-026)
(0.38902 0.00822242 0)
(0.395801 0.0149945 0)
(0.40361 0.0264101 0)
(0.412404 0.0378069 0)
(0.42215 0.0491517 0)
(0.432815 0.0606638 0)
(0.444363 0.0724101 0)
(0.456754 0.0843739 0)
(0.469946 0.096534 0)
(0.483896 0.108874 0)
(0.498563 0.121375 0)
(0.513905 0.134017 0)
(0.529882 0.146775 0)
(0.546454 0.159625 0)
(0.563583 0.172538 0)
(0.581229 0.185483 0)
(0.599355 0.198428 0)
(0.617925 0.211339 0)
(0.6369 0.22418 0)
(0.656243 0.236917 0)
(0.675915 0.249511 0)
(0.695877 0.261925 0)
(0.716088 0.274123 0)
(0.736508 0.286069 0)
(0.757095 0.297727 0)
(0.777806 0.309064 0)
(0.798598 0.320051 0)
(0.819426 0.330661 0)
(0.840239 0.340872 -1.02968e-025)
(0.36637 0.00864366 0)
(0.372679 0.0157747 0)
(0.380008 0.0277966 0)
(0.388315 0.0397805 0)
(0.397574 0.051715 0)
(0.40776 0.0638346 0)
(0.418844 0.0762075 0)
(0.430793 0.0888167 0)
(0.443572 0.101641 0)
(0.457145 0.114665 0)
(0.471478 0.127869 0)
(0.486534 0.141231 0)
(0.502278 0.154727 0)
(0.518678 0.16833 0)
(0.535698 0.182007 0)
(0.553305 0.195724 0)
(0.571466 0.209446 0)
(0.590148 0.223134 0)
(0.609315 0.236748 0)
(0.628933 0.250245 0)
(0.648963 0.263584 0)
(0.669366 0.276719 0)
(0.690103 0.289608 0)
(0.711129 0.302207 0)
(0.7324 0.314474 0)
(0.753867 0.326368 0)
(0.775482 0.337853 0)
(0.797192 0.348895 0)
(0.818939 0.359467 1.0815e-025)
(0.343968 0.00906466 0)
(0.349815 0.0165671 0)
(0.35667 0.0292062 0)
(0.36449 0.0417857 0)
(0.373258 0.0543213 0)
(0.382956 0.0670627 0)
(0.393565 0.0800792 0)
(0.405058 0.0933539 0)
(0.417408 0.106866 0)
(0.430585 0.120601 0)
(0.444562 0.134539 0)
(0.45931 0.148658 0)
(0.474801 0.162932 0)
(0.491007 0.177332 0)
(0.507901 0.191822 0)
(0.525456 0.206366 0)
(0.543642 0.220923 0)
(0.562432 0.23545 0)
(0.581793 0.249902 0)
(0.601695 0.264228 0)
(0.622101 0.27838 0)
(0.642976 0.292306 0)
(0.664276 0.305952 0)
(0.685959 0.319267 0)
(0.707975 0.332199 0)
(0.730271 0.344699 0)
(0.752792 0.356721 0)
(0.775476 0.368223 0)
(0.79826 0.379169 -2.27465e-025)
(0.32186 0.00948205 0)
(0.327256 0.0173662 0)
(0.333641 0.0306303 0)
(0.340974 0.0438111 0)
(0.349245 0.0569566 0)
(0.358447 0.0703317 0)
(0.368567 0.0840069 0)
(0.379587 0.0979652 0)
(0.391486 0.112188 0)
(0.404245 0.126659 0)
(0.417841 0.141361 0)
(0.432254 0.156272 0)
(0.447464 0.171364 0)
(0.463452 0.186605 0)
(0.480197 0.201958 0)
(0.497676 0.217384 0)
(0.515869 0.232839 0)
(0.534753 0.248274 0)
(0.554303 0.263636 0)
(0.574492 0.27887 0)
(0.595288 0.293916 0)
(0.616657 0.308712 0)
(0.638559 0.323195 0)
(0.660949 0.337302 0)
(0.683775 0.35097 0)
(0.706979 0.364137 0)
(0.730497 0.376747 0)
(0.754259 0.388746 0)
(0.778193 0.400088 1.11479e-027)
(0.300098 0.00989329 0)
(0.30505 0.0181652 0)
(0.31097 0.0320594 0)
(0.317813 0.0458437 0)
(0.32558 0.0596048 0)
(0.334274 0.0736227 0)
(0.343889 0.0879683 0)
(0.354416 0.102625 0)
(0.365842 0.117576 0)
(0.378156 0.132807 0)
(0.391344 0.148301 0)
(0.405393 0.164036 0)
(0.420291 0.179983 0)
(0.436027 0.19611 0)
(0.452589 0.21238 0)
(0.469962 0.228749 0)
(0.488134 0.245169 0)
(0.507089 0.261587 0)
(0.526812 0.277942 0)
(0.547282 0.29417 0)
(0.568473 0.310201 0)
(0.590356 0.325963 0)
(0.612894 0.341379 0)
(0.636041 0.356371 0)
(0.659744 0.37086 0)
(0.683939 0.384771 0)
(0.708555 0.39803 0)
(0.733511 0.410572 0)
(0.758719 0.422338 1.55539e-027)
(0.278735 0.0102973 0)
(0.283248 0.018956 0)
(0.288703 0.0334827 0)
(0.295054 0.0478689 0)
(0.302309 0.0622474 0)
(0.310482 0.0769132 0)
(0.319576 0.0919368 0)
(0.329589 0.107303 0)
(0.340518 0.122996 0)
(0.352358 0.139004 0)
(0.365104 0.155314 0)
(0.378753 0.171902 0)
(0.393302 0.188742 0)
(0.408746 0.2058 0)
(0.425083 0.22304 0)
(0.442309 0.240415 0)
(0.460421 0.257872 0)
(0.479416 0.275352 0)
(0.499285 0.29279 0)
(0.520019 0.310111 0)
(0.541601 0.327235 0)
(0.564009 0.344075 0)
(0.58721 0.360538 0)
(0.611163 0.376527 0)
(0.635812 0.391946 0)
(0.66109 0.406695 0)
(0.686916 0.420685 0)
(0.713193 0.433828 0)
(0.739819 0.446052 1.30165e-025)
(0.257822 0.0106949 0)
(0.261897 0.0197291 0)
(0.266889 0.0348878 0)
(0.272743 0.0498696 0)
(0.279479 0.0648616 0)
(0.287118 0.0801741 0)
(0.295674 0.0958767 0)
(0.305153 0.111955 0)
(0.315558 0.128397 0)
(0.326893 0.145196 0)
(0.339163 0.162337 0)
(0.352372 0.179802 0)
(0.366524 0.197564 0)
(0.381627 0.215595 0)
(0.39769 0.233853 0)
(0.414719 0.252291 0)
(0.432724 0.270855 0)
(0.451711 0.289482 0)
(0.471687 0.308101 0)
(0.492653 0.326627 0)
(0.514607 0.344969 0)
(0.537537 0.363021 0)
(0.561422 0.380673 0)
(0.586223 0.397804 0)
(0.61189 0.41429 0)
(0.63835 0.430007 0)
(0.66551 0.444833 0)
(0.693259 0.458659 0)
(0.721469 0.471387 -1.32401e-025)
(0.237415 0.0110893 0)
(0.241048 0.0204735 0)
(0.245577 0.0362599 0)
(0.250933 0.0518229 0)
(0.257142 0.0674155 0)
(0.264237 0.0833632 0)
(0.27224 0.0997344 0)
(0.281163 0.116517 0)
(0.291018 0.133703 0)
(0.301817 0.151289 0)
(0.313572 0.169265 0)
(0.326297 0.187615 0)
(0.340005 0.206317 0)
(0.354714 0.225342 0)
(0.370444 0.244653 0)
(0.387215 0.264204 0)
(0.405045 0.283942 0)
(0.42396 0.303802 0)
(0.443981 0.323707 0)
(0.465127 0.343563 0)
(0.487414 0.363265 0)
(0.510847 0.382692 0)
(0.535419 0.401708 0)
(0.561105 0.420163 0)
(0.587857 0.4379 0)
(0.615604 0.454756 0)
(0.644241 0.470572 0)
(0.673637 0.485199 0)
(0.703632 0.498506 1.39453e-025)
(0.217566 0.011485 0)
(0.220752 0.0211762 0)
(0.224821 0.0375796 0)
(0.229679 0.0536973 0)
(0.235359 0.0698631 0)
(0.241903 0.0864188 0)
(0.24934 0.103431 0)
(0.257688 0.120889 0)
(0.266969 0.138793 0)
(0.277201 0.157142 0)
(0.288404 0.175933 0)
(0.300599 0.195154 0)
(0.313811 0.214787 0)
(0.328065 0.23481 0)
(0.343393 0.25519 0)
(0.359827 0.275889 0)
(0.377402 0.296856 0)
(0.396158 0.318024 0)
(0.416139 0.339314 0)
(0.437387 0.360627 0)
(0.459941 0.381847 0)
(0.48383 0.402831 0)
(0.509069 0.423419 0)
(0.535654 0.443426 0)
(0.563551 0.462652 0)
(0.592692 0.480883 0)
(0.622964 0.497904 0)
(0.654211 0.51351 0)
(0.686234 0.52752 0)
(0.198326 0.0118855 0)
(0.201064 0.0218224 0)
(0.204683 0.0388204 0)
(0.20905 0.0554481 0)
(0.214204 0.07214 0)
(0.220195 0.0892545 0)
(0.227058 0.106855 0)
(0.234819 0.124937 0)
(0.243505 0.143504 0)
(0.253141 0.162563 0)
(0.263756 0.182117 0)
(0.275377 0.202161 0)
(0.288036 0.222688 0)
(0.301767 0.24368 0)
(0.316612 0.265117 0)
(0.332618 0.286968 0)
(0.349837 0.309186 0)
(0.368328 0.331714 0)
(0.388158 0.354472 0)
(0.409398 0.377362 0)
(0.432116 0.400254 0)
(0.456376 0.422992 0)
(0.482226 0.445386 0)
(0.509694 0.467214 0)
(0.538771 0.488221 0)
(0.569402 0.508129 0)
(0.601474 0.526647 0)
(0.634805 0.543491 0)
(0.669149 0.558401 1.41568e-025)
(0.179747 0.0122899 0)
(0.182048 0.022394 0)
(0.185237 0.0399467 0)
(0.189127 0.0570158 0)
(0.193766 0.0741616 0)
(0.199209 0.0917585 0)
(0.205498 0.109867 0)
(0.212665 0.128486 0)
(0.220741 0.147629 0)
(0.229761 0.16731 0)
(0.239755 0.18754 0)
(0.250757 0.208325 0)
(0.262805 0.229667 0)
(0.275942 0.251562 0)
(0.290218 0.274001 0)
(0.305694 0.296967 0)
(0.322439 0.320427 0)
(0.340534 0.344333 0)
(0.360073 0.368613 0)
(0.381159 0.39317 0)
(0.403899 0.417873 0)
(0.428399 0.442553 0)
(0.454755 0.466996 0)
(0.483041 0.490936 0)
(0.513292 0.514061 0)
(0.545486 0.536011 0)
(0.579517 0.556395 0)
(0.615185 0.574818 0)
(0.652186 0.590905 -5.71686e-027)
(0.16188 0.0126872 0)
(0.163776 0.0228701 0)
(0.166566 0.0409124 0)
(0.170006 0.058327 0)
(0.174147 0.0758278 0)
(0.179057 0.0938027 0)
(0.18478 0.112308 0)
(0.191353 0.131349 0)
(0.198814 0.150947 0)
(0.2072 0.171127 0)
(0.216545 0.191911 0)
(0.226888 0.213315 0)
(0.23827 0.235358 0)
(0.25074 0.258051 0)
(0.264355 0.281401 0)
(0.27919 0.30541 0)
(0.29533 0.330063 0)
(0.31288 0.355323 0)
(0.331963 0.381133 0)
(0.352718 0.407409 0)
(0.375296 0.434025 0)
(0.399857 0.460806 0)
(0.426557 0.48752 0)
(0.455538 0.513865 0)
(0.486902 0.539463 0)