/*--------------------------------*- C++ -*----------------------------------*\
| =========                 |                                                 |
| \\      /  F ield         | OpenFOAM: The Open Source CFD Toolbox           |
|  \\    /   O peration     | Version:  5.x                                   |
|   \\  /    A nd           | Web:      www.OpenFOAM.org                      |
|    \\/     M anipulation  |                                                 |
\*---------------------------------------------------------------------------*/
/*   Windows 32 and 64 bit porting by blueCAPE: http://www.bluecape.com.pt   *\
|  Based on Windows porting (2.0.x v4) by Symscape: http://www.symscape.com   |
\*---------------------------------------------------------------------------*/
FoamFile
{
    version     2.0;
    format      ascii;
    class       volScalarField;
    location    "230";
    object      epsilon;
}
// * * * * * * * * * * * * * * * * * * * * * * * * * * * * * * * * * * * * * //

dimensions      [0 2 -3 0 0 0 0];

internalField   nonuniform List<scalar> 
43900
(
0.00152925
0.0015191
0.00151979
0.00151971
0.00151968
0.00151966
0.00151967
0.00151967
0.00151967
0.00151968
0.00151968
0.00151968
0.00151968
0.00151968
0.00151968
0.00151968
0.00151968
0.00151969
0.00151969
0.00151969
0.00151969
0.00151969
0.00151969
0.00151969
0.00151969
0.00151969
0.00151969
0.00151969
0.00151969
0.000413535
3.8168e-005
3.16657e-005
3.15197e-005
3.27296e-005
3.27933e-005
3.28038e-005
3.27881e-005
3.27908e-005
3.2799e-005
3.28018e-005
3.2803e-005
3.28036e-005
3.28044e-005
3.28058e-005
3.2808e-005
3.28087e-005
3.28102e-005
3.28116e-005
3.28119e-005
3.28134e-005
3.2814e-005
3.2814e-005
3.28153e-005
3.28153e-005
3.28154e-005
3.28164e-005
3.28161e-005
3.28161e-005
0.0508242
0.00574533
0.000288726
1.14229e-005
1.70639e-006
1.32775e-006
1.32677e-006
1.40959e-006
1.41875e-006
1.41731e-006
1.41654e-006
1.41686e-006
1.41732e-006
1.41768e-006
1.41801e-006
1.41834e-006
1.41864e-006
1.41894e-006
1.41917e-006
1.4194e-006
1.4196e-006
1.41974e-006
1.41991e-006
1.42005e-006
1.42015e-006
1.42028e-006
1.42037e-006
1.42044e-006
1.42052e-006
0.146342
0.0436469
0.00962976
0.00131011
8.26548e-005
3.37319e-006
3.39272e-007
1.222e-007
1.08329e-007
1.15968e-007
1.1993e-007
1.19957e-007
1.19457e-007
1.19485e-007
1.19642e-007
1.19677e-007
1.19696e-007
1.19733e-007
1.19772e-007
1.19802e-007
1.19826e-007
1.19853e-007
1.19875e-007
1.19895e-007
1.19916e-007
1.19933e-007
1.1995e-007
1.19967e-007
1.19978e-007
0.198184
0.0847548
0.0339791
0.0113115
0.00266366
0.000358691
2.23608e-005
9.45984e-007
8.14968e-008
2.17843e-008
1.64364e-008
1.74849e-008
1.86046e-008
1.85836e-008
1.83872e-008
1.84301e-008
1.84857e-008
1.84847e-008
1.84859e-008
1.84909e-008
1.84969e-008
1.85017e-008
1.85055e-008
1.85098e-008
1.85139e-008
1.85175e-008
1.85208e-008
1.85242e-008
1.8527e-008
0.222796
0.109056
0.0532041
0.0250178
0.0104445
0.00328242
0.000687746
7.29302e-005
3.88389e-006
1.79148e-007
1.76058e-008
5.24247e-009
4.11193e-009
4.51293e-009
4.77898e-009
4.69736e-009
4.65062e-009
4.67235e-009
4.67927e-009
4.67725e-009
4.67718e-009
4.67833e-009
4.67939e-009
4.68038e-009
4.68172e-009
4.68254e-009
4.68333e-009
4.68471e-009
4.68532e-009
0.234951
0.124011
0.0662878
0.0353783
0.0183976
0.00890875
0.00354587
0.000960486
0.000147843
1.09203e-005
5.4354e-007
2.90135e-008
4.00263e-009
1.67201e-009
1.55954e-009
1.71036e-009
1.72369e-009
1.68764e-009
1.68877e-009
1.6965e-009
1.69915e-009
1.69977e-009
1.70007e-009
1.70055e-009
1.70101e-009
1.7013e-009
1.70168e-009
1.70212e-009
1.70232e-009
0.238203
0.131615
0.0740582
0.0420896
0.023859
0.0132251
0.00691013
0.00313719
0.00101219
0.000205838
2.06443e-005
1.19393e-006
6.28019e-008
4.40359e-009
1.05845e-009
7.18766e-010
7.87047e-010
8.32797e-010
8.17883e-010
8.06461e-010
8.06477e-010
8.06948e-010
8.07241e-010
8.07408e-010
8.07615e-010
8.07853e-010
8.08027e-010
8.08247e-010
8.0837e-010
0.237663
0.135868
0.0792772
0.046949
0.0279961
0.0166245
0.00966448
0.00534201
0.00264928
0.000992694
0.000232299
2.78279e-005
1.82809e-006
1.02286e-007
6.26988e-009
8.86725e-010
4.39726e-010
4.35257e-010
4.68777e-010
4.69132e-010
4.66035e-010
4.65447e-010
4.65545e-010
4.65648e-010
4.65806e-010
4.65912e-010
4.66022e-010
4.66158e-010
4.66225e-010
0.233518
0.136496
0.0816342
0.0497134
0.0306482
0.0189864
0.0116981
0.00705787
0.00406175
0.0021155
0.00087067
0.000220668
2.92051e-005
2.10842e-006
1.26632e-007
7.91602e-009
8.03362e-010
3.13488e-010
2.63962e-010
2.90409e-010
2.96579e-010
2.95693e-010
2.95429e-010
2.95488e-010
2.95594e-010
2.9566e-010
2.95715e-010
2.95846e-010
2.9596e-010
0.226877
0.135014
0.0821684
0.0510199
0.0321675
0.0204819
0.0130772
0.00828988
0.00513979
0.00303902
0.0016316
0.000706416
0.000185836
2.57991e-005
2.00365e-006
1.30499e-007
8.67456e-009
7.86167e-010
2.47479e-010
1.77278e-010
1.88654e-010
1.93519e-010
1.93725e-010
1.938e-010
1.93902e-010
1.9397e-010
1.94054e-010
1.94178e-010
1.94254e-010
0.219375
0.132442
0.0818213
0.051597
0.0330922
0.0214923
0.014061
0.00920251
0.00596631
0.00377527
0.00227402
0.00124293
0.000549794
0.000145714
2.06301e-005
1.71815e-006
1.22912e-007
8.88579e-009
7.92692e-010
1.97714e-010
1.31025e-010
1.31571e-010
1.34352e-010
1.34524e-010
1.3449e-010
1.34521e-010
1.34578e-010
1.34626e-010
1.34705e-010
0.210909
0.128943
0.0806794
0.0515206
0.0335108
0.0221117
0.0147389
0.00987261
0.00659934
0.004359
0.0028026
0.00171025
0.000943551
0.000418252
0.000109292
1.55007e-005
1.37603e-006
1.07855e-007
8.47145e-009
7.74279e-010
1.64912e-010
1.05595e-010
9.9947e-011
1.01776e-010
1.02191e-010
1.02237e-010
1.02284e-010
1.02369e-010
1.02411e-010
0.20157
0.124581
0.0788087
0.0509239
0.0334921
0.0223903
0.0151507
0.0103328
0.00706481
0.00480827
0.00322469
0.00209829
0.00129042
0.000712584
0.000310967
7.84899e-005
1.09545e-005
1.02406e-006
8.68025e-008
7.35606e-009
7.04918e-010
1.43537e-010
9.15132e-011
8.36489e-011
8.44631e-011
8.48096e-011
8.48562e-011
8.48888e-011
8.49243e-011
0.191608
0.11954
0.0763461
0.0498221
0.0331363
0.02238
0.0153332
0.0106105
0.00738362
0.00513858
0.00355019
0.0024094
0.00158023
0.000973928
0.000533364
0.000224234
5.35198e-005
7.24663e-006
7.0812e-007
6.43658e-008
5.82979e-009
5.92792e-010
1.26451e-010
8.38493e-011
7.74184e-011
7.67601e-011
7.67909e-011
7.68252e-011
7.68344e-011
0.181183
0.113986
0.0734114
0.0483291
0.0324431
0.0221498
0.0153239
0.0107325
0.00757572
0.0053649
0.00378986
0.00264994
0.00181354
0.00119362
0.00073262
0.000393496
0.000154636
3.40588e-005
4.4361e-006
4.49465e-007
4.31114e-008
4.1366e-009
4.56545e-010
1.1186e-010
7.90021e-011
7.54155e-011
7.49301e-011
7.4903e-011
7.49049e-011
0.170467
0.108065
0.070131
0.0465305
0.0314948
0.0216959
0.0151702
0.0107261
0.00766176
0.00550294
0.00395548
0.00282817
0.00199482
0.00137121
0.00090083
0.000546129
0.000283257
9.92531e-005
1.97067e-005
2.47374e-006
2.61164e-007
2.66066e-008
2.72774e-009
3.37204e-010
1.00965e-010
7.7775e-011
7.54984e-011
7.53163e-011
7.52953e-011
0.159611
0.101906
0.0666055
0.0445133
0.0303562
0.0210795
0.0148693
0.0106254
0.00766139
0.00556939
0.00406068
0.00295492
0.00213223
0.00151195
0.00103941
0.000677555
0.000401844
0.000197395
5.86342e-005
1.03524e-005
1.28182e-006
1.42287e-007
1.53606e-008
1.69137e-009
2.46526e-010
9.55599e-011
7.98286e-011
7.81917e-011
7.80418e-011
0.148743
0.0956138
0.0629191
0.0423422
0.0290824
0.0203455
0.014466
0.0104281
0.00759989
0.00557686
0.00411589
0.00303891
0.0022327
0.00162076
0.00115087
0.00078715
0.000505223
0.000289187
0.00012977
3.27041e-005
5.16174e-006
6.43983e-007
7.52734e-008
8.64232e-009
1.0437e-009
1.92718e-010
9.85754e-011
8.81001e-011
8.68245e-011
0.137987
0.0892904
0.0591491
0.040075
0.0277168
0.0195296
0.01399
0.010166
0.00747447
0.00554354
0.00413176
0.00308798
0.00230235
0.00170253
0.00123883
0.000876847
0.000592825
0.000370682
0.000200311
7.70637e-005
1.66871e-005
2.47116e-006
3.16919e-007
3.9126e-008
4.82115e-009
6.69315e-010
1.74639e-010
1.16016e-010
1.0897e-010
0.127443
0.0830158
0.0553581
0.0377603
0.0262965
0.0186606
0.0134657
0.00985991
0.00730872
0.00546977
0.00411915
0.00311245
0.0023502
0.00176476
0.00130933
0.000951223
0.000667613
0.000442697
0.000266015
0.000131319
4.12662e-005
7.86465e-006
1.15084e-006
1.54646e-007
2.02279e-008
2.71314e-009
4.78933e-010
1.96081e-010
1.59735e-010
0.117184
0.0768502
0.0515933
0.0354342
0.0248496
0.0177602
0.0129103
0.00952496
0.00711612
0.00537048
0.00408266
0.00311434
0.00237884
0.00181047
0.00136545
0.00101305
0.000731638
0.000505999
0.000325739
0.000184311
7.9148e-005
2.00818e-005
3.53297e-006
5.30176e-007
7.54805e-008
1.06179e-008
1.65336e-009
4.39731e-010
2.76403e-010
0.10727
0.0708403
0.0478906
0.0331243
0.0233971
0.0168448
0.0123366
0.00917153
0.00690625
0.00525495
0.00402991
0.00310576
0.00239696
0.00184605
0.00141209
0.0010662
0.000787926
0.000562721
0.000380453
0.000234458
0.000120807
4.31068e-005
9.40607e-006
1.5992e-006
2.48635e-007
3.7652e-008
5.91832e-009
1.23829e-009
5.55342e-010
0.0977458
0.0650215
0.0442766
0.0308504
0.021954
0.0159258
0.0117535
0.00880655
0.00668461
0.00512841
0.00396705
0.0030858
0.00240562
0.00187351
0.00145163
0.00111311
0.00083876
0.000614833
0.000431588
0.000282377
0.000163016
7.31239e-005
2.13172e-005
4.2892e-006
7.40462e-007
1.21171e-007
1.98966e-008
3.81044e-009
1.27758e-009
0.0886522
0.0594235
0.0407731
0.0286283
0.0205315
0.0150115
0.0111671
0.00843482
0.006455
0.00499373
0.00389607
0.0030575
0.0024065
0.00189451
0.00148572
0.00115537
0.000885664
0.000663717
0.000480294
0.000328937
0.00020546
0.000107579
4.01971e-005
9.93029e-006
1.96201e-006
3.53893e-007
6.21973e-008
1.17715e-008
3.2436e-009
0.0800221
0.0540705
0.0373973
0.0264701
0.0191385
0.014108
0.010582
0.00805965
0.00621995
0.00485309
0.00381949
0.00302475
0.00240396
0.00191182
0.00151639
0.00119465
0.000930054
0.000710572
0.000527508
0.000374683
0.000247972
0.00014496
6.62805e-005
2.05149e-005
4.68825e-006
9.3898e-007
1.79186e-007
3.51934e-008
8.72659e-009
0.0718816
0.0489817
0.0341628
0.0243856
0.0177816
0.0132201
0.0100014
0.00768339
0.00598124
0.00470794
0.00373849
0.00298797
0.00239774
0.0019263
0.0015448
0.0012322
0.000973199
0.000756646
0.000574404
0.000420617
0.000291254
0.000183728
9.77655e-005
3.82391e-005
1.03215e-005
2.31121e-006
4.79267e-007
9.96396e-008
2.3864e-008
0.0642499
0.0441718
0.0310806
0.0223823
0.0164661
0.0123513
0.00942768
0.00730753
0.0057398
0.00455881
0.00365328
0.00294721
0.00238786
0.00193805
0.00157133
0.00126856
0.00101578
0.000802717
0.000621837
0.000467643
0.000336259
0.000225075
0.000132673
6.24921e-005
2.09995e-005
5.34162e-006
1.20986e-006
2.6718e-007
6.42175e-008
0.0571398
0.039652
0.028159
0.0204664
0.0151962
0.0115044
0.00886255
0.00693304
0.00549606
0.00440578
0.00356375
0.00290241
0.00237463
0.00194708
0.00159588
0.00130371
0.00105785
0.000848932
0.000670023
0.000516029
0.000383307
0.000269355
0.000172496
9.28369e-005
3.81468e-005
1.14474e-005
2.88668e-006
6.84852e-007
1.67272e-007
0.0505578
0.0354294
0.0254044
0.0186428
0.0139756
0.0106819
0.00830753
0.00656073
0.00525031
0.00424879
0.00346964
0.00285314
0.00235748
0.00195294
0.00161806
0.00133728
0.00109912
0.00089506
0.000718781
0.000565601
0.000432137
0.000316058
0.000215864
0.000130723
6.29522e-005
2.26869e-005
6.49867e-006
1.67561e-006
4.24261e-007
0.0445039
0.031508
0.0228213
0.0169156
0.0128074
0.00988593
0.0077641
0.00619144
0.00500293
0.00408786
0.00337069
0.002799
0.00233579
0.00195462
0.00163718
0.00136878
0.0011392
0.000940821
0.00076792
0.00061624
0.000482669
0.000365029
0.000261947
0.000172746
9.7654e-005
4.19765e-005
1.38133e-005
3.92925e-006
1.04367e-006
0.0389719
0.027888
0.0204123
0.0152877
0.0116941
0.00911867
0.00723375
0.00582612
0.00475438
0.00392308
0.00326671
0.00273953
0.00230918
0.00195244
0.00165284
0.00139766
0.00117761
0.000985836
0.000817185
0.000667817
0.000534899
0.000416417
0.000311058
0.000218214
0.000137833
7.19283e-005
2.79288e-005
8.8317e-006
2.49715e-006
0.0339499
0.0245664
0.0181779
0.0137611
0.0106381
0.00838199
0.00671794
0.00546577
0.00450525
0.00375469
0.0031577
0.00267468
0.00227754
0.00194605
0.0016649
0.00142363
0.00121395
0.00102968
0.000866192
0.000720027
0.00058862
0.000470133
0.00036333
0.000267549
0.000182824
0.000109545
5.23568e-005
1.89355e-005
5.80365e-006
0.0294206
0.0215368
0.016117
0.0123365
0.00964087
0.00767756
0.00621806
0.00511143
0.00425621
0.00358303
0.0030437
0.00260419
0.00224017
0.00193397
0.00167242
0.00144603
0.00124765
0.00107182
0.000914438
0.000772411
0.000643433
0.000525844
0.000418513
0.000320775
0.000232592
0.000154117
8.69363e-005
3.80706e-005
1.29909e-005
0.0253626
0.0187905
0.0142267
0.0110142
0.00870355
0.00700679
0.00573546
0.00476416
0.004008
0.00340851
0.00292481
0.00252784
0.00219665
0.00191584
0.00167394
0.00146368
0.00127775
0.00111146
0.000961237
0.000824357
0.000698785
0.000583043
0.000476121
0.000377407
0.000286778
0.000204491
0.000130876
6.92477e-005
2.74095e-005
0.021751
0.0163163
0.0125027
0.00979301
0.0078268
0.0063709
0.00527141
0.00442508
0.00376145
0.00323165
0.00280125
0.0024456
0.00214684
0.0018918
0.00167073
0.00147661
0.00130376
0.00114791
0.00100585
0.000875156
0.000754019
0.000641128
0.000535589
0.000436866
0.000344795
0.000259683
0.000181798
0.000112466
5.41896e-005
0.0185583
0.0141011
0.0109396
0.00867141
0.00701077
0.00577083
0.00482709
0.00409529
0.00351747
0.00305309
0.00267339
0.00235765
0.00209073
0.0018615
0.00166173
0.0014843
0.00132519
0.0011806
0.00104765
0.000924162
0.00080851
0.00069952
0.00059639
0.000498653
0.000406145
0.00031914
0.000237977
0.000164119
9.55401e-005
0.0157551
0.0121305
0.00953069
0.00764692
0.00625516
0.00520728
0.00440357
0.0037759
0.00327701
0.00287356
0.00254172
0.00226418
0.00202819
0.00182425
0.00164507
0.00148473
0.00134072
0.00120855
0.00108581
0.000970646
0.000861611
0.00075765
0.00065804
0.000562358
0.00047046
0.000382557
0.000299016
0.000221325
0.000148393
0.0133107
0.0103887
0.00826843
0.00671642
0.00555919
0.00468066
0.00400177
0.00346798
0.00304108
0.00269389
0.00240683
0.00216552
0.00195931
0.00178019
0.00162203
0.00148011
0.00135081
0.00123148
0.00111979
0.00101398
0.000912707
0.000814969
0.00072008
0.000627631
0.000537475
0.000449767
0.000364881
0.000283867
0.000208089
0.0111939
0.0088591
0.00714442
0.0058761
0.00492163
0.00419109
0.00362247
0.00317253
0.00281069
0.00251497
0.00226939
0.00206213
0.00188434
0.0017293
0.0015919
0.0014682
0.00135381
0.00124836
0.00114874
0.0010534
0.000961094
0.000870865
0.000782021
0.00069412
0.000606979
0.000520681
0.000435585
0.000352324
0.000273151
0.0093733
0.00752449
0.00614959
0.00512159
0.00434077
0.00373833
0.00326622
0.00289048
0.00258685
0.00233773
0.00213019
0.00195456
0.00180356
0.00167159
0.0015543
0.00144824
0.00135028
0.00125887
0.001172
0.00108812
0.001006
0.000924642
0.000843295
0.000761432
0.000678768
0.000595278
0.00051125
0.000427085
0.000344696
0.00781798
0.00636734
0.00527431
0.00444795
0.00381442
0.00332184
0.00293335
0.0026226
0.00237052
0.00216313
0.00199007
0.00184349
0.00171745
0.00160729
0.00150939
0.00142087
0.00133946
0.00126174
0.00118855
0.00111718
0.00104649
0.000975443
0.000903192
0.000829064
0.000752596
0.00067358
0.000592135
0.000508544
0.000424014
0.00649784
0.00537013
0.00450863
0.0038498
0.00334002
0.00294071
0.00262396
0.00236953
0.00216259
0.00199215
0.00184995
0.0017297
0.00162657
0.00153675
0.00145722
0.00138555
0.00131967
0.00125743
0.00119788
0.00113969
0.00108152
0.00102223
0.000960798
0.000896328
0.000828096
0.000755593
0.000678633
0.000597329
0.000512244
0.00538411
0.00451562
0.00384242
0.00332144
0.0029146
0.0025937
0.00233787
0.00213174
0.0019639
0.00182576
0.00171082
0.0016141
0.00153168
0.00146051
0.00139809
0.00134241
0.00129176
0.00124479
0.00119832
0.00115428
0.00110978
0.0010637
0.00101489
0.000962224
0.000904635
0.00084118
0.000771188
0.000694378
0.000610767
0.00444972
0.00378718
0.0032656
0.00285695
0.00253494
0.0022793
0.00207468
0.00190954
0.00177515
0.00166492
0.00157375
0.00149771
0.00143373
0.00137934
0.00133256
0.00129173
0.00125544
0.00122247
0.00119135
0.00116038
0.00113014
0.00109842
0.00106395
0.00102534
0.000981131
0.000929821
0.000870044
0.000800781
0.000721374
0.00366964
0.00316903
0.00276836
0.00245039
0.00219762
0.00199581
0.00183383
0.0017031
0.00159706
0.00151064
0.00143992
0.00138183
0.00133397
0.00129442
0.00126163
0.00123427
0.00121125
0.00119157
0.00117447
0.00115747
0.00114155
0.00112494
0.00110623
0.00108383
0.00105589
0.00102028
0.000974818
0.000917294
0.000845954
0.00302111
0.00264653
0.00234136
0.00209594
0.00189921
0.00174145
0.00161468
0.00151265
0.00143043
0.00136417
0.00131087
0.00126817
0.00123423
0.00120757
0.00118702
0.00117158
0.00116049
0.00115287
0.00114825
0.00114586
0.00114317
0.00114219
0.00114015
0.00113572
0.00112673
0.00111044
0.00108393
0.0010436
0.000985792
0.00248383
0.00220635
0.00197596
0.00178813
0.00163648
0.00151455
0.00141679
0.00133864
0.00127644
0.00122726
0.0011888
0.00115926
0.00113722
0.00112162
0.00111164
0.00110646
0.00110588
0.00110869
0.00111534
0.00112522
0.00113742
0.00115086
0.00116548
0.00117977
0.00119176
0.00119735
0.00119403
0.00117823
0.0011415
0.00204003
0.00183664
0.00166437
0.00152205
0.00140658
0.00131391
0.00124021
0.00118219
0.00113709
0.00110264
0.00107704
0.0010589
0.00104715
0.00104103
0.00104012
0.00104342
0.0010515
0.00106388
0.0010804
0.00110103
0.0011256
0.00115333
0.00118403
0.00121704
0.00125099
0.00128234
0.00130763
0.00131717
0.00130623
0.00167453
0.00152719
0.00139991
0.00129359
0.00120742
0.00113904
0.00108587
0.00104546
0.00101566
0.00099453
0.000980638
0.000972783
0.000970225
0.000972333
0.000978843
0.000989939
0.00100551
0.0010257
0.00105069
0.00108075
0.00111623
0.00115698
0.00120216
0.00125288
0.00130868
0.00136655
0.00142381
0.00146885
0.00148895
0.00137472
0.00126952
0.00117716
0.00109968
0.0010379
0.000990576
0.000955977
0.000932119
0.000917182
0.000909173
0.000906943
0.000909154
0.000915259
0.000925224
0.000938836
0.000956525
0.000978749
0.0010059
0.00103849
0.00107716
0.00112188
0.00117318
0.00123271
0.0013002
0.00137734
0.00146177
0.00155364
0.00163696
0.00170611
0.00113048
0.00105692
0.000992032
0.000938451
0.000898061
0.000870357
0.000854161
0.000847542
0.000848855
0.000855389
0.000866369
0.000880104
0.000896014
0.000914269
0.000935247
0.000959571
0.00098777
0.00102101
0.00106021
0.00110639
0.00116069
0.00122457
0.00129933
0.00138643
0.00148603
0.00159823
0.00172888
0.00185178
0.0019897
0.000933981
0.000884347
0.000841767
0.000809079
0.000788948
0.000781283
0.000785363
0.000798898
0.000820333
0.000846215
0.000874219
0.00090227
0.000930228
0.000958528
0.000988145
0.00102055
0.00105736
0.00109996
0.00114975
0.00120843
0.00127722
0.00135927
0.00145453
0.00156933
0.00169988
0.00185318
0.00203601
0.0022038
0.00245307
0.000779329
0.000748098
0.000724504
0.00071138
0.000712117
0.000726642
0.000755502
0.000795869
0.000844223
0.000897181
0.000951688
0.00100502
0.00105561
0.00110379
0.00115124
0.00120051
0.00125449
0.00131608
0.00138763
0.00147258
0.00157169
0.00169256
0.00182912
0.00200301
0.00218949
0.00242737
0.00270267
0.00295572
0.00343435
0.000661859
0.000645184
0.000638671
0.000645105
0.000668464
0.000710515
0.000771061
0.000848191
0.000939743
0.00104075
0.00114569
0.00124955
0.00134898
0.00144345
0.0015353
0.0016289
0.00172969
0.00184387
0.0019764
0.00213593
0.00232218
0.00255786
0.00281595
0.00317446
0.0035185
0.00404021
0.00453931
0.00513085
0.00618003
0.000577343
0.000572584
0.00058214
0.000609137
0.000659111
0.000734873
0.000839206
0.000973381
0.0011361
0.00132289
0.00152664
0.00173917
0.00195417
0.00216904
0.00238669
0.00261492
0.00286523
0.00315279
0.00349171
0.00390806
0.00440543
0.00505685
0.00578613
0.00686364
0.00787672
0.00967253
0.0110676
0.0138645
0.016629
0.000521365
0.000526634
0.000552108
0.000601623
0.000682562
0.000802
0.000967615
0.00118615
0.00146251
0.00179765
0.00218791
0.00262622
0.003105
0.0036216
0.00418402
0.00481017
0.00552945
0.00638395
0.00742316
0.00872607
0.0103497
0.0124904
0.0151014
0.0188423
0.0230216
0.0299568
0.0366845
0.0511781
0.0625796
0.000489278
0.000503174
0.00054509
0.00061907
0.000736904
0.000911127
0.00115769
0.00149466
0.0019405
0.00251138
0.00321919
0.00407168
0.00507612
0.00624674
0.00761172
0.0092219
0.0111598
0.0135402
0.016519
0.0203029
0.0251738
0.0315378
0.039884
0.0511712
0.0662366
0.087784
0.11738
0.167164
0.224207
0.000477131
0.000498488
0.000557654
0.000658374
0.000818665
0.00105876
0.0014072
0.00189997
0.00257961
0.00349297
0.00468879
0.00621732
0.00813436
0.0105109
0.0134458
0.0170822
0.021628
0.027357
0.0346807
0.0440828
0.0564168
0.0724757
0.094351
0.123089
0.165275
0.220467
0.315894
0.43672
0.654639
0.00151969
0.00151969
0.00151969
0.00151969
0.00151969
0.00151969
0.00151969
0.00151969
0.00151969
0.00151969
0.00151969
0.00151969
0.00151969
0.00151969
0.00151969
0.0015197
0.0015197
0.0015197
0.0015197
0.0015197
0.0015197
0.0015197
0.0015197
0.0015197
0.0015197
0.0015197
0.00151969
0.00151969
0.0015197
0.0015197
0.0015197
0.0015197
0.0015197
0.0015197
0.0015197
0.0015197
0.0015197
0.0015197
0.0015197
0.0015197
0.0015197
0.0015197
0.0015197
0.0015197
0.0015197
0.0015197
0.0015197
0.0015197
0.0015197
0.0015197
0.0015197
0.0015197
0.0015197
0.0015197
0.0015197
0.0015197
0.0015197
0.0015197
0.0015197
0.0015197
0.0015197
0.0015197
0.0015197
0.0015197
0.0015197
0.0015197
0.0015197
0.0015197
0.0015197
0.00151971
0.00151971
0.00151971
0.00151971
0.00151971
0.00151971
0.00151971
0.00151971
0.00151971
0.00151971
0.00151971
0.00151971
0.00151971
0.00151971
0.00151971
0.00151971
0.00151971
0.00151971
0.00151971
0.00151971
0.00151971
0.00151971
0.00151971
0.00151971
0.00151971
0.00151971
0.00151971
0.00151971
0.00151971
0.00151971
0.00151971
0.00151971
0.00151971
0.00151971
0.00151971
0.00151971
0.00151971
0.00151971
0.00151971
0.00151971
0.00151971
0.00151971
0.00151971
0.00151971
0.00151971
0.00151971
0.00151971
0.00151971
0.00151971
0.00151971
0.00151971
0.00151971
0.00151971
0.00151971
0.00151971
0.00151971
0.00151971
0.00151971
0.00151971
0.00151971
0.00151971
0.00151971
0.00151971
0.00151971
0.00151972
0.00151971
0.00151972
0.00151972
0.00151973
0.00154206
3.28168e-005
3.28162e-005
3.2816e-005
3.28173e-005
3.28183e-005
3.28174e-005
3.28158e-005
3.28161e-005
3.2818e-005
3.28194e-005
3.28187e-005
3.28164e-005
3.28158e-005
3.28173e-005
3.28202e-005
3.28225e-005
3.28239e-005
3.28247e-005
3.28254e-005
3.28258e-005
3.28259e-005
3.28258e-005
3.28253e-005
3.28246e-005
3.28237e-005
3.28229e-005
3.28225e-005
3.28224e-005
3.28226e-005
3.2823e-005
3.28235e-005
3.28239e-005
3.28243e-005
3.28246e-005
3.2825e-005
3.28254e-005
3.28257e-005
3.28261e-005
3.28264e-005
3.28267e-005
3.2827e-005
3.28272e-005
3.28275e-005
3.28278e-005
3.28281e-005
3.28284e-005
3.28286e-005
3.28289e-005
3.28292e-005
3.28295e-005
3.28297e-005
3.283e-005
3.28303e-005
3.28305e-005
3.28308e-005
3.2831e-005
3.28313e-005
3.28316e-005
3.28319e-005
3.28322e-005
3.28325e-005
3.28328e-005
3.28331e-005
3.28334e-005
3.28337e-005
3.2834e-005
3.28343e-005
3.28346e-005
3.28349e-005
3.28351e-005
3.28354e-005
3.28357e-005
3.2836e-005
3.28363e-005
3.28365e-005
3.28368e-005
3.28371e-005
3.28374e-005
3.28377e-005
3.28379e-005
3.28382e-005
3.28385e-005
3.28388e-005
3.2839e-005
3.28392e-005
3.28394e-005
3.28396e-005
3.28398e-005
3.28399e-005
3.284e-005
3.28401e-005
3.28401e-005
3.28401e-005
3.28401e-005
3.28401e-005
3.28401e-005
3.28401e-005
3.28401e-005
3.284e-005
3.284e-005
3.28399e-005
3.28398e-005
3.28397e-005
3.28396e-005
3.28395e-005
3.28394e-005
3.28393e-005
3.28391e-005
3.2839e-005
3.28388e-005
3.28386e-005
3.28384e-005
3.28381e-005
3.28377e-005
3.28373e-005
3.28369e-005
3.28363e-005
3.28358e-005
3.28356e-005
3.28356e-005
3.28357e-005
3.2836e-005
3.28363e-005
3.28367e-005
3.28371e-005
3.28375e-005
3.28378e-005
3.28385e-005
3.28388e-005
3.28396e-005
3.28408e-005
3.28417e-005
3.28428e-005
3.28473e-005
3.28451e-005
3.28501e-005
3.28641e-005
3.28625e-005
3.37063e-005
1.42059e-006
1.42068e-006
1.4208e-006
1.42089e-006
1.42089e-006
1.42092e-006
1.42104e-006
1.42116e-006
1.42123e-006
1.4212e-006
1.42119e-006
1.42127e-006
1.4214e-006
1.42152e-006
1.42157e-006
1.42156e-006
1.42158e-006
1.42162e-006
1.42166e-006
1.4217e-006
1.42174e-006
1.42177e-006
1.4218e-006
1.42184e-006
1.42191e-006
1.42198e-006
1.42206e-006
1.42213e-006
1.42219e-006
1.42224e-006
1.42229e-006
1.42234e-006
1.42239e-006
1.42244e-006
1.42249e-006
1.42255e-006
1.4226e-006
1.42266e-006
1.42272e-006
1.42277e-006
1.42284e-006
1.4229e-006
1.42296e-006
1.42301e-006
1.42307e-006
1.42313e-006
1.42318e-006
1.42324e-006
1.4233e-006
1.42335e-006
1.42341e-006
1.42347e-006
1.42352e-006
1.42358e-006
1.42364e-006
1.42369e-006
1.42375e-006
1.4238e-006
1.42386e-006
1.42391e-006
1.42396e-006
1.42401e-006
1.42406e-006
1.42411e-006
1.42415e-006
1.4242e-006
1.42425e-006
1.42429e-006
1.42434e-006
1.42439e-006
1.42443e-006
1.42447e-006
1.42452e-006
1.42455e-006
1.4246e-006
1.42464e-006
1.42467e-006
1.42471e-006
1.42475e-006
1.42478e-006
1.42482e-006
1.42485e-006
1.42488e-006
1.42491e-006
1.42494e-006
1.42498e-006
1.42501e-006
1.42503e-006
1.42507e-006
1.42509e-006
1.42511e-006
1.42513e-006
1.42514e-006
1.42516e-006
1.42517e-006
1.42517e-006
1.42518e-006
1.42518e-006
1.42518e-006
1.42518e-006
1.42517e-006
1.42516e-006
1.42515e-006
1.42513e-006
1.42512e-006
1.4251e-006
1.42507e-006
1.42505e-006
1.42502e-006
1.42498e-006
1.42495e-006
1.42491e-006
1.42487e-006
1.42482e-006
1.42476e-006
1.4247e-006
1.42465e-006
1.42459e-006
1.42456e-006
1.42453e-006
1.4245e-006
1.42447e-006
1.42444e-006
1.42441e-006
1.42436e-006
1.42433e-006
1.4243e-006
1.42421e-006
1.42424e-006
1.42425e-006
1.42419e-006
1.42438e-006
1.42419e-006
1.42467e-006
1.42488e-006
1.42689e-006
1.33441e-006
1.34285e-006
8.20943e-006
1.19996e-007
1.20016e-007
1.20028e-007
1.20043e-007
1.20066e-007
1.20082e-007
1.20092e-007
1.20097e-007
1.2011e-007
1.2013e-007
1.20146e-007
1.20158e-007
1.20159e-007
1.20168e-007
1.20184e-007
1.20208e-007
1.20227e-007
1.20239e-007
1.20248e-007
1.20256e-007
1.20265e-007
1.20276e-007
1.20288e-007
1.20302e-007
1.20315e-007
1.20324e-007
1.20332e-007
1.20343e-007
1.20354e-007
1.20367e-007
1.20381e-007
1.20394e-007
1.20407e-007
1.2042e-007
1.20432e-007
1.20444e-007
1.20456e-007
1.20468e-007
1.20479e-007
1.20491e-007
1.20502e-007
1.20513e-007
1.20525e-007
1.20537e-007
1.20549e-007
1.20561e-007
1.20573e-007
1.20586e-007
1.20597e-007
1.20609e-007
1.20621e-007
1.20633e-007
1.20644e-007
1.20656e-007
1.20667e-007
1.20678e-007
1.20689e-007
1.207e-007
1.20711e-007
1.20722e-007
1.20732e-007
1.20742e-007
1.20752e-007
1.20762e-007
1.20772e-007
1.20781e-007
1.20791e-007
1.208e-007
1.20809e-007
1.20818e-007
1.20827e-007
1.20836e-007
1.20843e-007
1.20853e-007
1.2086e-007
1.20868e-007
1.20876e-007
1.20883e-007
1.2089e-007
1.20897e-007
1.20904e-007
1.20911e-007
1.20918e-007
1.20924e-007
1.2093e-007
1.20936e-007
1.20941e-007
1.20946e-007
1.20952e-007
1.20958e-007
1.20963e-007
1.20968e-007
1.20972e-007
1.20976e-007
1.2098e-007
1.20982e-007
1.20985e-007
1.20987e-007
1.20988e-007
1.20989e-007
1.20989e-007
1.20988e-007
1.20987e-007
1.20985e-007
1.20983e-007
1.2098e-007
1.20976e-007
1.20972e-007
1.20967e-007
1.20961e-007
1.20954e-007
1.20947e-007
1.20939e-007
1.20931e-007
1.20921e-007
1.2091e-007
1.20899e-007
1.20889e-007
1.20879e-007
1.2087e-007
1.20859e-007
1.20848e-007
1.20833e-007
1.20821e-007
1.20803e-007
1.20789e-007
1.20775e-007
1.2076e-007
1.2073e-007
1.20745e-007
1.20782e-007
1.20561e-007
1.20729e-007
1.21635e-007
1.19414e-007
1.0967e-007
3.13915e-007
2.88406e-005
0.0028864
1.85305e-008
1.85345e-008
1.85389e-008
1.85431e-008
1.85462e-008
1.85477e-008
1.8551e-008
1.85558e-008
1.85606e-008
1.85638e-008
1.85645e-008
1.85669e-008
1.85711e-008
1.85762e-008
1.85817e-008
1.85852e-008
1.85881e-008
1.85911e-008
1.8594e-008
1.85972e-008
1.86009e-008
1.86049e-008
1.86088e-008
1.86122e-008
1.86153e-008
1.86185e-008
1.86225e-008
1.86264e-008
1.86302e-008
1.86338e-008
1.86373e-008
1.86409e-008
1.86446e-008
1.86484e-008
1.86521e-008
1.86558e-008
1.86594e-008
1.86631e-008
1.86667e-008
1.86704e-008
1.86742e-008
1.86779e-008
1.86817e-008
1.86853e-008
1.86888e-008
1.86924e-008
1.86958e-008
1.86993e-008
1.87027e-008
1.87061e-008
1.87095e-008
1.87129e-008
1.87162e-008
1.87195e-008
1.87227e-008
1.87259e-008
1.87291e-008
1.87321e-008
1.87352e-008
1.87382e-008
1.87413e-008
1.87442e-008
1.87471e-008
1.87501e-008
1.87529e-008
1.87558e-008
1.87585e-008
1.87613e-008
1.8764e-008
1.87667e-008
1.87692e-008
1.87718e-008
1.87744e-008
1.87766e-008
1.87793e-008
1.87815e-008
1.87838e-008
1.8786e-008
1.87881e-008
1.87903e-008
1.87922e-008
1.87943e-008
1.87959e-008
1.87977e-008
1.87994e-008
1.8801e-008
1.88026e-008
1.88039e-008
1.88054e-008
1.88069e-008
1.88085e-008
1.88099e-008
1.88113e-008
1.88126e-008
1.88138e-008
1.88149e-008
1.88159e-008
1.88167e-008
1.88174e-008
1.8818e-008
1.88185e-008
1.88188e-008
1.88189e-008
1.88189e-008
1.88187e-008
1.88183e-008
1.88177e-008
1.8817e-008
1.88161e-008
1.8815e-008
1.88135e-008
1.88118e-008
1.88099e-008
1.88078e-008
1.88054e-008
1.88027e-008
1.87999e-008
1.87972e-008
1.87944e-008
1.87914e-008
1.8788e-008
1.87845e-008
1.87796e-008
1.87758e-008
1.87697e-008
1.8765e-008
1.87582e-008
1.87532e-008
1.87437e-008
1.87703e-008
1.86389e-008
1.89581e-008
1.88468e-008
1.65619e-008
1.95431e-008
1.91095e-007
1.78518e-005
0.00123616
0.0220356
4.68629e-009
4.68788e-009
4.68905e-009
4.68982e-009
4.69088e-009
4.6924e-009
4.69403e-009
4.69506e-009
4.69561e-009
4.69646e-009
4.69791e-009
4.69966e-009
4.70118e-009
4.70183e-009
4.70296e-009
4.70421e-009
4.70559e-009
4.70677e-009
4.70802e-009
4.70935e-009
4.71076e-009
4.71213e-009
4.71353e-009
4.71496e-009
4.71649e-009
4.71808e-009
4.71957e-009
4.72102e-009
4.72252e-009
4.72416e-009
4.72576e-009
4.72732e-009
4.72891e-009
4.73049e-009
4.73207e-009
4.73362e-009
4.73517e-009
4.73671e-009
4.73825e-009
4.73977e-009
4.74127e-009
4.74274e-009
4.74421e-009
4.74569e-009
4.74718e-009
4.74869e-009
4.75018e-009
4.75167e-009
4.75313e-009
4.75458e-009
4.75601e-009
4.75742e-009
4.75882e-009
4.7602e-009
4.76156e-009
4.76291e-009
4.76423e-009
4.76555e-009
4.76684e-009
4.76814e-009