/*--------------------------------*- C++ -*----------------------------------*\
| =========                 |                                                 |
| \\      /  F ield         | OpenFOAM: The Open Source CFD Toolbox           |
|  \\    /   O peration     | Version:  5.x                                   |
|   \\  /    A nd           | Web:      www.OpenFOAM.org                      |
|    \\/     M anipulation  |                                                 |
\*---------------------------------------------------------------------------*/
/*   Windows 32 and 64 bit porting by blueCAPE: http://www.bluecape.com.pt   *\
|  Based on Windows porting (2.0.x v4) by Symscape: http://www.symscape.com   |
\*---------------------------------------------------------------------------*/
FoamFile
{
    version     2.0;
    format      ascii;
    class       volScalarField;
    location    "230";
    object      k;
}
// * * * * * * * * * * * * * * * * * * * * * * * * * * * * * * * * * * * * * //

dimensions      [0 2 -2 0 0 0 0];

internalField   nonuniform List<scalar> 
43900
(
0.000985515
0.000989439
0.000990249
0.000990177
0.000990126
0.000990115
0.000990118
0.000990118
0.000990121
0.000990128
0.00099013
0.00099013
0.000990131
0.000990131
0.000990132
0.000990134
0.000990134
0.000990135
0.000990136
0.000990136
0.000990138
0.000990138
0.000990138
0.000990139
0.000990139
0.000990139
0.00099014
0.000990139
0.000990139
0.00164771
5.59477e-005
3.89314e-005
3.81729e-005
4.08117e-005
4.09671e-005
4.09862e-005
4.09522e-005
4.09549e-005
4.0965e-005
4.09689e-005
4.09706e-005
4.09714e-005
4.09726e-005
4.09745e-005
4.09774e-005
4.09783e-005
4.09804e-005
4.09822e-005
4.09826e-005
4.09845e-005
4.09853e-005
4.09855e-005
4.09871e-005
4.09872e-005
4.09873e-005
4.09885e-005
4.09882e-005
4.09883e-005
0.294281
0.0539298
0.00408714
0.000116988
4.97665e-006
3.08342e-006
2.97838e-006
3.34449e-006
3.38106e-006
3.3747e-006
3.3704e-006
3.37112e-006
3.37256e-006
3.37345e-006
3.37417e-006
3.37496e-006
3.37571e-006
3.37643e-006
3.37698e-006
3.37752e-006
3.37799e-006
3.37834e-006
3.37874e-006
3.37907e-006
3.3793e-006
3.3796e-006
3.37983e-006
3.38e-006
3.38019e-006
0.879115
0.375763
0.119563
0.0236716
0.00205765
8.15067e-005
3.96631e-006
5.88242e-007
4.56676e-007
5.02101e-007
5.34221e-007
5.34581e-007
5.30274e-007
5.3031e-007
5.31414e-007
5.31507e-007
5.3149e-007
5.31655e-007
5.31829e-007
5.31958e-007
5.32063e-007
5.32177e-007
5.32273e-007
5.32361e-007
5.32451e-007
5.32523e-007
5.32598e-007
5.32672e-007
5.32719e-007
1.29213
0.7408
0.395865
0.177248
0.0563582
0.010343
0.000819076
3.66836e-005
1.64263e-006
2.21212e-007
1.27926e-007
1.31557e-007
1.47531e-007
1.47548e-007
1.44553e-007
1.45161e-007
1.45942e-007
1.45865e-007
1.45843e-007
1.45887e-007
1.45938e-007
1.45975e-007
1.46005e-007
1.46036e-007
1.46067e-007
1.46095e-007
1.46119e-007
1.46145e-007
1.46167e-007
1.54601
0.98294
0.615535
0.368707
0.197805
0.0822151
0.0225531
0.00309183
0.000191781
9.0132e-006
4.72278e-007
8.63464e-008
5.32725e-008
5.64919e-008
6.318e-008
6.11862e-008
5.99471e-008
6.05021e-008
6.06513e-008
6.05763e-008
6.05553e-008
6.05674e-008
6.05807e-008
6.05925e-008
6.06086e-008
6.06187e-008
6.0628e-008
6.06441e-008
6.06516e-008
1.71503
1.15261
0.775078
0.515062
0.331274
0.198418
0.0999504
0.0345177
0.00682652
0.000607569
3.28635e-005
1.69234e-006
1.20098e-007
3.70564e-008
2.85754e-008
3.27691e-008
3.37965e-008
3.23905e-008
3.24277e-008
3.27473e-008
3.28366e-008
3.2848e-008
3.28532e-008
3.28614e-008
3.28689e-008
3.28745e-008
3.28811e-008
3.28882e-008
3.28924e-008
1.81315
1.25913
0.880144
0.614849
0.424691
0.285215
0.1807
0.101445
0.0423545
0.0108284
0.00132133
8.407e-005
4.57897e-006
2.68241e-007
3.6747e-008
2.04884e-008
2.05304e-008
2.29074e-008
2.22545e-008
2.15589e-008
2.15612e-008
2.15888e-008
2.15996e-008
2.16033e-008
2.16078e-008
2.16146e-008
2.16188e-008
2.16229e-008
2.16253e-008
1.88018
1.337
0.959576
0.691768
0.49759
0.353791
0.245119
0.161523
0.0964125
0.0455565
0.0133013
0.0019422
0.000141462
8.29891e-006
4.95104e-007
4.41279e-008
1.74491e-008
1.4359e-008
1.62465e-008
1.66751e-008
1.64132e-008
1.63366e-008
1.63394e-008
1.63426e-008
1.6347e-008
1.63495e-008
1.63526e-008
1.63562e-008
1.6358e-008
1.90534
1.37716
1.00672
0.741562
0.54779
0.403273
0.293321
0.20806
0.140814
0.0871148
0.0442925
0.013889
0.00222878
0.000178253
1.12265e-005
7.05826e-007
5.619e-008
1.55678e-008
1.13739e-008
1.20804e-008
1.28118e-008
1.27937e-008
1.27525e-008
1.27465e-008
1.27493e-008
1.2751e-008
1.2752e-008
1.27568e-008
1.27618e-008
1.90745
1.39505
1.03293
0.772143
0.580569
0.437079
0.327506
0.242227
0.174642
0.120223
0.0759551
0.0401293
0.0129593
0.00216022
0.000184481
1.25486e-005
8.49132e-007
6.74597e-008
1.3948e-008
9.39277e-009
9.09486e-009
9.46273e-009
9.59671e-009
9.61057e-009
9.61342e-009
9.61581e-009
9.61959e-009
9.6257e-009
9.62978e-009
1.89964
1.40295
1.04951
0.793398
0.604321
0.46215
0.353279
0.268372
0.200956
0.146514
0.101919
0.0650921
0.0348936
0.0112647
0.00188937
0.000171039
1.2717e-005
9.39381e-007
7.71669e-008
1.33325e-008
8.17496e-009
7.31733e-009
7.39428e-009
7.44703e-009
7.45906e-009
7.46158e-009
7.46429e-009
7.46731e-009
7.47088e-009
1.87926
1.39954
1.05593
0.805736
0.620204
0.480162
0.372597
0.288525
0.221664
0.167584
0.123157
0.0861962
0.0552574
0.0295748
0.00933737
0.00154382
0.000147054
1.19222e-005
9.56174e-007
8.27625e-008
1.31811e-008
7.43247e-009
6.68656e-009
6.57618e-009
6.57434e-009
6.57541e-009
6.57609e-009
6.5774e-009
6.57886e-009
1.8477
1.38643
1.05381
0.810342
0.629183
0.492014
0.386354
0.303586
0.237651
0.184249
0.140305
0.103626
0.0726745
0.0464479
0.0244584
0.00739483
0.00118133
0.000116956
1.02041e-005
8.8062e-007
8.11172e-008
1.29063e-008
7.0495e-009
6.52083e-009
6.44623e-009
6.43666e-009
6.43625e-009
6.43625e-009
6.43649e-009
1.80694
1.36435
1.04424
0.808495
0.632271
0.498531
0.395283
0.31423
0.249553
0.1971
0.153883
0.117744
0.0871323
0.0609667
0.0385583
0.0196197
0.0055515
0.00084251
8.6094e-005
8.01502e-006
7.36644e-007
7.21341e-008
1.22903e-008
6.96553e-009
6.49963e-009
6.45823e-009
6.45608e-009
6.4561e-009
6.45617e-009
1.75843
1.33511
1.02767
0.800909
0.630475
0.500519
0.400054
0.321055
0.257912
0.206635
0.164339
0.128924
0.098864
0.0730577
0.0507443
0.0314617
0.0150632
0.00387969
0.000552971
5.79082e-005
5.66033e-006
5.48558e-007
5.78468e-008
1.13265e-008
6.98493e-009
6.58421e-009
6.54772e-009
6.54491e-009
6.54492e-009
1.70363
1.30002
1.0058
0.788064
0.62429
0.498847
0.401369
0.324663
0.26327
0.213344
0.172114
0.137552
0.108173
0.0828863
0.0609125
0.0417241
0.0250321
0.0107835
0.00245222
0.000328108
3.54317e-005
3.65939e-006
3.76487e-007
4.36601e-008
1.04326e-008
7.16276e-009
6.84247e-009
6.81268e-009
6.80855e-009
1.64384
1.26026
0.979676
0.771379
0.614251
0.493856
0.399963
0.325665
0.26618
0.217744
0.177688
0.144072
0.11546
0.0907913
0.0692886
0.0504024
0.0337812
0.0192844
0.00701871
0.00137698
0.000177251
1.99694e-005
2.17721e-006
2.38918e-007
3.18601e-008
1.00497e-008
7.76327e-009
7.51977e-009
7.49023e-009
1.58022
1.21687
0.950204
0.751655
0.60146
0.486072
0.396062
0.324619
0.267097
0.220242
0.181445
0.148835
0.12104
0.0970371
0.0760705
0.0575884
0.0412114
0.0267213
0.0140554
0.00413256
0.0007087
9.10396e-005
1.07967e-005
1.25139e-006
1.49507e-007
2.48115e-008
1.09035e-008
9.33983e-009
9.14258e-009
1.51388
1.17082
0.918234
0.729626
0.586551
0.476339
0.390148
0.321724
0.266456
0.221225
0.183724
0.152161
0.125218
0.101914
0.0815176
0.0634877
0.0474365
0.0331118
0.0203994
0.00933689
0.00227067
0.000353732
4.61963e-005
5.76453e-006
7.14265e-007
9.71376e-008
2.29579e-008
1.40893e-008
1.2993e-008
1.44576
1.12293
0.88449
0.705927
0.57009
0.465165
0.382889
0.317404
0.264505
0.221019
0.184896
0.154416
0.128342
0.105748
0.0859341
0.0683775
0.0526945
0.0386202
0.0260011
0.0147887
0.005477
0.00113113
0.000170241
2.31455e-005
3.05166e-006
4.10352e-007
7.07606e-008
2.74469e-008
2.18011e-008
1.37658
1.07385
0.849535
0.681056
0.552519
0.452949
0.374651
0.31216
0.261546
0.219949
0.185153
0.155781
0.130608
0.108746
0.0895306
0.0724612
0.0571656
0.0433779
0.0309275
0.019742
0.00984287
0.00283639
0.000524126
7.99938e-005
1.14983e-005
1.63077e-006
2.55506e-007
6.78506e-008
4.22946e-008
1.30694
1.02409
0.81381
0.655396
0.534179
0.439999
0.36572
0.306261
0.257962
0.21815
0.184853
0.156601
0.132318
0.111178
0.0925528
0.0759648
0.0610563
0.0475655
0.035315
0.0242098
0.0142087
0.0058511
0.0013839
0.000242482
3.81511e-005
5.82741e-006
9.26808e-007
1.98893e-007
9.17001e-008
1.23732
0.974045
0.777648
0.629232
0.515312
0.426528
0.356286
0.299885
0.253928
0.215938
0.184085
0.15696
0.133588
0.113182
0.0951528
0.0790489
0.0645298
0.0513423
0.0393079
0.0283168
0.0183227
0.00941404
0.00308442
0.000650088
0.000114151
1.88588e-005
3.13161e-006
6.16826e-007
2.18241e-007
1.16811
0.924038
0.741312
0.602779
0.496101
0.41269
0.346484
0.293147
0.249542
0.213372
0.182933
0.156948
0.134507
0.114852
0.0974301
0.0818188
0.0676968
0.0548222
0.0430198
0.032175
0.0222318
0.0131596
0.00559053
0.00148951
0.000301894
5.51172e-005
9.8014e-006
1.90197e-006
5.56612e-007
1.09968
0.874346
0.705017
0.576206
0.476681
0.3986
0.336412
0.28614
0.244898
0.210569
0.181586
0.156779
0.135247
0.11633
0.0995091
0.0843882
0.0706631
0.0581035
0.0465401
0.0358572
0.0259917
0.0169191
0.00876066
0.00301337
0.000717568
0.000145943
2.81711e-005
5.65398e-006
1.48331e-006
1.03234
0.825197
0.668934
0.549644
0.457152
0.384335
0.326135
0.278919
0.240043
0.207567
0.18005
0.156411
0.135819
0.11766
0.101455
0.0868356
0.073516
0.0612794
0.0499637
0.0394543
0.0296814
0.0206138
0.0122768
0.00536993
0.00155145
0.000356408
7.49264e-005
1.58758e-005
3.9969e-006
0.966352
0.776787
0.633205
0.523194
0.437589
0.369949
0.315691
0.27151
0.234999
0.204384
0.178343
0.155885
0.136254
0.118875
0.103306
0.0892056
0.0763083
0.0644109
0.0533599
0.0430437
0.0333889
0.0243551
0.0159147
0.00837247
0.00307913
0.00081459
0.000187938
4.22487e-005
1.06097e-005
0.901954
0.729287
0.597951
0.496942
0.418047
0.355478
0.3051
0.263926
0.22977
0.201019
0.176469
0.155213
0.13656
0.119982
0.10507
0.0915104
0.0790564
0.0675191
0.0567543
0.046656
0.0371514
0.0281967
0.0197617
0.0118541
0.00537945
0.00171684
0.000443815
0.000107254
2.71969e-005
0.839362
0.68285
0.56328
0.470959
0.398572
0.340948
0.294376
0.256166
0.224348
0.197462
0.174413
0.154377
0.136718
0.120968
0.10674
0.093744
0.0817565
0.0706018
0.0601456
0.0502877
0.0409586
0.0321157
0.0237368
0.0157932
0.00847881
0.00331388
0.000983447
0.000259141
6.76976e-005
0.778764
0.637614
0.52929
0.445312
0.379209
0.326383
0.283527
0.248231
0.218726
0.193696
0.172153
0.153345
0.136693
0.121798
0.108284
0.0958852
0.0843947
0.0736514
0.0635309
0.0539394
0.0448105
0.0361022
0.0277961
0.0198864
0.0123706
0.00587731
0.00204062
0.000596991
0.000163064
0.720326
0.593701
0.496068
0.420064
0.359997
0.311808
0.272563
0.240119
0.212894
0.189709
0.169676
0.152119
0.136523
0.122487
0.109703
0.0979238
0.0869582
0.0766565
0.066903
0.0576096
0.0487128
0.0401704
0.0319619
0.0240888
0.0165485
0.00948393
0.00401428
0.00131654
0.000381907
0.664185
0.551218
0.463695
0.39527
0.340974
0.297244
0.261495
0.231829
0.206843
0.185485
0.166961
0.150665
0.136135
0.12299
0.110964
0.0998346
0.0894254
0.0795985
0.0702462
0.0612864
0.0526584
0.0443204
0.0362492
0.0284403
0.0209119
0.0136596
0.00713572
0.0027399
0.000866528
0.610456
0.510258
0.432243
0.370986
0.322177
0.282714
0.250332
0.223363
0.200566
0.181008
0.163982
0.148947
0.135483
0.123256
0.112028
0.101584
0.0917663
0.0824501
0.0735361
0.0649477
0.0566275
0.0485352
0.040646
0.0329508
0.0254645
0.0181926
0.0112004
0.00532434
0.00189268
0.559232
0.470902
0.401777
0.34726
0.303644
0.268243
0.239088
0.214721
0.194053
0.176261
0.160718
0.146941
0.134549
0.123239
0.11284
0.10312
0.0939342
0.085169
0.0767339
0.0685579
0.0605873
0.0527832
0.045121
0.0375893
0.0301951
0.0229582
0.0158748
0.0091677
0.00387766
0.510586
0.43322
0.372359
0.324144
0.285411
0.253855
0.227776
0.205908
0.187301
0.171233
0.157152
0.14463
0.133332
0.123
0.11342
0.104433
0.0959039
0.0877228
0.0798044
0.0720817
0.0645029
0.0570305
0.0496396
0.0423176
0.0350661
0.027906
0.0208443
0.0139512
0.00732872
0.464574
0.397271
0.344045
0.301685
0.267518
0.23958
0.216416
0.196933
0.180309
0.165914
0.153266
0.141986
0.131781
0.12242
0.113676
0.105462
0.097625
0.0900665
0.0827061
0.0754801
0.0683384
0.0612438
0.0541707
0.047105
0.0400447
0.0330061
0.0260013
0.0191313
0.012112
0.421237
0.36311
0.316889
0.279934
0.250006
0.225451
0.205029
0.187808
0.173079
0.160298
0.149043
0.138983
0.129857
0.121451
0.113582
0.106166
0.0990547
0.0921565
0.0853964
0.0787128
0.0720567
0.06539
0.0586855
0.0519265
0.0451078
0.0382389
0.0313349
0.0244781
0.0175904
0.3806
0.330781
0.290941
0.258938
0.23292
0.211502
0.193643
0.178551
0.16562
0.154383
0.144475
0.135606
0.127547
0.120112
0.113155
0.106515
0.100152
0.0939479
0.0878299
0.0817366
0.0756182
0.0694345
0.0631551
0.0567597
0.0502384
0.043594
0.0368412
0.0300218
0.0232609
0.342675
0.300319
0.266248
0.238748
0.216305
0.197776
0.182292
0.169186
0.157947
0.148175
0.139556
0.131839
0.124824
0.118347
0.112271
0.106443
0.10086
0.0953877
0.0899548
0.0845017
0.0789769
0.0733369
0.0675466
0.0615798
0.0554205
0.0490636
0.0425191
0.0358044
0.0290659
0.307454
0.271747
0.242848
0.219408
0.200208
0.184315
0.171011
0.159743
0.15008
0.141685
0.134288
0.127675
0.121671
0.116132
0.110936
0.105983
0.10114
0.0964245
0.091715
0.086951
0.0820781
0.0770479
0.0718185
0.0663557
0.0606343
0.0546395
0.0483719
0.0418376
0.0351291
0.274911
0.245077
0.220774
0.200962
0.184676
0.171166
0.159846
0.15026
0.14205
0.134934
0.128683
0.123114
0.118077
0.113446
0.109114
0.104994
0.100956
0.0970057
0.0930489
0.0890188
0.0848559
0.0805053
0.0759167
0.0710448
0.0658519
0.0603097
0.0544043
0.0481322
0.0415327
0.244998
0.220303
0.200047
0.183446
0.169754
0.158376
0.148842
0.14078
0.133895
0.127953
0.122762
0.118168
0.114043
0.110277
0.106779
0.103468
0.100272
0.0970395
0.0938743
0.0906238
0.0872291
0.0836307
0.0797693
0.0755872
0.0710305
0.0660521
0.0606174
0.0547067
0.0483203
0.217645
0.197404
0.180676
0.16689
0.155483
0.145994
0.138051
0.131353
0.125662
0.120784
0.116561
0.112864
0.109584
0.10663
0.103922
0.101391
0.0989703
0.0965842
0.0941416
0.0916947
0.0891134
0.0863332
0.0832862
0.079901
0.0761046
0.0718256
0.0670005
0.0615817
0.0555348
0.192762
0.17634
0.162657
0.151313
0.1419
0.134069
0.127527
0.122038
0.11741
0.113484
0.110131
0.107245
0.104736
0.102529
0.100556
0.0987593
0.0970841
0.0954845
0.0938396
0.0921578
0.0904188
0.0885099
0.0863568
0.0838762
0.0809753
0.0775542
0.0735129
0.0687602
0.0632181
0.170239
0.157058
0.145975
0.136729
0.12904
0.122648
0.117331
0.112902
0.109208
0.106123
0.103542
0.101378
0.0995592
0.098024
0.096719
0.0955969
0.094613
0.0937276
0.0928946
0.0919814
0.0910616
0.0900541
0.0888544
0.0873729
0.0855001
0.0831073
0.0800561
0.0761932
0.0713757
0.149953
0.139491
0.130607
0.123148
0.116936
0.111786
0.107529
0.104023
0.101145
0.0987951
0.0968888
0.0953572
0.0941434
0.0931997
0.0924848
0.0919646
0.0916011
0.0913704
0.0912356
0.0911556
0.0909913
0.0908725
0.0906494
0.0902295
0.089493
0.0882811
0.0864431
0.0837389
0.0799232
0.131773
0.123568
0.116527
0.11058
0.105629
0.101546
0.0982079
0.095503
0.0933353
0.0916235
0.090301
0.0893135
0.0886182
0.0881806
0.0879671
0.0879692
0.0881312
0.0884787
0.0889679
0.0895734
0.0902549
0.0908884
0.0916263
0.0922828
0.0927428
0.09278
0.0923872
0.0911557
0.0886346
0.115571
0.10922
0.103716
0.0990446
0.0951717
0.0920131
0.0894766
0.0874743
0.0859277
0.0847699
0.0839476
0.0834189
0.0831547
0.0831356
0.0833218
0.0837424
0.0843608
0.0851791
0.0861862
0.0873717
0.0887287
0.0902072
0.0917195
0.0934026
0.0950626
0.0965243
0.0976437
0.0978484
0.0970135
0.101231
0.0963909
0.0921652
0.0885791
0.0856428
0.0833011
0.0814817
0.0801094
0.0791149
0.0784395
0.0780408
0.0778864
0.0779623
0.0782508
0.078764
0.0794976
0.0804493
0.0816261
0.0830323
0.0846733
0.0865576
0.088692
0.0910342
0.0935183
0.0962932
0.0991146
0.101838
0.103904
0.104746
0.0886573
0.0850439
0.0818929
0.0792492
0.0771527
0.0755622
0.0744107
0.0736239
0.0731323
0.0728788
0.0728325
0.0729628
0.0732824
0.0737936
0.0745088
0.0754427
0.0766076
0.0780196
0.0796951
0.0816529
0.0839176
0.0865163
0.0894781
0.0927798
0.0963862
0.100417
0.104705
0.108637
0.111838
0.0777859
0.0751712
0.0729436
0.0711504
0.0698448
0.0689827
0.068486
0.0682692
0.0682514
0.0683687
0.0686042
0.0689408
0.0694032
0.0700184
0.0708182
0.0718329
0.0730891
0.0746124
0.0764283
0.0785658
0.0810603
0.0839566
0.0873064
0.0911673
0.095598
0.100482
0.106181
0.111837
0.117759
0.0685819
0.0667906
0.065385
0.0643985
0.0638799
0.0637661
0.0639472
0.0643194
0.0647738
0.0652435
0.0657065
0.0661714
0.0666816
0.0672921
0.0680605
0.0690381
0.0702669
0.0717836
0.0736204
0.0758151
0.0784055
0.0814555
0.0850177
0.0892097
0.0941123
0.0998289
0.106613
0.113662
0.12272
0.061029
0.0599306
0.0592878
0.0591047
0.0594072
0.0601015
0.0610391
0.0620693
0.0630589
0.0639217
0.064626
0.0651949
0.0656971
0.0662231
0.0668667
0.0677104
0.0688184
0.0702437
0.0720248
0.0742125
0.0768339
0.0799918
0.0836792
0.0881628
0.0933484
0.0996879
0.107397
0.115444
0.128393
0.0551029
0.0546011
0.0546923
0.0553342
0.0565379
0.0581491
0.0599834
0.0618443
0.063543
0.0649614
0.0660535
0.0668422
0.0674157
0.0679036
0.0684468
0.069176
0.070192
0.0715785
0.0733846
0.0756951
0.0784985
0.0820099
0.0860067
0.0911924
0.0967105
0.104168
0.112694
0.122276
0.140721
0.0507369
0.0507595
0.0515707
0.0530989
0.0553047
0.0580041
0.0609586
0.0639409
0.066738
0.0691751
0.0711484
0.072649
0.0737622
0.0746475
0.075502
0.0765345
0.0779177
0.0798155
0.0823199
0.0856363
0.0896773
0.0950404
0.100866
0.109377
0.116956
0.130031
0.140493
0.158804
0.181129
0.0478001
0.0482854
0.0498347
0.0523109
0.0556581
0.0596641
0.0641059
0.0687229
0.0732636
0.0775095
0.0813075
0.0846058
0.0874734
0.0900918
0.0927244
0.0956963
0.0993158
0.103919
0.109745
0.117294
0.126503
0.138747
0.15239
0.172472
0.190919
0.224491
0.249143
0.308671
0.334797
0.046107
0.0470048
0.0493191
0.0528166
0.0574693
0.0630755
0.0694109
0.0762269
0.0832762
0.0903336
0.0972341
0.103919
0.110473
0.11713
0.124262
0.132323
0.141862
0.153493
0.167777
0.185621
0.207417
0.235255
0.268126
0.312771
0.361558
0.437709
0.511349
0.664196
0.744678
0.0454769
0.0467391
0.0498571
0.0544526
0.0605812
0.0680433
0.0766598
0.086229
0.0965517
0.10745
0.118807
0.13062
0.143047
0.156432
0.1713
0.188327
0.208357
0.232355
0.261373
0.296801
0.340003
0.393641
0.459108
0.543366
0.646054
0.788392
0.965905
1.23734
1.5012
0.00099014
0.000990139
0.000990139
0.00099014
0.000990141
0.00099014
0.000990139
0.000990139
0.00099014
0.000990142
0.000990141
0.000990139
0.000990138
0.00099014
0.000990142
0.000990144
0.000990145
0.000990146
0.000990147
0.000990147
0.000990147
0.000990147
0.000990147
0.000990146
0.000990145
0.000990144
0.000990144
0.000990144
0.000990144
0.000990144
0.000990145
0.000990145
0.000990145
0.000990145
0.000990146
0.000990146
0.000990146
0.000990147
0.000990147
0.000990147
0.000990147
0.000990147
0.000990148
0.000990148
0.000990148
0.000990148
0.000990148
0.000990149
0.000990149
0.000990149
0.000990149
0.000990149
0.00099015
0.00099015
0.00099015
0.00099015
0.00099015
0.000990151
0.000990151
0.000990151
0.000990151
0.000990151
0.000990152
0.000990152
0.000990152
0.000990152
0.000990153
0.000990153
0.000990153
0.000990153
0.000990154
0.000990154
0.000990154
0.000990154
0.000990154
0.000990155
0.000990155
0.000990155
0.000990155
0.000990155
0.000990156
0.000990156
0.000990156
0.000990156
0.000990157
0.000990157
0.000990157
0.000990157
0.000990157
0.000990157
0.000990157
0.000990157
0.000990157
0.000990157
0.000990157
0.000990157
0.000990157
0.000990157
0.000990157
0.000990157
0.000990157
0.000990157
0.000990157
0.000990157
0.000990157
0.000990157
0.000990156
0.000990156
0.000990156
0.000990156
0.000990156
0.000990156
0.000990156
0.000990155
0.000990155
0.000990155
0.000990154
0.000990154
0.000990154
0.000990154
0.000990154
0.000990154
0.000990154
0.000990155
0.000990155
0.000990155
0.000990156
0.000990156
0.000990157
0.000990157
0.000990158
0.000990159
0.00099016
0.000990164
0.000990162
0.000990166
0.000990165
0.000990175
0.00100826
4.09892e-005
4.09885e-005
4.09883e-005
4.099e-005
4.09911e-005
4.09899e-005
4.09882e-005
4.09886e-005
4.0991e-005
4.09925e-005
4.09916e-005
4.0989e-005
4.09884e-005
4.09903e-005
4.09938e-005
4.09964e-005
4.0998e-005
4.09991e-005
4.09999e-005
4.10004e-005
4.10006e-005
4.10004e-005
4.09998e-005
4.09989e-005
4.09979e-005
4.09971e-005
4.09966e-005
4.09966e-005
4.09969e-005
4.09974e-005
4.0998e-005
4.09985e-005
4.0999e-005
4.09994e-005
4.09999e-005
4.10003e-005
4.10008e-005
4.10013e-005
4.10017e-005
4.10021e-005
4.10024e-005
4.10027e-005
4.10031e-005
4.10035e-005
4.10039e-005
4.10043e-005
4.10046e-005
4.1005e-005
4.10053e-005
4.10057e-005
4.10061e-005
4.10064e-005
4.10067e-005
4.10071e-005
4.10074e-005
4.10078e-005
4.10081e-005
4.10085e-005
4.10088e-005
4.10093e-005
4.10096e-005
4.101e-005
4.10104e-005
4.10108e-005
4.10112e-005
4.10116e-005
4.1012e-005
4.10123e-005
4.10127e-005
4.10131e-005
4.10134e-005
4.10138e-005
4.10141e-005
4.10146e-005
4.10148e-005
4.10152e-005
4.10156e-005
4.10159e-005
4.10163e-005
4.10166e-005
4.1017e-005
4.10173e-005
4.10177e-005
4.1018e-005
4.10182e-005
4.10185e-005
4.10188e-005
4.1019e-005
4.10192e-005
4.10193e-005
4.10194e-005
4.10194e-005
4.10195e-005
4.10195e-005
4.10195e-005
4.10195e-005
4.10194e-005
4.10194e-005
4.10194e-005
4.10193e-005
4.10192e-005
4.10191e-005
4.1019e-005
4.10188e-005
4.10187e-005
4.10185e-005
4.10184e-005
4.10182e-005
4.1018e-005
4.10177e-005
4.10175e-005
4.10172e-005
4.10168e-005
4.10163e-005
4.10158e-005
4.10153e-005
4.10146e-005
4.10139e-005
4.10136e-005
4.10136e-005
4.10138e-005
4.10141e-005
4.10145e-005
4.10149e-005
4.10154e-005
4.10158e-005
4.10162e-005
4.1017e-005
4.10174e-005
4.10184e-005
4.10198e-005
4.10209e-005
4.10223e-005
4.10281e-005
4.1025e-005
4.10311e-005
4.10638e-005
4.10559e-005
4.13278e-005
3.38036e-006
3.38059e-006
3.38088e-006
3.38107e-006
3.38111e-006
3.3812e-006
3.38149e-006
3.38174e-006
3.38189e-006
3.38184e-006
3.38185e-006
3.38206e-006
3.38236e-006
3.38261e-006
3.38272e-006
3.38272e-006
3.38277e-006
3.38287e-006
3.38297e-006
3.38307e-006
3.38316e-006
3.38324e-006
3.38333e-006
3.38344e-006
3.3836e-006
3.38378e-006
3.38396e-006
3.38412e-006
3.38427e-006
3.3844e-006
3.38452e-006
3.38464e-006
3.38477e-006
3.38489e-006
3.38501e-006
3.38514e-006
3.38527e-006
3.3854e-006
3.38554e-006
3.38568e-006
3.38583e-006
3.38597e-006
3.38611e-006
3.38625e-006
3.38639e-006
3.38652e-006
3.38666e-006
3.38679e-006
3.38693e-006
3.38707e-006
3.3872e-006
3.38734e-006
3.38747e-006
3.38761e-006
3.38775e-006
3.38788e-006
3.38802e-006
3.38815e-006
3.38828e-006
3.3884e-006
3.38852e-006
3.38864e-006
3.38876e-006
3.38887e-006
3.38899e-006
3.3891e-006
3.38921e-006
3.38932e-006
3.38943e-006
3.38954e-006
3.38964e-006
3.38975e-006
3.38985e-006
3.38994e-006
3.39005e-006
3.39014e-006
3.39023e-006
3.39032e-006
3.3904e-006
3.39049e-006
3.39056e-006
3.39065e-006
3.39072e-006
3.3908e-006
3.39087e-006
3.39094e-006
3.39101e-006
3.39108e-006
3.39115e-006
3.39121e-006
3.39127e-006
3.39132e-006
3.39135e-006
3.39138e-006
3.3914e-006
3.39142e-006
3.39143e-006
3.39144e-006
3.39144e-006
3.39143e-006
3.39142e-006
3.39139e-006
3.39137e-006
3.39133e-006
3.39129e-006
3.39125e-006
3.39119e-006
3.39112e-006
3.39105e-006
3.39097e-006
3.39088e-006
3.39079e-006
3.39069e-006
3.39057e-006
3.39044e-006
3.3903e-006
3.39016e-006
3.39003e-006
3.38995e-006
3.38988e-006
3.38982e-006
3.38975e-006
3.38965e-006
3.38958e-006
3.38945e-006
3.38938e-006
3.38931e-006
3.3891e-006
3.38914e-006
3.38919e-006
3.389e-006
3.38955e-006
3.38904e-006
3.38961e-006
3.39172e-006
3.39934e-006
2.99189e-006
3.12802e-006
4.1915e-005
5.32797e-007
5.32884e-007
5.32941e-007
5.33008e-007
5.33105e-007
5.33169e-007
5.33209e-007
5.33241e-007
5.33301e-007
5.33391e-007
5.33453e-007
5.33498e-007
5.33509e-007
5.33554e-007
5.3363e-007
5.33727e-007
5.33804e-007
5.33861e-007
5.33903e-007
5.33942e-007
5.33984e-007
5.34034e-007
5.34091e-007
5.34151e-007
5.34203e-007
5.34242e-007
5.34281e-007
5.34328e-007
5.34379e-007
5.34436e-007
5.34495e-007
5.34552e-007
5.34608e-007
5.34664e-007
5.34718e-007
5.34769e-007
5.3482e-007
5.34871e-007
5.34922e-007
5.34972e-007
5.35022e-007
5.35073e-007
5.35123e-007
5.35175e-007
5.35228e-007
5.35281e-007
5.35333e-007
5.35386e-007
5.35437e-007
5.35489e-007
5.3554e-007
5.3559e-007
5.3564e-007
5.35689e-007
5.35739e-007
5.35787e-007
5.35834e-007
5.35881e-007
5.35927e-007
5.35972e-007
5.36017e-007
5.36061e-007
5.36104e-007
5.36146e-007
5.36189e-007
5.3623e-007
5.36271e-007
5.36311e-007
5.36351e-007
5.36389e-007
5.36427e-007
5.36465e-007
5.365e-007
5.36539e-007
5.3657e-007
5.36606e-007
5.36638e-007
5.3667e-007
5.36701e-007
5.3673e-007
5.36761e-007
5.36789e-007
5.36819e-007
5.36845e-007
5.36871e-007
5.36895e-007
5.36918e-007
5.36939e-007
5.36962e-007
5.36988e-007
5.37011e-007
5.37033e-007
5.37053e-007
5.3707e-007
5.37085e-007
5.37099e-007
5.37109e-007
5.37118e-007
5.37124e-007
5.37128e-007
5.37129e-007
5.37127e-007
5.37123e-007
5.37115e-007
5.37106e-007
5.37093e-007
5.37077e-007
5.37058e-007
5.37037e-007
5.37012e-007
5.36981e-007
5.3695e-007
5.36917e-007
5.3688e-007
5.36837e-007
5.3679e-007
5.36744e-007
5.36701e-007
5.3666e-007
5.36618e-007
5.36572e-007
5.36525e-007
5.36457e-007
5.36408e-007
5.36326e-007
5.36267e-007
5.36206e-007
5.36141e-007
5.3601e-007
5.36019e-007
5.36459e-007
5.34684e-007
5.35922e-007
5.43206e-007
5.24755e-007
4.73126e-007
2.98728e-006
0.000349633
0.0223841
1.46191e-007
1.46222e-007
1.46256e-007
1.46285e-007
1.46305e-007
1.4632e-007
1.46348e-007
1.46384e-007
1.46415e-007
1.46434e-007
1.46442e-007
1.46465e-007
1.46499e-007
1.46533e-007
1.46569e-007
1.46592e-007
1.46613e-007
1.46635e-007
1.46656e-007
1.4668e-007
1.46708e-007
1.46737e-007
1.46764e-007
1.46788e-007
1.46812e-007
1.46838e-007
1.46867e-007
1.46896e-007
1.46924e-007
1.46951e-007
1.46978e-007
1.47005e-007
1.47032e-007
1.4706e-007
1.47088e-007
1.47115e-007
1.47142e-007
1.47169e-007
1.47196e-007
1.47223e-007
1.4725e-007
1.47277e-007
1.47304e-007
1.47331e-007
1.47357e-007
1.47383e-007
1.47409e-007
1.47434e-007
1.47459e-007
1.47484e-007
1.47509e-007
1.47534e-007
1.47558e-007
1.47582e-007
1.47605e-007
1.47629e-007
1.47652e-007
1.47674e-007
1.47697e-007
1.47719e-007
1.47741e-007
1.47763e-007
1.47784e-007
1.47805e-007
1.47826e-007
1.47847e-007
1.47868e-007
1.47888e-007
1.47907e-007
1.47927e-007
1.47946e-007
1.47965e-007
1.47984e-007
1.48e-007
1.48019e-007
1.48035e-007
1.48052e-007
1.48068e-007
1.48084e-007
1.48099e-007
1.48114e-007
1.48128e-007
1.48141e-007
1.48154e-007
1.48166e-007
1.48177e-007
1.48188e-007
1.48198e-007
1.48209e-007
1.4822e-007
1.48231e-007
1.48242e-007
1.48253e-007
1.48262e-007
1.48271e-007
1.48279e-007
1.48287e-007
1.48293e-007
1.48299e-007
1.48304e-007
1.48307e-007
1.4831e-007
1.48311e-007
1.48311e-007
1.4831e-007
1.48308e-007
1.48304e-007
1.48299e-007
1.48293e-007
1.48285e-007
1.48274e-007
1.48261e-007
1.48247e-007
1.48231e-007
1.48213e-007
1.48193e-007
1.48173e-007
1.48153e-007
1.48132e-007
1.4811e-007
1.48086e-007
1.48059e-007
1.48023e-007
1.47995e-007
1.47949e-007
1.47915e-007
1.47863e-007
1.47823e-007
1.47736e-007
1.48184e-007
1.46189e-007
1.51171e-007
1.48922e-007
1.2301e-007
1.73281e-007
3.31109e-006
0.000326748
0.0155215
0.171269
6.06632e-008
6.06814e-008
6.0694e-008
6.0704e-008
6.07181e-008
6.07357e-008
6.07529e-008
6.07619e-008
6.07693e-008
6.07813e-008
6.07993e-008
6.0818e-008
6.08322e-008
6.08395e-008
6.08527e-008
6.0868e-008
6.08837e-008
6.08981e-008
6.0914e-008
6.09301e-008
6.09455e-008
6.09604e-008
6.09762e-008
6.0993e-008
6.10111e-008
6.10298e-008
6.10471e-008
6.10641e-008
6.10814e-008
6.10997e-008
6.11177e-008
6.11358e-008
6.11542e-008
6.11726e-008
6.11908e-008
6.12088e-008
6.12267e-008
6.12446e-008
6.12625e-008
6.12801e-008
6.12975e-008
6.13147e-008
6.13319e-008
6.13492e-008
6.13666e-008
6.1384e-008
6.14013e-008
6.14185e-008
6.14353e-008
6.14521e-008
6.14686e-008
6.1485e-008
6.15011e-008
6.1517e-008
6.15328e-008
6.15483e-008
6.15636e-008
6.15788e-008
6.15937e-008
6.16086e-008
6.16234e-008
6.16383e-008
6.16529e-008
6.16673e-008
6.16816e-008
6.16956e-008
6.17093e-008
6.17228e-008
6.1736e-008
6.17489e-008
6.17617e-008
6.17741e-008
6.17859e-008
6.17988e-008
6.18096e-008
6.18213e-008
6.18324e-008
6.18431e-008
6.18539e-008
6.18638e-008
6.1874e-008
6.18834e-008
6.18933e-008
6.19021e-008
6.19108e-008
6.19191e-008
6.1927e-008
6.19346e-008
6.19417e-008
6.19491e-008
6.1956e-008
6.19628e-008
6.19695e-008
6.19758e-008
6.19819e-008
6.19877e-008
6.19929e-008
6.1998e-008
6.20025e-008
6.20066e-008
6.20102e-008
6.20133e-008
6.20157e-008
6.20175e-008
6.20188e-008
6.20192e-008
6.20189e-008
6.20179e-008
6.2016e-008
6.20132e-008
6.20092e-008
6.20034e-008
6.19962e-008
6.19878e-008
6.1978e-008
6.1967e-008
6.19555e-008
6.19434e-008
6.19312e-008
6.19181e-008
6.19037e-008
6.18872e-008
6.18674e-008
6.18483e-008
6.18232e-008
6.17994e-008
6.17722e-008
6.17504e-008
6.19879e-008
6.04372e-008
6.48386e-008
5.57608e-008
5.68711e-008
2.27846e-007
1.0215e-005
0.0006058
0.0167807
0.141665
0.55593
3.29002e-008
3.29084e-008
3.29163e-008
3.29262e-008
3.29354e-008
3.2941e-008
3.2947e-008
3.2954e-008
3.29663e-008
3.29779e-008
3.29854e-008
3.29908e-008
3.29981e-008
3.30084e-008
3.30196e-008
3.30313e-008
3.30431e-008
3.30556e-008
3.30672e-008
3.30772e-008
3.3087e-008
3.30992e-008
3.3112e-008
3.31247e-008
3.3137e-008
3.31478e-008
3.31595e-008
3.3171e-008
3.3182e-008
3.31934e-008
3.32069e-008
3.32202e-008
3.32333e-008
3.32462e-008
3.32591e-008
3.32721e-008
3.32852e-008
3.32984e-008
3.33116e-008
3.33248e-008
3.33381e-008
3.33515e-008
3.3365e-008
3.33781e-008
3.3391e-008
3.34038e-008
3.34165e-008
3.34291e-008
3.34417e-008
3.34541e-008
3.34665e-008
3.34788e-008
3.3491e-008
3.3503e-008
3.35149e-008
3.35267e-008
3.35384e-008
3.35499e-008
3.35613e-008
3.35726e-008
3.3584e-008
3.35952e-008
3.36062e-008
3.36173e-008
3.3628e-008
3.36386e-008
3.36491e-008
3.36593e-008
3.36693e-008
3.36793e-008
3.36889e-008
3.36985e-008
3.37083e-008