/*--------------------------------*- C++ -*----------------------------------*\
| =========                 |                                                 |
| \\      /  F ield         | OpenFOAM: The Open Source CFD Toolbox           |
|  \\    /   O peration     | Version:  5.x                                   |
|   \\  /    A nd           | Web:      www.OpenFOAM.org                      |
|    \\/     M anipulation  |                                                 |
\*---------------------------------------------------------------------------*/
/*   Windows 32 and 64 bit porting by blueCAPE: http://www.bluecape.com.pt   *\
|  Based on Windows porting (2.0.x v4) by Symscape: http://www.symscape.com   |
\*---------------------------------------------------------------------------*/
FoamFile
{
    version     2.0;
    format      ascii;
    class       volScalarField;
    location    "230";
    object      nut;
}
// * * * * * * * * * * * * * * * * * * * * * * * * * * * * * * * * * * * * * //

dimensions      [0 2 -1 0 0 0 0];

internalField   nonuniform List<scalar> 
43900
(
5.71597e-005
5.8001e-005
5.80695e-005
5.80642e-005
5.80594e-005
5.80585e-005
5.80588e-005
5.80588e-005
5.8059e-005
5.80595e-005
5.80597e-005
5.80597e-005
5.80597e-005
5.80598e-005
5.80598e-005
5.806e-005
5.806e-005
5.80601e-005
5.80602e-005
5.80602e-005
5.80603e-005
5.80603e-005
5.80603e-005
5.80604e-005
5.80604e-005
5.80604e-005
5.80604e-005
5.80604e-005
5.80604e-005
0.000590871
7.38087e-006
4.30776e-006
4.16074e-006
4.58007e-006
4.60605e-006
4.60885e-006
4.60343e-006
4.60365e-006
4.60477e-006
4.60525e-006
4.60547e-006
4.60557e-006
4.60572e-006
4.60595e-006
4.60628e-006
4.60641e-006
4.60665e-006
4.60686e-006
4.60692e-006
4.60714e-006
4.60723e-006
4.60726e-006
4.60744e-006
4.60746e-006
4.60748e-006
4.60762e-006
4.60759e-006
4.6076e-006
0.153354
0.0455601
0.0052071
0.000107833
1.30629e-006
6.44454e-007
6.01736e-007
7.14182e-007
7.25178e-007
7.23181e-007
7.21732e-007
7.21874e-007
7.22262e-007
7.2246e-007
7.226e-007
7.22773e-007
7.22939e-007
7.23093e-007
7.23211e-007
7.23327e-007
7.23425e-007
7.235e-007
7.23587e-007
7.23655e-007
7.23707e-007
7.23772e-007
7.23819e-007
7.23858e-007
7.23899e-007
0.475298
0.29115
0.133604
0.0384937
0.00461018
0.000177251
4.17318e-006
2.5485e-007
1.73266e-007
1.95653e-007
2.14169e-007
2.1441e-007
2.11852e-007
2.1183e-007
2.12435e-007
2.12446e-007
2.12399e-007
2.12465e-007
2.12536e-007
2.12585e-007
2.12627e-007
2.1267e-007
2.12707e-007
2.12742e-007
2.12777e-007
2.12805e-007
2.12835e-007
2.12863e-007
2.12882e-007
0.758204
0.582748
0.415075
0.249969
0.107319
0.0268421
0.00270024
0.000128027
2.97976e-006
2.02169e-007
8.96096e-008
8.90855e-008
1.0529e-007
1.05433e-007
1.02278e-007
1.02899e-007
1.03698e-007
1.03594e-007
1.03555e-007
1.0359e-007
1.03628e-007
1.03655e-007
1.03676e-007
1.03696e-007
1.03717e-007
1.03736e-007
1.03752e-007
1.0377e-007
1.03785e-007
0.965521
0.797343
0.640918
0.489054
0.337154
0.185333
0.0665622
0.0117969
0.00085229
4.0812e-005
1.1402e-006
1.27996e-007
6.21161e-008
6.36439e-008
7.51738e-008
7.17292e-008
6.95453e-008
7.05095e-008
7.0753e-008
7.06086e-008
7.05607e-008
7.05715e-008
7.05866e-008
7.05991e-008
7.06165e-008
7.06275e-008
7.06374e-008
7.0654e-008
7.06624e-008
1.1267
0.964161
0.815643
0.674877
0.536855
0.397728
0.253564
0.111644
0.0283687
0.00304229
0.000178829
8.88415e-006
3.24319e-007
7.39144e-008
4.71228e-008
5.65045e-008
5.96386e-008
5.59498e-008
5.60409e-008
5.68905e-008
5.71123e-008
5.71308e-008
5.71387e-008
5.71514e-008
5.7162e-008
5.71715e-008
5.71817e-008
5.71916e-008
5.71997e-008
1.24211
1.08413
0.941406
0.808361
0.680355
0.553588
0.425277
0.295233
0.159507
0.0512679
0.00761141
0.000532777
3.00473e-005
1.47057e-006
1.14819e-007
5.25618e-008
4.81988e-008
5.67095e-008
5.44987e-008
5.18693e-008
5.18795e-008
5.19822e-008
5.20154e-008
5.20222e-008
5.20307e-008
5.20482e-008
5.2057e-008
5.20629e-008
5.20661e-008
1.33869
1.18409
1.04533
0.917355
0.795956
0.677622
0.559525
0.439547
0.315778
0.188161
0.0685457
0.0121998
0.000985206
6.05993e-005
3.51864e-006
1.97643e-007
6.2317e-008
4.2633e-008
5.06753e-008
5.33436e-008
5.20249e-008
5.16054e-008
5.16124e-008
5.1621e-008
5.16312e-008
5.16354e-008
5.16425e-008
5.16504e-008
5.16543e-008
1.39916
1.25053
1.11735
0.995552
0.881181
0.770901
0.661931
0.552011
0.439361
0.32286
0.202791
0.0786769
0.0153079
0.00135631
8.95753e-005
5.66411e-006
3.53711e-007
6.95786e-008
4.41079e-008
4.52267e-008
4.98105e-008
4.98192e-008
4.95426e-008
4.94863e-008
4.94901e-008
4.94922e-008
4.9491e-008
4.95061e-008
4.9526e-008
1.44331
1.29731
1.16865
1.05171
0.943046
0.839444
0.738186
0.637
0.534062
0.428038
0.318232
0.205166
0.0813352
0.0162792
0.0015287
0.000108599
7.48077e-006
5.20975e-007
7.07507e-008
4.47895e-008
3.94611e-008
4.1644e-008
4.2786e-008
4.2893e-008
4.28958e-008
4.29021e-008
4.29173e-008
4.29445e-008
4.2964e-008
1.48046
1.33752
1.21157
1.09799
0.993234
0.894385
0.798843
0.704386
0.609169
0.511744
0.411106
0.306797
0.199312
0.0783753
0.0155731
0.0015324
0.000118417
8.93779e-006
6.76084e-007
8.09154e-008
4.59048e-008
3.66257e-008
3.66259e-008
3.7103e-008
3.72322e-008
3.7249e-008
3.72603e-008
3.72771e-008
3.72909e-008
1.50703
1.36715
1.24381
1.13409
1.03307
0.938415
0.84773
0.758887
0.670087
0.57986
0.487078
0.390985
0.291245
0.188212
0.0717966
0.0138383
0.00141439
0.000118608
9.71312e-006
7.96182e-007
9.4819e-008
4.70832e-008
4.02604e-008
3.82423e-008
3.80657e-008
3.80609e-008
3.80514e-008
3.8035e-008
3.80361e-008
1.52433
1.38863
1.26821
1.16053
1.06379
0.973058
0.886708
0.802763
0.719487
0.635427
0.549418
0.460588
0.368362
0.272482
0.173135
0.0627025
0.0114655
0.00120215
0.00010796
9.48798e-006
8.40098e-007
1.04443e-007
4.88738e-008
4.57497e-008
4.42779e-008
4.39662e-008
4.39364e-008
4.39196e-008
4.39045e-008
1.53361
1.40146
1.28544
1.1808
1.08579
0.999465
0.917117
0.837528
0.759099
0.680413
0.600304
0.517855
0.432394
0.343479
0.250873
0.154499
0.0518261
0.00881569
0.000942066
8.98248e-005
8.37731e-006
7.89988e-007
1.07509e-007
5.20776e-008
4.91107e-008
4.89028e-008
4.88506e-008
4.88292e-008
4.88244e-008
1.53595
1.40743
1.29476
1.19454
1.1027
1.01792
0.939959
0.86437
0.790246
0.716289
0.641355
0.564516
0.485055
0.402448
0.316329
0.226395
0.132058
0.0397748
0.00620363
0.000671471
6.68858e-005
6.54703e-006
6.59655e-007
1.03218e-007
5.55813e-008
5.17355e-008
5.14952e-008
5.14697e-008
5.14684e-008
1.53233
1.40753
1.29825
1.20123
1.11372
1.03229
0.955736
0.884433
0.814175
0.744406
0.674022
0.602105
0.527925
0.450925
0.370692
0.286895
0.199094
0.105443
0.0274631
0.00391672
0.000432627
4.52971e-005
4.6767e-006
5.08768e-007
9.70194e-008
5.93695e-008
5.58123e-008
5.54612e-008
5.54095e-008
1.5237
1.4027
1.29687
1.20306
1.11863
1.04132
0.968264
0.898336
0.83231
0.766175
0.69978
0.632204
0.562696
0.490674
0.415701
0.337442
0.255585
0.169557
0.0756145
0.0164837
0.00220594
0.000252236
2.77737e-005
3.03741e-006
3.70572e-007
9.51212e-008
6.79474e-008
6.50865e-008
6.47002e-008
1.51093
1.39383
1.2915
1.2009
1.1195
1.04514
0.975936
0.909465
0.844839
0.782801
0.719897
0.65605
0.590565
0.522875
0.452533
0.379188
0.302547
0.222218
0.137011
0.0469978
0.00875733
0.00115832
0.000139375
1.63079e-005
1.92747e-006
2.87493e-007
1.08544e-007
8.91136e-008
8.66439e-008
1.49483
1.38171
1.28293
1.19555
1.11715
1.04564
0.979227
0.916347
0.854897
0.794555
0.735259
0.674804
0.612919
0.549051
0.482763
0.413712
0.341618
0.266198
0.18697
0.101812
0.0278081
0.00455711
0.000606049
7.64373e-005
9.5238e-006
1.26878e-006
2.71622e-007
1.53994e-007
1.39429e-007
1.47612
1.36706
1.27188
1.18775
1.11232
1.0436
0.979847
0.91959
0.861528
0.80377
0.746946
0.689484
0.630781
0.570297
0.507605
0.44237
0.374324
0.303224
0.228729
0.149891
0.0654234
0.0146416
0.00226648
0.000311771
4.14348e-005
5.58576e-006
9.40916e-007
3.45774e-007
2.67793e-007
1.45539
1.35048
1.25896
1.17811
1.10565
1.03966
0.978499
0.920736
0.865155
0.810722
0.755721
0.701305
0.645383
0.587864
0.528337
0.466468
0.401991
0.33468
0.264278
0.190314
0.110166
0.0360556
0.00699802
0.00108626
0.000157642
2.25419e-005
3.55366e-006
9.42243e-007
5.82467e-007
1.43311
1.33242
1.24463
1.16709
1.09762
1.03438
0.975759
0.920417
0.867185
0.815053
0.763133
0.710666
0.657388
0.602614
0.545959
0.48711
0.425812
0.361854
0.295026
0.224988
0.150404
0.0714779
0.0183251
0.00330903
0.000526858
8.11717e-005
1.30624e-005
2.87515e-006
1.36277e-006
1.40963
1.31324
1.22923
1.15506
1.08861
1.0281
0.972016
0.919062
0.868138
0.818311
0.768796
0.718543
0.66765
0.615379
0.561345
0.505238
0.446813
0.385866
0.322205
0.255564
0.185349
0.109078
0.0401662
0.0088677
0.0015838
0.000264163
4.43607e-005
8.98654e-006
3.35527e-006
1.38523
1.2932
1.21303
1.14226
1.07885
1.0211
0.967539
0.916933
0.868227
0.820523
0.773041
0.725087
0.676626
0.626652
0.575033
0.521466
0.465704
0.407542
0.346795
0.283247
0.216503
0.144878
0.0699767
0.020108
0.00418071
0.000772581
0.00013901
2.76577e-005
8.59649e-006
1.36009
1.27247
1.19619
1.12886
1.06854
1.01356
0.962541
0.91429
0.867811
0.822268
0.776968
0.731358
0.68481
0.637052
0.587703
0.536493
0.483192
0.427602
0.369546
0.308839
0.245194
0.177724
0.104215
0.0398362
0.00988457
0.00204152
0.000398607
8.17504e-005
2.26913e-005
1.33436
1.25119
1.17884
1.11499
1.05777
1.00561
0.957145
0.911265
0.867021
0.823626
0.780427
0.736883
0.692403
0.646808
0.599679
0.550753
0.49981
0.446662
0.391141
0.333077
0.272233
0.208153
0.138749
0.0678689
0.0209881
0.0049465
0.00105423
0.000227658
6.02485e-005
1.3081
1.22942
1.16103
1.10069
1.04661
0.997272
0.951399
0.907914
0.865922
0.824677
0.783563
0.742061
0.69973
0.656233
0.611264
0.564567
0.515926
0.465156
0.412093
0.356572
0.298383
0.23719
0.171813
0.100954
0.0406342
0.0111802
0.00262745
0.000601264
0.000157759
1.28136
1.20719
1.14277
1.08596
1.03504
0.988558
0.945299
0.904236
0.864523
0.825455
0.786452
0.747032
0.706796
0.665408
0.62259
0.578101
0.531733
0.483307
0.432664
0.379649
0.324076
0.265653
0.203756
0.136225
0.0682747
0.0231736
0.00614113
0.00151171
0.000397978
1.25416
1.18448
1.12404
1.07077
1.02302
0.979423
0.938802
0.90019
0.862787
0.825929
0.789074
0.751764
0.713587
0.674368
0.633721
0.591436
0.547323
0.501213
0.452953
0.402399
0.349391
0.293705
0.234913
0.171724
0.102778
0.0435654
0.0133943
0.00360697
0.0009722
1.22647
1.16128
1.10481
1.05508
1.01051
0.969798
0.931834
0.8957
0.860636
0.826016
0.791319
0.756096
0.719953
0.68306
0.644577
0.604522
0.562693
0.518917
0.473038
0.424918
0.374414
0.321354
0.265458
0.206037
0.141038
0.0740617
0.0271313
0.00816334
0.00229296
1.19825
1.13752
1.08501
1.0388
0.997406
0.959589
0.924299
0.890667
0.857976
0.825641
0.793179
0.760204
0.726436
0.691581
0.655307
0.617473
0.577911
0.536458
0.492962
0.447276
0.399261
0.348761
0.295574
0.239325
0.178817
0.112543
0.0519285
0.0176632
0.0052567
1.16945
1.11314
1.06454
1.02183
0.983605
0.948684
0.916078
0.88497
0.854687
0.824682
0.794512
0.763824
0.732343
0.699566
0.66561
0.630099
0.592877
0.553796
0.512713
0.469486
0.423976
0.376036
0.32549
0.272087
0.215277
0.153295
0.0875276
0.0356807
0.0116441
1.13999
1.08803
1.04331
1.00407
0.968984
0.936948
0.90703
0.878462
0.850614
0.822974
0.795124
0.766717
0.737448
0.706988
0.67538
0.642261
0.60746
0.570827
0.532218
0.491499
0.448533
0.403179
0.355278
0.304632
0.250909
0.193279
0.12987
0.067017
0.0248174
1.10977
1.0621
1.0212
0.985375
0.953399
0.924229
0.896994
0.870974
0.845581
0.820333
0.794832
0.768736
0.741727
0.713475
0.684586
0.653856
0.621506
0.58737
0.551298
0.513148
0.472783
0.430064
0.384842
0.336946
0.286134
0.231976
0.173299
0.109234
0.0493721
1.0787
1.03523
0.998072
0.96561
0.936697
0.910362
0.885794
0.862321
0.839397
0.816571
0.793471
0.769789
0.745269
0.719744
0.692968
0.664748
0.634919
0.603337
0.569854
0.534326
0.496614
0.456575
0.414065
0.368924
0.320965
0.269894
0.215094
0.155755
0.0892037
1.04668
1.00731
0.973805
0.944628
0.918718
0.895173
0.873243
0.852305
0.831852
0.811467
0.790806
0.769584
0.747569
0.724581
0.699875
0.674387
0.647269
0.618393
0.587626
0.554829
0.51986
0.482577
0.442834
0.400478
0.355347
0.30722
0.25568
0.200712
0.138195
1.01362
0.978231
0.948271
0.922287
0.899301
0.878486
0.859149
0.840718
0.822724
0.804782
0.78657
0.767817
0.74828
0.727716
0.705786
0.683223
0.658647
0.632457
0.604458
0.574477
0.54235
0.507921
0.471033
0.431527
0.389245
0.343999
0.295533
0.243652
0.187663
0.979447
0.947901
0.921361
0.898458
0.878301
0.860134
0.843326
0.827353
0.811787
0.796273
0.780513
0.764254
0.747272
0.729375
0.710445
0.689874
0.668292
0.645045
0.619996
0.592987
0.56385
0.532417
0.498515
0.461975
0.422626
0.380284
0.33478
0.285761
0.234017
0.944121
0.916257
0.892991
0.873035
0.855588
0.839968
0.825602
0.812017
0.798825
0.785701
0.772374
0.758606
0.744189
0.72893
0.712632
0.694534
0.67628
0.655974
0.633969
0.610071
0.584086
0.555823
0.525087
0.491683
0.455417
0.416092
0.37354
0.327471
0.27836
0.907635
0.883273
0.86311
0.845948
0.831071
0.817871
0.805836
0.794544
0.783644
0.772846
0.761902
0.750595
0.738732
0.72613
0.712615
0.698026
0.681811
0.664719
0.645946
0.625336
0.602697
0.577816
0.550472
0.520437
0.487481
0.451374
0.411903
0.36886
0.322211
0.870026
0.848963
0.831714
0.817169
0.804701
0.793773
0.783935
0.774812
0.766097
0.757529
0.748886
0.739976
0.730619
0.72065
0.709911
0.698256
0.684823
0.671224
0.655614
0.638382
0.619258
0.597984
0.574297
0.547923
0.518582
0.48599
0.449871
0.410002
0.366135
0.831377
0.81339
0.798847
0.786724
0.776484
0.767662
0.759864
0.752766
0.746099
0.739636
0.733182
0.726564
0.719624
0.712213
0.704186
0.695398
0.685703
0.673991
0.6621
0.648547
0.633183
0.615778
0.596049
0.573683
0.548342
0.519671
0.487306
0.450932
0.410227
0.791821
0.776671
0.764607
0.754701
0.746496
0.739598
0.73367
0.728434
0.723659
0.719149
0.714737
0.710273
0.705619
0.700646
0.695223
0.689212
0.682448
0.674463
0.665632
0.655569
0.644007
0.630638
0.615135
0.597133
0.576224
0.551966
0.523888
0.49153
0.454462
0.751543
0.738977
0.729161
0.721258
0.714892
0.709734
0.705499
0.701953
0.698899
0.696173
0.69363
0.691147
0.688608
0.685903
0.682925
0.679558
0.675681
0.671227
0.665236
0.658731
0.651071
0.641886
0.630835
0.617521
0.601479
0.582176
0.559022
0.531377
0.498614
0.710786
0.700545
0.692748
0.686642
0.681929
0.678336
0.675625
0.6736
0.672092
0.670963
0.670094
0.669384
0.668742
0.668083
0.667323
0.666377
0.665137
0.663527
0.661274
0.657858
0.653761
0.648812
0.642326
0.633923
0.623102
0.609256
0.591709
0.569596
0.541997
0.669864
0.661695
0.6557
0.65121
0.64799
0.645814
0.64448
0.643815
0.643674
0.643937
0.644509
0.645314
0.64629
0.647382
0.648524
0.649697
0.650734
0.651736
0.652434
0.652644
0.651824
0.650685
0.648651
0.645163
0.639739
0.631659
0.62044
0.604731
0.583181
0.629181
0.622846
0.618473
0.615459
0.613619
0.612754
0.612674
0.613213
0.614232
0.615628
0.61733
0.619294
0.621502
0.623937
0.6265
0.629457
0.632109
0.635491
0.63871
0.641749
0.644561
0.646005
0.648301
0.649659
0.649554
0.647038
0.643356
0.63472
0.619404
0.589259
0.584555
0.581676
0.580064
0.579553
0.579933
0.580989
0.58253
0.584405
0.586533
0.588877
0.59145
0.594303
0.597524
0.600727
0.604885
0.609135
0.613786
0.618776
0.624
0.629484
0.634994
0.639445
0.64514
0.650143
0.653903
0.656215
0.654195
0.648468
0.550775
0.547545
0.546104
0.545896
0.546719
0.548283
0.550283
0.552463
0.554641
0.556794
0.558956
0.561242
0.563819
0.566768
0.570407
0.574568
0.579297
0.584628
0.590558
0.597052
0.604086
0.611906
0.620424
0.628242
0.637678
0.646981
0.655556
0.661499
0.66319
0.514585
0.512729
0.512745
0.514003
0.516165
0.518757
0.521274
0.52337
0.524814
0.525773
0.526396
0.526997
0.528078
0.529703
0.532192
0.535526
0.539654
0.544624
0.550432
0.557065
0.564939
0.574215
0.584544
0.595852
0.607061
0.620841
0.635076
0.648878
0.659806
0.481708
0.481175
0.482715
0.485496
0.488883
0.492068
0.494205
0.494915
0.493892
0.491805
0.488923
0.486028
0.483824
0.482607
0.482621
0.483963
0.486735
0.490723
0.495861
0.502113
0.509499
0.518047
0.527979
0.539541
0.553492
0.568562
0.58691
0.607892
0.627255
0.453236
0.453995
0.457096
0.461321
0.465503
0.468397
0.468613
0.466053
0.46031
0.452727
0.444466
0.436764
0.430195
0.425174
0.421903
0.420324
0.420263
0.421613
0.424264
0.428086
0.433182
0.439316
0.447238
0.456406
0.468939
0.483991
0.502443
0.527598
0.552541
0.430125
0.432097
0.436649
0.441962
0.446035
0.447397
0.443837
0.435667
0.423915
0.409883
0.394968
0.380624
0.367985
0.357581
0.349538
0.343706
0.339769
0.337424
0.336459
0.336603
0.338049
0.340242
0.344536
0.349245
0.35819
0.36846
0.384089
0.405806
0.431998
0.412882
0.415874
0.42152
0.427169
0.430372
0.428307
0.419968
0.405834
0.386695
0.364929
0.342741
0.321804
0.30322
0.287492
0.274636
0.264398
0.256359
0.250079
0.245232
0.241429
0.238819
0.236646
0.236419
0.235771
0.23924
0.24172
0.251797
0.262263
0.288383
0.401288
0.404984
0.41117
0.416581
0.417646
0.412048
0.398514
0.378021
0.352837
0.32555
0.298426
0.273123
0.250581
0.231209
0.214963
0.201603
0.190702
0.181854
0.174669
0.168887
0.164293
0.16076
0.15825
0.156869
0.156294
0.157324
0.160509
0.163705
0.177562
0.39442
0.398443
0.404838
0.409357
0.408466
0.39948
0.382239
0.358347
0.330309
0.300779
0.27194
0.245308
0.221785
0.201703
0.184942
0.171346
0.160545
0.152244
0.146025
0.141897
0.13916
0.138712
0.138401
0.142083
0.142497
0.151406
0.152286
0.167552
0.161203
0.391039
0.395193
0.40161
0.40555
0.40337
0.392993
0.374547
0.349878
0.321641
0.292434
0.264322
0.238705
0.216382
0.197664
0.182573
0.170881
0.162299
0.156602
0.153364
0.152735
0.153809
0.157938
0.162226
0.172055
0.177624
0.196426
0.200486
0.237516
0.222602
0.39011
0.394411
0.401173
0.405329
0.40347
0.393565
0.375856
0.352211
0.325243
0.297481
0.270936
0.246978
0.226399
0.209535
0.196413
0.186863
0.180651
0.177614
0.177286
0.179847
0.184417
0.19242
0.20106
0.215878
0.227286
0.253738
0.265809
0.315514
0.309827
5.80604e-005
5.80604e-005
5.80604e-005
5.80605e-005
5.80605e-005
5.80605e-005
5.80603e-005
5.80604e-005
5.80605e-005
5.80606e-005
5.80605e-005
5.80604e-005
5.80603e-005
5.80604e-005
5.80606e-005
5.80608e-005
5.80609e-005
5.80609e-005
5.8061e-005
5.8061e-005
5.8061e-005
5.8061e-005
5.8061e-005
5.80609e-005
5.80608e-005
5.80608e-005
5.80607e-005
5.80607e-005
5.80607e-005
5.80608e-005
5.80608e-005
5.80608e-005
5.80609e-005
5.80609e-005
5.80609e-005
5.80609e-005
5.80609e-005
5.8061e-005
5.8061e-005
5.8061e-005
5.8061e-005
5.8061e-005
5.8061e-005
5.80611e-005
5.80611e-005
5.80611e-005
5.80611e-005
5.80611e-005
5.80611e-005
5.80611e-005
5.80612e-005
5.80612e-005
5.80612e-005
5.80612e-005
5.80612e-005
5.80612e-005
5.80612e-005
5.80613e-005
5.80613e-005
5.80613e-005
5.80613e-005
5.80613e-005
5.80614e-005
5.80614e-005
5.80614e-005
5.80614e-005
5.80614e-005
5.80614e-005
5.80615e-005
5.80615e-005
5.80615e-005
5.80615e-005
5.80615e-005
5.80615e-005
5.80616e-005
5.80616e-005
5.80616e-005
5.80616e-005
5.80616e-005
5.80616e-005
5.80617e-005
5.80617e-005
5.80617e-005
5.80617e-005
5.80617e-005
5.80617e-005
5.80617e-005
5.80618e-005
5.80618e-005
5.80618e-005
5.80618e-005
5.80618e-005
5.80618e-005
5.80618e-005
5.80618e-005
5.80618e-005
5.80618e-005
5.80618e-005
5.80618e-005
5.80618e-005
5.80618e-005
5.80618e-005
5.80617e-005
5.80617e-005
5.80617e-005
5.80617e-005
5.80617e-005
5.80617e-005
5.80617e-005
5.80617e-005
5.80617e-005
5.80617e-005
5.80617e-005
5.80616e-005
5.80616e-005
5.80616e-005
5.80615e-005
5.80615e-005
5.80615e-005
5.80615e-005
5.80615e-005
5.80615e-005
5.80616e-005
5.80616e-005
5.80616e-005
5.80616e-005
5.80617e-005
5.80617e-005
5.80617e-005
5.80618e-005
5.80619e-005
5.80619e-005
5.8062e-005
5.80623e-005
5.80622e-005
5.80625e-005
5.80624e-005
5.80631e-005
5.93321e-005
4.6077e-006
4.60763e-006
4.60762e-006
4.6078e-006
4.60792e-006
4.60779e-006
4.60762e-006
4.60768e-006
4.60794e-006
4.60808e-006
4.60799e-006
4.60772e-006
4.60767e-006
4.60789e-006
4.60826e-006
4.60853e-006
4.6087e-006
4.60882e-006
4.6089e-006
4.60896e-006
4.60898e-006
4.60896e-006
4.6089e-006
4.60881e-006
4.60871e-006
4.60863e-006
4.60858e-006
4.60859e-006
4.60862e-006
4.60868e-006
4.60875e-006
4.6088e-006
4.60886e-006
4.60891e-006
4.60896e-006
4.60901e-006
4.60907e-006
4.60912e-006
4.60917e-006
4.60921e-006
4.60925e-006
4.60929e-006
4.60934e-006
4.60938e-006
4.60943e-006
4.60947e-006
4.60952e-006
4.60956e-006
4.6096e-006
4.60964e-006
4.60968e-006
4.60972e-006
4.60976e-006
4.6098e-006
4.60985e-006
4.60989e-006
4.60993e-006
4.60997e-006
4.61001e-006
4.61006e-006
4.61011e-006
4.61015e-006
4.6102e-006
4.61024e-006
4.61029e-006
4.61033e-006
4.61037e-006
4.61042e-006
4.61046e-006
4.6105e-006
4.61054e-006
4.61058e-006
4.61062e-006
4.61067e-006
4.6107e-006
4.61075e-006
4.61079e-006
4.61083e-006
4.61087e-006
4.61091e-006
4.61095e-006
4.61099e-006
4.61103e-006
4.61106e-006
4.61109e-006
4.61113e-006
4.61115e-006
4.61118e-006
4.6112e-006
4.61122e-006
4.61122e-006
4.61123e-006
4.61124e-006
4.61124e-006
4.61124e-006
4.61124e-006
4.61124e-006
4.61123e-006
4.61123e-006
4.61122e-006
4.61121e-006
4.61119e-006
4.61118e-006
4.61116e-006
4.61115e-006
4.61113e-006
4.61111e-006
4.61109e-006
4.61106e-006
4.61103e-006
4.61101e-006
4.61097e-006
4.61093e-006
4.61087e-006
4.61082e-006
4.61075e-006
4.61067e-006
4.61059e-006
4.61056e-006
4.61056e-006
4.61058e-006
4.61061e-006
4.61065e-006
4.6107e-006
4.61074e-006
4.6108e-006
4.61083e-006
4.61091e-006
4.61096e-006
4.61107e-006
4.61122e-006
4.61135e-006
4.61149e-006
4.61217e-006
4.61179e-006
4.61245e-006
4.61783e-006
4.61628e-006
4.56054e-006
7.23936e-007
7.2399e-007
7.2405e-007
7.24088e-007
7.24101e-007
7.24126e-007
7.24188e-007
7.24238e-007
7.24265e-007
7.24261e-007
7.2427e-007
7.24319e-007
7.24377e-007
7.24427e-007
7.24446e-007
7.2445e-007
7.24465e-007
7.24487e-007
7.24508e-007
7.24528e-007
7.24547e-007
7.24566e-007
7.24588e-007
7.24616e-007
7.24652e-007
7.24691e-007
7.24728e-007
7.24763e-007
7.24795e-007
7.24824e-007
7.24851e-007
7.24877e-007
7.24904e-007
7.24931e-007
7.24957e-007
7.24985e-007
7.25013e-007
7.25042e-007
7.25071e-007
7.25101e-007
7.25132e-007
7.25163e-007
7.25193e-007
7.25223e-007
7.25252e-007
7.25282e-007
7.25311e-007
7.25341e-007
7.2537e-007
7.254e-007
7.25429e-007
7.25458e-007
7.25488e-007
7.25517e-007
7.25547e-007
7.25576e-007
7.25605e-007
7.25633e-007
7.25661e-007
7.25688e-007
7.25714e-007
7.25739e-007
7.25764e-007
7.25789e-007
7.25814e-007
7.25838e-007
7.25862e-007
7.25886e-007
7.25909e-007
7.25933e-007
7.25955e-007
7.25977e-007
7.25999e-007
7.26019e-007
7.26042e-007
7.26061e-007
7.2608e-007
7.26099e-007
7.26116e-007
7.26135e-007
7.26152e-007
7.26169e-007
7.26185e-007
7.26201e-007
7.26217e-007
7.26233e-007
7.26248e-007
7.26262e-007
7.26278e-007
7.26291e-007
7.26304e-007
7.26314e-007
7.26322e-007
7.26329e-007
7.26334e-007
7.26338e-007
7.26341e-007
7.26342e-007
7.26342e-007
7.2634e-007
7.26337e-007
7.26332e-007
7.26326e-007
7.26319e-007
7.2631e-007
7.263e-007
7.26288e-007
7.26274e-007
7.26258e-007
7.2624e-007
7.2622e-007
7.26201e-007
7.26179e-007
7.26154e-007
7.26125e-007
7.26095e-007
7.26065e-007
7.26038e-007
7.2602e-007
7.26005e-007
7.25991e-007
7.25975e-007
7.25955e-007
7.25938e-007
7.25908e-007
7.25893e-007
7.25877e-007
7.25833e-007
7.25836e-007
7.25853e-007
7.25799e-007
7.25944e-007
7.25821e-007
7.25814e-007
7.26614e-007
7.28854e-007
6.0373e-007
6.55776e-007
1.92605e-005
2.12913e-007
2.12946e-007
2.12969e-007
2.12997e-007
2.13034e-007
2.13057e-007
2.13072e-007
2.13087e-007
2.13113e-007
2.13148e-007
2.1317e-007
2.13185e-007
2.13192e-007
2.13212e-007
2.13243e-007
2.13279e-007
2.13308e-007
2.1333e-007
2.13348e-007
2.13364e-007
2.13383e-007
2.13404e-007
2.13427e-007
2.1345e-007
2.13469e-007
2.13485e-007
2.13501e-007
2.1352e-007
2.13541e-007
2.13563e-007
2.13585e-007
2.13607e-007
2.13629e-007
2.13651e-007
2.13672e-007
2.13693e-007
2.13712e-007
2.13732e-007
2.13752e-007
2.13772e-007
2.13792e-007
2.13812e-007
2.13832e-007
2.13853e-007
2.13873e-007
2.13894e-007
2.13914e-007
2.13935e-007
2.13955e-007
2.13975e-007
2.13994e-007
2.14014e-007
2.14033e-007
2.14053e-007
2.14072e-007
2.1409e-007
2.14109e-007
2.14127e-007
2.14145e-007
2.14162e-007
2.14179e-007
2.14196e-007
2.14213e-007
2.1423e-007
2.14246e-007
2.14262e-007
2.14278e-007
2.14294e-007
2.14309e-007
2.14324e-007
2.14339e-007
2.14353e-007
2.14367e-007
2.14382e-007
2.14395e-007
2.14408e-007
2.14421e-007
2.14433e-007
2.14445e-007
2.14456e-007
2.14468e-007
2.14479e-007
2.1449e-007
2.145e-007
2.1451e-007
2.14519e-007
2.14528e-007
2.14536e-007
2.14545e-007
2.14555e-007
2.14564e-007
2.14573e-007
2.14581e-007
2.14588e-007
2.14594e-007
2.14599e-007
2.14604e-007
2.14607e-007
2.1461e-007
2.14612e-007
2.14612e-007
2.14612e-007
2.1461e-007
2.14608e-007
2.14604e-007
2.14599e-007
2.14593e-007
2.14586e-007
2.14578e-007
2.14568e-007
2.14556e-007
2.14544e-007
2.14531e-007
2.14517e-007
2.145e-007
2.14481e-007
2.14464e-007
2.14447e-007
2.14431e-007
2.14416e-007
2.14398e-007
2.14379e-007
2.14353e-007
2.14334e-007
2.14301e-007
2.14279e-007
2.14253e-007
2.14229e-007
2.14177e-007
2.14158e-007
2.14444e-007
2.13418e-007
2.14108e-007
2.18331e-007
2.07539e-007
1.83699e-007
2.55848e-006
0.000381473
0.015623
1.038e-007
1.03822e-007
1.03845e-007
1.03862e-007
1.03873e-007
1.03886e-007
1.03908e-007
1.03931e-007
1.03949e-007
1.03958e-007
1.03966e-007
1.03984e-007
1.0401e-007
1.04029e-007
1.0405e-007
1.04063e-007
1.04077e-007
1.04091e-007
1.04105e-007
1.04121e-007
1.04139e-007
1.04158e-007
1.04175e-007
1.04191e-007
1.04207e-007
1.04225e-007
1.04244e-007
1.04263e-007
1.04282e-007
1.04301e-007
1.04319e-007
1.04337e-007
1.04355e-007
1.04374e-007
1.04392e-007
1.0441e-007
1.04428e-007
1.04446e-007
1.04463e-007
1.04481e-007
1.04499e-007
1.04517e-007
1.04534e-007
1.04552e-007
1.04569e-007
1.04586e-007
1.04603e-007
1.04619e-007
1.04636e-007
1.04652e-007
1.04669e-007
1.04685e-007
1.04701e-007
1.04716e-007
1.04732e-007
1.04747e-007
1.04762e-007
1.04777e-007
1.04791e-007
1.04806e-007
1.0482e-007
1.04834e-007
1.04849e-007
1.04862e-007
1.04876e-007
1.0489e-007
1.04903e-007
1.04916e-007
1.0493e-007
1.04942e-007
1.04955e-007
1.04967e-007
1.04979e-007
1.0499e-007
1.05002e-007
1.05013e-007
1.05024e-007
1.05034e-007
1.05045e-007
1.05054e-007
1.05064e-007
1.05073e-007
1.05082e-007
1.0509e-007
1.05098e-007
1.05105e-007
1.05112e-007
1.05119e-007
1.05125e-007
1.05133e-007
1.0514e-007
1.05148e-007
1.05155e-007
1.05161e-007
1.05167e-007
1.05173e-007
1.05178e-007
1.05182e-007
1.05186e-007
1.05189e-007
1.05192e-007
1.05194e-007
1.05195e-007
1.05196e-007
1.05195e-007
1.05194e-007
1.05192e-007
1.05189e-007
1.05184e-007
1.05179e-007
1.05172e-007
1.05164e-007
1.05154e-007
1.05144e-007
1.05132e-007
1.05118e-007
1.05105e-007
1.05092e-007
1.05078e-007
1.05064e-007
1.05048e-007
1.0503e-007
1.05006e-007
1.04988e-007
1.04957e-007
1.04934e-007
1.04899e-007
1.04871e-007
1.048e-007
1.05287e-007
1.03194e-007
1.08489e-007
1.05907e-007
8.22263e-008
1.38278e-007
5.16339e-006
0.000538254
0.0175403
0.119805
7.06748e-008
7.06932e-008
7.0705e-008
7.07167e-008
7.07334e-008
7.07513e-008
7.07669e-008
7.07724e-008
7.07813e-008
7.07964e-008
7.08165e-008
7.08339e-008
7.08438e-008
7.08511e-008
7.08649e-008
7.08815e-008
7.08974e-008
7.09132e-008
7.09315e-008
7.09487e-008
7.09635e-008
7.09775e-008
7.09933e-008
7.10109e-008
7.10299e-008
7.10495e-008
7.10675e-008
7.1085e-008
7.11026e-008
7.11207e-008
7.11385e-008
7.1157e-008
7.11761e-008
7.11951e-008
7.12138e-008
7.12322e-008
7.12507e-008
7.12692e-008
7.12876e-008
7.13057e-008
7.13236e-008
7.13414e-008
7.13594e-008
7.13775e-008
7.13955e-008
7.14133e-008
7.1431e-008
7.14487e-008
7.1466e-008
7.14832e-008
7.15002e-008
7.15169e-008
7.15334e-008
7.15498e-008
7.15659e-008
7.15818e-008
7.15974e-008
7.1613e-008
7.16283e-008
7.16435e-008
7.16588e-008
7.16741e-008
7.16892e-008
7.17041e-008
7.17188e-008
7.17333e-008
7.17473e-008
7.17613e-008
7.17747e-008
7.17881e-008
7.18012e-008
7.18137e-008
7.18264e-008
7.18391e-008
7.18505e-008
7.18624e-008
7.1874e-008
7.18851e-008
7.1896e-008
7.19068e-008
7.19167e-008
7.1927e-008
7.19367e-008
7.19456e-008
7.19546e-008
7.19633e-008
7.19717e-008
7.19794e-008
7.19867e-008
7.19939e-008
7.20009e-008
7.20079e-008
7.20146e-008
7.20212e-008
7.20276e-008
7.20336e-008
7.20392e-008
7.20445e-008
7.20494e-008
7.20538e-008
7.20578e-008
7.20611e-008
7.20638e-008
7.20658e-008
7.20674e-008
7.2068e-008
7.20679e-008
7.2067e-008
7.20652e-008
7.20625e-008
7.20585e-008
7.20525e-008
7.20448e-008
7.20357e-008
7.20252e-008
7.20134e-008
7.20011e-008
7.19883e-008
7.19756e-008
7.1962e-008
7.19472e-008
7.19301e-008
7.19099e-008
7.189e-008
7.18641e-008
7.18387e-008
7.18106e-008
7.17933e-008
7.22316e-008
6.95736e-008
7.7177e-008
6.15523e-008
6.76911e-008
3.82588e-007
2.61264e-005
0.00133467
0.0269751
0.15075
0.388345
5.721e-008
5.72215e-008
5.72349e-008
5.72499e-008
5.72616e-008
5.72677e-008
5.72769e-008
5.72898e-008
5.73092e-008
5.73245e-008
5.73315e-008
5.73392e-008
5.73507e-008
5.73677e-008
5.73826e-008
5.73985e-008
5.7415e-008
5.74328e-008
5.7447e-008
5.74594e-008
5.74735e-008
5.74926e-008
5.75119e-008
5.75301e-008
5.75473e-008
5.75613e-008
5.75769e-008
5.75928e-008
5.76087e-008
5.76252e-008
5.76453e-008
5.76649e-008
5.76835e-008
5.7702e-008
5.77205e-008
5.77392e-008
5.77582e-008
5.77774e-008
5.77966e-008
5.78158e-008
5.78352e-008
5.78549e-008
5.78743e-008
5.78931e-008
5.79117e-008
5.79302e-008
5.79485e-008
5.79667e-008
5.79849e-008
5.80029e-008
5.8021e-008
5.80388e-008
5.80565e-008
5.8074e-008
5.80913e-008
5.81086e-008
5.81257e-008
5.81424e-008
5.81592e-008
5.81757e-008
5.81925e-008
5.82089e-008
5.82252e-008
5.82415e-008
5.82571e-008
5.82727e-008
5.82882e-008
5.83031e-008
5.83181e-008
5.83327e-008
5.83466e-008
5.83611e-008
5.8375e-008
5.83878e-008
5.84017e-008
5.84144e-008
5.84265e-008
5.84392e-008
5.8451e-008
5.8463e-008
5.84747e-008
5.84858e-008
5.84957e-008
5.85066e-008
5.85166e-008
5.8526e-008
5.85349e-008
5.8544e-008
5.85527e-008
5.85605e-008
5.85683e-008
5.85757e-008
5.85827e-008
5.85895e-008
5.85961e-008
5.86024e-008
5.86084e-008
5.86139e-008
5.86192e-008
5.8624e-008
5.86284e-008
5.86323e-008
5.86357e-008
5.86386e-008
5.86406e-008
5.86424e-008
5.86433e-008
5.86435e-008
5.86427e-008
5.86411e-008
5.86387e-008
5.86346e-008
5.86282e-008
5.86204e-008
5.86113e-008
5.8601e-008
5.85896e-008
5.85776e-008
5.8566e-008
5.85539e-008
5.85409e-008
5.85264e-008