/*--------------------------------*- C++ -*----------------------------------*\
| =========                 |                                                 |
| \\      /  F ield         | OpenFOAM: The Open Source CFD Toolbox           |
|  \\    /   O peration     | Version:  5.x                                   |
|   \\  /    A nd           | Web:      www.OpenFOAM.org                      |
|    \\/     M anipulation  |                                                 |
\*---------------------------------------------------------------------------*/
/*   Windows 32 and 64 bit porting by blueCAPE: http://www.bluecape.com.pt   *\
|  Based on Windows porting (2.0.x v4) by Symscape: http://www.symscape.com   |
\*---------------------------------------------------------------------------*/
FoamFile
{
    version     2.0;
    format      ascii;
    class       volScalarField;
    location    "230";
    object      p;
}
// * * * * * * * * * * * * * * * * * * * * * * * * * * * * * * * * * * * * * //

dimensions      [0 2 -2 0 0 0 0];

internalField   nonuniform List<scalar> 
43900
(
0.358717
0.35837
0.358327
0.3582
0.357995
0.357769
0.357569
0.35724
0.357004
0.356677
0.356355
0.356027
0.355682
0.355324
0.354956
0.354578
0.354191
0.353796
0.353392
0.35298
0.352561
0.352136
0.351704
0.351267
0.350824
0.350376
0.349923
0.349465
0.349002
0.356713
0.364793
0.358655
0.361947
0.359437
0.360195
0.359277
0.359101
0.358646
0.358218
0.357816
0.357383
0.356952
0.356523
0.356092
0.355658
0.355222
0.354783
0.35434
0.353894
0.353445
0.352992
0.352535
0.352075
0.351611
0.351144
0.350673
0.350199
0.349721
0.349849
0.371615
0.360533
0.366778
0.361695
0.364269
0.361886
0.362222
0.361134
0.360724
0.360137
0.359575
0.359037
0.358506
0.357982
0.357465
0.356953
0.356444
0.355939
0.355436
0.354934
0.354434
0.353933
0.353432
0.352931
0.352428
0.351924
0.351419
0.35091
0.344867
0.372588
0.365842
0.365659
0.365304
0.364876
0.363788
0.363753
0.362959
0.362592
0.36203
0.361519
0.361002
0.360485
0.359967
0.359448
0.358926
0.358405
0.357884
0.35736
0.356835
0.356309
0.355781
0.355251
0.354718
0.354185
0.353649
0.353108
0.352568
0.347456
0.371267
0.366268
0.365658
0.365639
0.365214
0.365019
0.364788
0.364271
0.363966
0.363541
0.363125
0.362708
0.362274
0.361826
0.361366
0.360896
0.360418
0.35993
0.359435
0.358933
0.358423
0.357907
0.357382
0.356855
0.356319
0.355776
0.355232
0.354679
0.352335
0.370406
0.367353
0.367061
0.366997
0.366601
0.366347
0.366107
0.365892
0.365629
0.365265
0.364925
0.364558
0.364176
0.363777
0.363363
0.362936
0.362494
0.362039
0.36157
0.361089
0.360596
0.360089
0.359577
0.359049
0.358509
0.357966
0.357406
0.356838
0.358291
0.372237
0.37041
0.369891
0.369855
0.369722
0.369401
0.368954
0.368637
0.368408
0.368081
0.367722
0.367352
0.366963
0.366561
0.366146
0.365715
0.365272
0.364809
0.364335
0.363848
0.363341
0.362825
0.362289
0.361741
0.361187
0.36061
0.360025
0.359435
0.365037
0.376227
0.375071
0.374466
0.374293
0.374155
0.373943
0.373595
0.373137
0.372693
0.372345
0.371977
0.371567
0.371143
0.3707
0.370247
0.369782
0.369296
0.368802
0.36829
0.367756
0.367214
0.366652
0.366077
0.365497
0.364888
0.364271
0.363643
0.36299
0.37291
0.381807
0.381109
0.380487
0.380215
0.380011
0.379766
0.379465
0.37908
0.378573
0.378068
0.377654
0.377224
0.376761
0.376286
0.37579
0.375273
0.374741
0.374182
0.373606
0.373023
0.372409
0.371783
0.37115
0.370483
0.36981
0.369122
0.368407
0.367693
0.382115
0.388798
0.388402
0.387782
0.387433
0.387163
0.386866
0.386527
0.386146
0.385699
0.385152
0.384576
0.384072
0.38356
0.383029
0.382485
0.381911
0.38131
0.380697
0.380066
0.379395
0.378717
0.378021
0.377285
0.37655
0.375789
0.374999
0.374211
0.373391
0.391408
0.397204
0.396911
0.396265
0.395853
0.395519
0.395158
0.394754
0.394307
0.393814
0.393258
0.392615
0.391921
0.391289
0.390654
0.390001
0.38933
0.388633
0.38791
0.387154
0.386401
0.385604
0.384771
0.383949
0.383081
0.382183
0.381292
0.380352
0.379396
0.401528
0.406745
0.406502
0.405821
0.405347
0.404949
0.404522
0.404047
0.403521
0.402944
0.402309
0.401604
0.400817
0.399971
0.399184
0.398393
0.397577
0.396734
0.395866
0.394992
0.394066
0.393112
0.392165
0.391148
0.390106
0.389079
0.387999
0.386907
0.385813
0.412852
0.417382
0.417165
0.416457
0.415924
0.415464
0.414975
0.414433
0.413837
0.413183
0.412466
0.411682
0.410819
0.409868
0.408866
0.4079
0.406935
0.405967
0.404965
0.403909
0.402864
0.401798
0.400636
0.399478
0.398333
0.397107
0.395869
0.394621
0.393308
0.425137
0.429079
0.428861
0.428126
0.427539
0.427017
0.426465
0.425859
0.425194
0.424466
0.42367
0.422802
0.421857
0.420827
0.41971
0.418552
0.417413
0.416272
0.415126
0.413969
0.412747
0.411486
0.410225
0.408929
0.407553
0.406154
0.404767
0.403321
0.401858
0.43825
0.441699
0.441458
0.440688
0.440042
0.439453
0.43883
0.438146
0.437399
0.436581
0.435689
0.434716
0.43366
0.432516
0.431277
0.42995
0.428584
0.427246
0.425897
0.424526
0.423144
0.421712
0.420217
0.418724
0.417204
0.415617
0.413977
0.412304
0.410603
0.452125
0.455169
0.454888
0.454076
0.453366
0.452703
0.451998
0.451227
0.450383
0.44946
0.448453
0.447354
0.446161
0.444871
0.443477
0.441976
0.440384
0.43877
0.437176
0.435564
0.433932
0.432265
0.430557
0.428793
0.426986
0.425145
0.423303
0.421437
0.419521
0.466725
0.469448
0.469117
0.46826
0.467486
0.466747
0.46596
0.465099
0.464155
0.463123
0.461995
0.460764
0.459427
0.45798
0.45642
0.454742
0.452941
0.451055
0.449153
0.447255
0.445354
0.44344
0.441458
0.439443
0.437404
0.435282
0.433086
0.430853
0.428613
0.481955
0.484439
0.484057
0.48315
0.482311
0.481496
0.480625
0.47967
0.478623
0.477476
0.476221
0.474852
0.473362
0.471749
0.470009
0.46814
0.466136
0.464
0.46178
0.459545
0.457295
0.455079
0.452832
0.450448
0.44801
0.445559
0.443158
0.440676
0.438047
0.497729
0.500053
0.49962
0.498659
0.497754
0.496865
0.49591
0.49486
0.493707
0.492443
0.491059
0.489546
0.4879
0.486115
0.48419
0.482123
0.479909
0.477547
0.475055
0.472481
0.46993
0.467375
0.464743
0.462153
0.459489
0.45666
0.453783
0.450889
0.448036
0.513943
0.51618
0.5157
0.514685
0.513717
0.512754
0.511716
0.510573
0.509314
0.507932
0.506417
0.50476
0.502954
0.500995
0.49888
0.496607
0.494176
0.49158
0.488824
0.485951
0.483025
0.480099
0.477138
0.474157
0.471107
0.467993
0.464874
0.461633
0.458261
0.530467
0.532686
0.532166
0.531094
0.530061
0.529026
0.527905
0.526667
0.525301
0.523797
0.522145
0.520335
0.518359
0.516212
0.513891
0.511392
0.508715
0.505858
0.502816
0.4996
0.496276
0.492882
0.489487
0.486134
0.482683
0.479094
0.475457
0.471795
0.468213
0.547184
0.549448
0.548892
0.547763
0.546668
0.545563
0.544362
0.54303
0.541557
0.539931
0.538139
0.536174
0.534025
0.531684
0.529148
0.526413
0.523477
0.520339
0.516996
0.513446
0.509722
0.50591
0.502053
0.498188
0.494293
0.490357
0.48638
0.482256
0.478012
0.56396
0.56632
0.565736
0.564551
0.563395
0.562223
0.560943
0.559521
0.557943
0.556195
0.554267
0.552146
0.549821
0.547285
0.544532
0.541558
0.538359
0.534935
0.531283
0.527398
0.52329
0.519001
0.514696
0.510344
0.505951
0.501451
0.496865
0.492228
0.4876
0.580666
0.583167
0.58256
0.581319
0.580106
0.578871
0.577516
0.576006
0.574325
0.57246
0.570395
0.568118
0.565618
0.562886
0.559915
0.556698
0.553232
0.549515
0.545544
0.541318
0.536835
0.53211
0.527247
0.522328
0.517398
0.512474
0.507395
0.502228
0.497061
0.597172
0.599847
0.599221
0.597927
0.596661
0.595367
0.593941
0.592346
0.590565
0.588583
0.586384
0.583955
0.581283
0.578357
0.575168
0.571709
0.567975
0.563964
0.559672
0.555098
0.550241
0.545114
0.539803
0.534322
0.528839
0.523359
0.517864
0.512091
0.506158
0.613355
0.616229
0.615589
0.614244
0.612929
0.61158
0.610087
0.608411
0.606534
0.60444
0.602112
0.599534
0.596692
0.593573
0.590168
0.586469
0.582468
0.578164
0.573552
0.56863
0.56339
0.557832
0.552029
0.546089
0.539838
0.533657
0.527452
0.521059
0.514561
0.629099
0.63219
0.631539
0.630148
0.628788
0.627388
0.625832
0.624078
0.622108
0.619905
0.617449
0.614722
0.61171
0.608399
0.604778
0.600836
0.596566
0.591963
0.587022
0.581743
0.576119
0.570129
0.563774
0.557241
0.550526
0.543591
0.5367
0.52972
0.522581
0.644305
0.647622
0.646964
0.645531
0.64413
0.642683
0.641067
0.639238
0.637178
0.634866
0.632284
0.629411
0.62623
0.622728
0.618889
0.614704
0.610163
0.60526
0.599988
0.594345
0.588333
0.581947
0.575156
0.567984
0.560657
0.553206
0.54553
0.537785
0.529958
0.658887
0.662434
0.661769
0.660298
0.658861
0.65737
0.655697
0.653796
0.651647
0.649229
0.646521
0.643501
0.640151
0.636455
0.632398
0.627967
0.623151
0.617942
0.612334
0.606322
0.599904
0.593083
0.585859
0.578227
0.570176
0.561961
0.553652
0.545093
0.536524
0.672777
0.67655
0.67588
0.674375
0.672906
0.671375
0.669647
0.667676
0.665439
0.662916
0.660082
0.656915
0.653394
0.649501
0.645222
0.640539
0.635442
0.629921
0.623968
0.617579
0.610751
0.603478
0.595763
0.58763
0.579098
0.570192
0.561008
0.551761
0.542352
0.685922
0.689913
0.689238
0.687703
0.686207
0.684639
0.682859
0.680818
0.678496
0.675867
0.672906
0.66959
0.665895
0.661805
0.657298
0.652358
0.646971
0.641128
0.63482
0.628041
0.62079
0.613066
0.604862
0.596176
0.58707
0.577543
0.567751
0.557556
0.547214
0.698287
0.702483
0.701802
0.700243
0.698723
0.697121
0.69529
0.693182
0.690774
0.68804
0.684952
0.681485
0.677616
0.673321
0.668578
0.663371
0.657685
0.651506
0.644826
0.637638
0.62994
0.621734
0.613022
0.603799
0.594056
0.583883
0.573299
0.562395
0.551229
0.709852
0.714234
0.713546
0.711969
0.71043
0.708796
0.706917
0.704743
0.702251
0.699412
0.696197
0.692579
0.688529
0.684022
0.679036
0.673552
0.667552
0.66102
0.653946
0.646323
0.638149
0.629425
0.62016
0.61036
0.600026
0.589165
0.577825
0.56614
0.553994
0.720611
0.725156
0.72446
0.722869
0.721316
0.719654
0.717729
0.715493
0.712918
0.709976
0.706634
0.702861
0.698627
0.693903
0.688667
0.682894
0.676564
0.669658
0.662164
0.654074
0.645385
0.6361
0.626226
0.615777
0.604771
0.593228
0.581131
0.568577
0.555558
0.730571
0.735252
0.734546
0.732947
0.731384
0.729697
0.72773
0.725433
0.722778
0.719734
0.716266
0.712338
0.707917
0.702973
0.69748
0.691407
0.684729
0.677428
0.669486
0.660893
0.651646
0.641746
0.631204
0.620036
0.608267
0.595936
0.583052
0.569701
0.555865
0.739747
0.744534
0.743815
0.742215
0.740648
0.738939
0.736932
0.734578
0.731847
0.728703
0.725109
0.721027
0.716422
0.711258
0.705499
0.699113
0.692074
0.684355
0.675937
0.666805
0.656953
0.646382
0.635103
0.623139
0.610519
0.597288
0.583492
0.569169
0.554482
0.748164
0.753024
0.752291
0.750695
0.749129
0.747402
0.74536
0.742953
0.740149
0.736911
0.733197
0.728965
0.724176
0.718786
0.712756
0.706052
0.69864
0.690485
0.681563
0.671854
0.661349
0.650046
0.637957
0.625106
0.611531
0.597282
0.582432
0.567019
0.551196
0.755856
0.760754
0.760003
0.758419
0.756859
0.755119
0.753046
0.750591
0.74772
0.744393
0.740563
0.736186
0.731215
0.725602
0.719304
0.712279
0.704481
0.695872
0.686419
0.676098
0.664891
0.652794
0.639816
0.625982
0.611337
0.595943
0.579883
0.563256
0.546095
0.762858
0.76776
0.766989
0.765423
0.763874
0.762126
0.760027
0.757531
0.7546
0.751189
0.747251
0.742735
0.737589
0.731761
0.725199
0.717846
0.709654
0.70058
0.690576
0.679609
0.667653
0.654698
0.640748
0.62583
0.609992
0.593309
0.575875
0.557842
0.539226
0.769211
0.774083
0.77329
0.77175
0.770218
0.768467
0.766348
0.763816
0.760832
0.757348
0.753309
0.748663
0.743351
0.737315
0.73049
0.722817
0.714235
0.704686
0.694112
0.682468
0.669717
0.655839
0.640833
0.624721
0.607557
0.589426
0.570441
0.550786
0.53054
0.774959
0.779768
0.778952
0.777445
0.775937
0.774187
0.772055
0.769496
0.766468
0.762918
0.758789
0.754023
0.748555
0.742319
0.735245
0.727261
0.718291
0.708261
0.697107
0.684762
0.671175
0.656312
0.64016
0.622738
0.6041
0.584342
0.563604
0.542093
0.519985
0.780146
0.784862
0.784022
0.782556
0.781077
0.779336
0.777198
0.77462
0.771557
0.767952
0.763745
0.758871
0.753261
0.74684
0.739529
0.731242
0.721896
0.711396
0.699653
0.686588
0.672128
0.65622
0.638834
0.619977
0.599702
0.578116
0.555388
0.531758
0.507509
0.784814
0.789412
0.788549
0.787132
0.78569
0.783963
0.781828
0.77924
0.77615
0.772501
0.768227
0.76326
0.757523
0.750935
0.743405
0.734837
0.725127
0.714166
0.701841
0.688049
0.672689
0.65568
0.636971
0.61655
0.59446
0.570818
0.545824
0.519769
0.493046
0.789005
0.793463
0.79258
0.791221
0.789822
0.788117
0.785992
0.783403
0.780298
0.776616
0.772288
0.767242
0.761397
0.754661
0.746934
0.738106
0.728054
0.716654
0.703768
0.68925
0.672972
0.65482
0.634707
0.61259
0.588494
0.562538
0.534956
0.506106
0.476502
0.792757
0.797063
0.796162
0.794871
0.793521
0.791846
0.789739
0.787158
0.784046
0.780341
0.775973
0.770864
0.764928
0.758067
0.75017
0.741112
0.730753
0.718941
0.705515
0.690294
0.673102
0.653779
0.632193
0.608254
0.581954
0.553398
0.522854
0.49076
0.45778
0.796104
0.800253
0.79934
0.798126
0.796832
0.795192
0.793112
0.790545
0.787435
0.783717
0.779319
0.774162
0.768156
0.761196
0.753159
0.743908
0.733281
0.721101
0.707173
0.691283
0.673203
0.652706
0.6296
0.603732
0.575032
0.543567
0.509632
0.473756
0.43679
0.799072
0.803076
0.802154
0.801024
0.799791
0.798193
0.796146
0.793601
0.790499
0.786776
0.78236
0.777171
0.771116
0.764083
0.755941
0.746538
0.735692
0.723197
0.708823
0.692314
0.673394
0.65176
0.627123
0.599247
0.567973
0.533285
0.495482
0.455171
0.413473
0.801683
0.805569
0.804641
0.803602
0.802434
0.800882
0.798871
0.796352
0.793264
0.789543
0.78512
0.779916
0.773835
0.766761
0.758554
0.749045
0.738037
0.725295
0.710551
0.6935
0.673805
0.651099
0.624983
0.595069
0.561082
0.522884
0.480719
0.435182
0.387812
0.803953
0.80777
0.806829
0.805886
0.804783
0.80328
0.801309
0.798819
0.795749
0.792041
0.787626
0.782428
0.776351
0.769274
0.761049
0.751493
0.740391
0.727482
0.712462
0.694975
0.674618
0.650933
0.623428
0.591525
0.55477
0.5128
0.465764
0.414112
0.359959
0.805895
0.809706
0.808741
0.807895
0.806856
0.805402
0.803473
0.801017
0.797977
0.794297
0.789917
0.784759
0.778729
0.7717
0.763517
0.753986
0.742871
0.729894
0.714715
0.696927
0.676065
0.651556
0.622803
0.589029
0.549576
0.503637
0.451262
0.39246
0.33019
0.807521
0.8114
0.81039
0.80964
0.80866
0.807257
0.805376
0.802967
0.79998
0.796364
0.792062
0.787
0.781078
0.774167
0.766102
0.756681
0.745652
0.732715
0.717507
0.699577
0.678408
0.653309
0.623567
0.588129
0.546189
0.496255
0.438228
0.371062
0.299031
0.808845
0.812862
0.811781
0.811126
0.8102
0.808853
0.807036
0.804705
0.801815
0.79832
0.794163
0.789267
0.78353
0.776817
0.768958
0.75974
0.748906
0.736137
0.721055
0.703174
0.681941
0.656555
0.626214
0.589513
0.545504
0.491778
0.428121
0.351338
0.267692
0.809891
0.814098
0.812919
0.812361
0.811489
0.810212
0.80849
0.806281
0.803548
0.800242
0.796305
0.791656
0.786186
0.779757
0.772195
0.763284
0.752764
0.740308
0.725535
0.707925
0.686913
0.66159
0.631117
0.593718
0.548331
0.491351
0.42254
0.335139
0.237877
0.810688
0.815114
0.813819
0.813363
0.812551
0.811368
0.809777
0.80774
0.805219
0.802165
0.798513
0.794176
0.789042
0.782967
0.775777
0.767257
0.75715
0.745129
0.730815
0.713668
0.693127
0.668187
0.638016
0.600494
0.55451
0.495165
0.421959
0.323704
0.210025
0.811249
0.815895
0.814482
0.814134
0.81339
0.812322
0.810888
0.809052
0.806772
0.803993
0.800642
0.796627
0.791832
0.786114
0.7793
0.771178
0.761496
0.749925
0.736096
0.71945
0.699445
0.674989
0.645294
0.607913
0.561753
0.500708
0.423474
0.314815
0.180198
0.811517
0.81637
0.814846
0.814601
0.813919
0.812957
0.811663
0.810002
0.807925
0.805371
0.802259
0.798495
0.79396
0.788512
0.78198
0.77415
0.764773
0.753515
0.74001
0.723675
0.703988
0.679748
0.650261
0.61266
0.566071
0.502913
0.421178
0.300339
0.139334
0.811519
0.816531
0.814913
0.81475
0.8141
0.813193
0.811963
0.81038
0.808394
0.805944
0.802948
0.799309
0.794906
0.789592
0.783193
0.775489
0.766229
0.755063
0.741625
0.725292
0.70556
0.681092
0.651295
0.612795
0.565103
0.49872
0.412053
0.275646
0.0806958
0.812125
0.817201
0.815548
0.815458
0.814867
0.814026
0.812843
0.811276
0.809273
0.806777
0.803718
0.800011
0.795542
0.790169
0.783712
0.775947
0.766608
0.755327
0.741724
0.725137
0.705052
0.680033
0.64947
0.609699
0.56019
0.490233
0.398906
0.250062
0.0186232
0.815966
0.821032
0.819491
0.819591
0.819421
0.819151
0.818608
0.817633
0.816077
0.813834
0.81082
0.806963
0.802183
0.796373
0.789391
0.781037
0.771059
0.759127
0.744827
0.727586
0.706678
0.681062
0.649256
0.609101
0.55694
0.48682
0.389462
0.248379
0.0884456
0.348452
0.347812
0.347165
0.346511
0.34585
0.345184
0.344512
0.343835
0.343152
0.342465
0.341773
0.341076
0.340376
0.339671
0.338962
0.338249
0.337533
0.336814
0.336091
0.335366
0.334637
0.333906
0.333173
0.332438
0.331702
0.330964
0.330225
0.329485
0.328744
0.328003
0.327261
0.326519
0.325776
0.325035
0.324293
0.323553
0.322813
0.322074
0.321337
0.320601
0.319866
0.319134
0.318404
0.317676
0.316951
0.316229
0.31551
0.314794
0.314082
0.313374
0.31267
0.31197
0.311274
0.310583
0.309897
0.309216
0.308541
0.307871
0.307207
0.306549
0.305896
0.305251
0.304611
0.303978
0.303353
0.302734
0.302122
0.301518
0.300921
0.300332
0.299751
0.299178
0.298613
0.298056
0.297508
0.296969
0.296439
0.295917
0.295405
0.294902
0.294408
0.293924
0.293449
0.292984
0.292529
0.292084
0.291649
0.291224
0.290809
0.290405
0.290011
0.289628
0.289256
0.288895
0.288544
0.288204
0.287876
0.287558
0.287251
0.286955
0.286671
0.286397
0.286135
0.285883
0.285643
0.285414
0.285195
0.284988
0.284792
0.284606
0.28443
0.284266
0.284111
0.283967
0.283832
0.283707
0.283592
0.283486
0.28339
0.283304
0.283227
0.28316
0.283101
0.283051
0.283009
0.282974
0.282945
0.282926
0.28291
0.282904
0.282902
0.282908
0.282922
0.282937
0.282971
0.282998
0.283064
0.283083
0.283235
0.349154
0.348495
0.347829
0.347157
0.346479
0.345796
0.345107
0.344412
0.343712
0.343007
0.342298
0.341584
0.340865
0.340142
0.339416
0.338686
0.337954
0.337218
0.33648
0.33574
0.334998
0.334252
0.333505
0.332754
0.332
0.331245
0.330487
0.329727
0.328966
0.328204
0.32744
0.326676
0.325912
0.325147
0.324383
0.323619
0.322855
0.322093
0.321332
0.320572
0.319814
0.319058
0.318305
0.317554
0.316805
0.316059
0.315317
0.314578
0.313842
0.31311
0.312383
0.311659
0.310941
0.310227
0.309517
0.308813
0.308115
0.307422
0.306734
0.306053
0.305378
0.30471
0.304048
0.303393
0.302746
0.302106
0.301473
0.300848
0.300231
0.299622
0.299022
0.29843
0.297846
0.297272
0.296706
0.296149
0.295602
0.295064
0.294536
0.294017
0.293508
0.29301
0.292521
0.292043
0.291576
0.291119
0.290673
0.290237
0.289813
0.289399
0.288997
0.288605
0.288225
0.287856
0.287499
0.287153
0.286818
0.286496
0.286185
0.285885
0.285598
0.285322
0.285058
0.284807
0.284566
0.284338
0.284122
0.283917
0.283724
0.283543
0.283374
0.283216
0.28307
0.282936
0.282813
0.282701
0.282601
0.282512
0.282433
0.282364
0.282304
0.282254
0.282212
0.282178
0.282152
0.282135
0.282123
0.282115
0.28212
0.282114
0.28213
0.282129
0.282155
0.28214
0.282185
0.282147
0.282158
0.28212
0.282074
0.350311
0.349615
0.348913
0.348209
0.347498
0.346782
0.34606
0.345333
0.344601
0.343863
0.34312
0.34237
0.341616
0.340858
0.340094
0.339324
0.338551
0.337774
0.336993
0.336206
0.335416
0.334622
0.333825
0.333025
0.332223
0.331419
0.330614
0.329807
0.329001
0.328193
0.327385
0.326577
0.32577
0.324962
0.324155
0.323349
0.322543
0.321739
0.320936
0.320136
0.319337
0.31854
0.317746
0.316955
0.316167
0.315382
0.314601
0.313824
0.31305
0.312281
0.311517
0.310757
0.310002
0.309252
0.308508
0.307769
0.307036
0.30631
0.305589
0.304875
0.304168
0.303468
0.302775
0.30209
0.301412
0.300742
0.30008
0.299426
0.29878
0.298143
0.297515
0.296895
0.296285
0.295684
0.295092
0.29451
0.293938
0.293376
0.292824
0.292283
0.291752
0.291231
0.290722
0.290224
0.289736
0.28926
0.288796
0.288343
0.287901
0.287472
0.287054
0.286648
0.286255
0.285873
0.285504
0.285147
0.284803
0.284472
0.284153
0.283846
0.283553
0.283272
0.283005
0.28275
0.282509
0.28228
0.282065
0.281863
0.281675
0.2815
0.281339
0.281191
0.281057
0.280937
0.280831
0.280738
0.28066
0.280595
0.280543
0.280504
0.280479
0.280467
0.280468
0.280482
0.280509
0.280546
0.2806
0.280665
0.280738
0.280821
0.280914
0.281003
0.281096
0.281238
0.281208
0.281529
0.281287
0.282033
0.281213
0.351926
0.351181
0.350435
0.34968
0.348917
0.348152
0.34738
0.346602
0.345817
0.345026
0.34423
0.343428
0.342621
0.341806
0.340986
0.34016
0.339329
0.33849
0.337654
0.336828
0.336012
0.335198
0.334383
0.333564
0.332724
0.331863
0.330999
0.330133
0.329265
0.328396
0.327526
0.326657
0.325787
0.324917
0.324048
0.32318
0.322314
0.321449
0.320586
0.319725
0.318866
0.31801
0.317157
0.316307
0.31546
0.314617
0.313777
0.312942
0.312111
0.311285
0.310464
0.309647
0.308837
0.308032
0.307233
0.30644
0.305654
0.304874
0.304102
0.303337
0.302579
0.301829
0.301086
0.300352
0.299627
0.298909
0.298201
0.297502
0.296812
0.296132
0.295461
0.2948
0.294149
0.293509
0.29288
0.292261
0.291654
0.291057
0.290471
0.289898
0.289335
0.288784
0.288245
0.287717
0.287202
0.286699
0.286208
0.285729
0.285262
0.284809
0.284368
0.283939
0.283524
0.283122
0.282734
0.282358
0.281996
0.281648
0.281313
0.280992
0.280686
0.280393
0.280115
0.279852
0.279603
0.279369
0.279151
0.278948
0.278761
0.278589
0.278434
0.278294
0.278172
0.278065
0.277976
0.277904
0.277848
0.277811
0.277792
0.27779
0.277808
0.277845
0.277902
0.277977
0.278074
0.278194
0.278328
0.27848
0.278677
0.278872
0.279063
0.2795
0.279315
0.280387
0.279323
0.281794
0.279053
0.283828
0.27799
0.354021
0.353258
0.352481
0.351695
0.350903
0.350098
0.349284
0.348461
0.347633
0.346795
0.34595
0.345095
0.344231
0.343363
0.34249
0.341608
0.340715
0.339818
0.338911
0.337984
0.337041
0.336098
0.335163
0.334232
0.333318
0.332405
0.331477
0.330547
0.329615
0.328681
0.327744
0.326805
0.325864
0.324923
0.323981
0.323039
0.322098
0.321157
0.320218
0.31928
0.318343
0.31741
0.316479
0.315552
0.314628
0.313709
0.312793
0.311883
0.310977
0.310077
0.309183
0.308295
0.307413
0.306539
0.305671
0.304811
0.303958
0.303113
0.302277
0.301449
0.300629
0.299819
0.299018
0.298227
0.297445
0.296673
0.295911
0.295159
0.294417
0.293686
0.292966
0.292256
0.291557
0.29087
0.290192
0.289528
0.288874
0.288232
0.287601
0.286981
0.286375
0.285779
0.285197
0.284626
0.284068
0.283523
0.282991
0.282472
0.281967
0.281476
0.280998
0.280535
0.280086
0.279652
0.279232
0.278828
0.278439
0.278065
0.277707
0.277364
0.277038
0.276728
0.276434
0.276157
0.275897
0.275654
0.275428
0.275219
0.275029
0.274856
0.274702
0.274566
0.274449
0.274351
0.274272
0.274214
0.274176
0.274158
0.274162
0.274188
0.274236
0.274309
0.274404
0.27453
0.274678
0.274862
0.275093
0.275337
0.275594
0.276127
0.276029
0.277424
0.276213
0.279697
0.27581
0.283186
0.274148
0.288453
0.267293
0.356167
0.355368
0.354555
0.353734
0.352893
0.352036
0.351174
0.350298
0.349406
0.348503
0.347587
0.346665
0.345737
0.344794
0.343842
0.342891
0.341934
0.340972
0.340003
0.339025
0.338039
0.337041
0.336023
0.334994
0.333957
0.332931
0.331917
0.330897
0.329874
0.328848
0.327822
0.326798
0.325775
0.324751
0.323727
0.322705
0.321683
0.320663
0.319645
0.318629
0.317616
0.316606
0.315597
0.31459
0.313586
0.312585
0.311589
0.310598
0.309612
0.308631
0.307658
0.30669
0.30573
0.304776
0.303831
0.302893
0.301964
0.301043
0.30013
0.299227
0.298333
0.297449
0.296574
0.29571
0.294855
0.29401
0.293176
0.292352
0.291539
0.290737
0.289946
0.289167
0.288398
0.287641
0.286901
0.286171
0.285455
0.284751
0.284059
0.283384
0.282719
0.282071
0.281436
0.280819
0.280215
0.279625
0.279052
0.278493
0.27795
0.277423
0.276911
0.276415
0.275934
0.27547
0.275022
0.27459
0.274175
0.273776
0.273394
0.27303
0.272682
0.272352
0.27204
0.271745
0.271468
0.27121
0.27097
0.270749
0.270546
0.270363
0.270199
0.270055
0.269931
0.269827
0.269745
0.269684
0.269645
0.26963
0.269638
0.269672
0.269732
0.269821
0.269939
0.270091
0.270273
0.27048
0.270727
0.271093
0.271161
0.272031
0.271512
0.273358
0.271786
0.27498
0.27214
0.276838
0.271197
0.283568
0.25213
0.358714
0.357868
0.357007
0.356119
0.35522
0.354306
0.353373
0.352416
0.351452
0.350483
0.349496
0.348495
0.347475
0.346446
0.345407
0.344352
0.343279
0.342193
0.341098
0.340002
0.338896
0.337777
0.336671
0.335572
0.334478
0.333361
0.332214
0.331068
0.329923
0.328778
0.327628
0.326471
0.325308
0.32415
0.323
0.321859
0.320725
0.319594
0.318467
0.317343
0.31622
0.315091
0.31396
0.312841
0.31173
0.310624
0.309525
0.308433
0.307347
0.306269
0.305198
0.304135
0.303079
0.302032
0.300994
0.299964
0.298943
0.297933
0.296932
0.295941
0.294962
0.293994
0.293038
0.292094
0.291163
0.290246
0.289341
0.288451
0.287575
0.286711
0.285864
0.285029
0.284207
0.283402
0.282614
0.281841
0.28108
0.280332
0.279599
0.278878
0.278171
0.277481
0.276808
0.276145
0.275498
0.274869
0.274251
0.273652
0.273068
0.272501
0.271951
0.271418
0.270903
0.270405
0.269925
0.269463
0.269019
0.268593
0.268185
0.267795
0.267423
0.26707
0.266736
0.266419
0.266122
0.265844
0.265585
0.265344
0.265124
0.264923
0.264743
0.264583
0.264444
0.264326
0.264231
0.264157
0.264107
0.264081
0.264078
0.264101
0.264148
0.264219
0.264313
0.264431
0.264577
0.264734
0.264849
0.265186
0.265091
0.265745
0.265345
0.266304
0.265746
0.266663
0.266714
0.266956
0.266872
0.273658
0.241746
0.362215
0.3613
0.360351
0.359383
0.358398
0.357383
0.356336
0.355285
0.354217
0.353112
0.351989
0.350853
0.349696
0.348537
0.347359
0.346159
0.344956
0.343759
0.342554
0.341324
0.340091
0.338845
0.337579
0.336313
0.335046
0.333778
0.332526
0.33126
0.329976
0.328694
0.327407
0.326134
0.324898
0.323668
0.322419
0.321153
0.319878
0.318598
0.31732
0.316044
0.314775
0.313526
0.312299
0.311076
0.309853
0.308636
0.307427
0.306224
0.305028
0.303842
0.302664
0.301496
0.300338
0.299192
0.298056
0.296932
0.295822
0.294724
0.29364
0.29257
0.291515
0.290477
0.289454
0.288448
0.287459
0.286483
0.28552
0.284565
0.283625
0.282704
0.28179
0.2809
0.280024
0.279151
0.278291
0.277448
0.2766
0.275766
0.27495
0.274151
0.27338
0.272613
0.271866
0.271147
0.270443
0.269755
0.269092
0.268444
0.267814
0.267203
0.26661
0.266033
0.265474
0.264932
0.264408
0.263901
0.263412
0.26294
0.262487
0.262052
0.261636
0.261238
0.260859
0.2605
0.260159
0.259838
0.259537
0.259256
0.258994
0.258753
0.258532
0.258332
0.258152
0.257993
0.257854
0.257736
0.257638
0.257561
0.257502
0.257462
0.257438
0.257428
0.257433
0.257446
0.257477
0.257533
0.25751
0.2577
0.257576
0.257918
0.257717
0.258128
0.258046
0.258075
0.258439
0.257616
0.257256
0.264318
0.235506
0.366829
0.365788
0.364732
0.363654
0.362543
0.361411
0.360265
0.359092
0.357896
0.356687
0.355461
0.354214
0.352961
0.35169
0.350398
0.349104
0.347789
0.34643
0.345062
0.343697
0.342337
0.340963
0.339559
0.338124
0.336674
0.335248
0.333804
0.332381
0.331027
0.329644
0.328197
0.326745
0.325295
0.323854
0.322428
0.321014
0.319612
0.318218
0.316831
0.315449
0.314075
0.312708
0.311342
0.309978
0.308627
0.30729
0.305962
0.304643
0.303333
0.302036
0.300751
0.299478
0.298218
0.296971
0.295738
0.294517
0.293309
0.292113
0.290929
0.289759
0.288599
0.287451
0.286314
0.285187
0.284073
0.282963
0.281873
0.280802
0.279747
0.278703
0.277677
0.276665
0.275666
0.274694
0.273743
0.272807
0.271909
0.271034
0.270174
0.269328
0.268483
0.267675
0.266888
0.266103
0.265337
0.264591
0.263859
0.263145
0.262452
0.261777
0.261121
0.260486
0.25987
0.259275
0.258699
0.258142
0.257604
0.257085
0.256585
0.256103
0.255641
0.255197
0.254771
0.254365
0.253977
0.253608
0.253258
0.252926
0.252614
0.25232
0.252044
0.251787
0.251547
0.251325
0.25112
0.250931
0.250756
0.250597
0.250451
0.250317
0.250198
0.250088
0.249992
0.249902
0.249822
0.249788
0.249669
0.249739
0.249575
0.249736
0.249577
0.249714
0.249859
0.249701
0.25011
0.24931
0.247919
0.254542
0.229667
0.372391
0.371242
0.370053
0.368821
0.36757
0.366297
0.365
0.363667
0.362306
0.360937
0.359543
0.358113
0.356656
0.355188
0.353706
0.352185
0.350654
0.349154
0.347645
0.34609
0.344503
0.342929
0.341376
0.339845
0.338352
0.336819
0.335239
0.333647
0.331997
0.330381
0.32884
0.327287
0.325697
0.324088
0.322486
0.320893
0.319309
0.317738
0.316183
0.314641
0.313108
0.311578
0.310046
0.308525
0.307023
0.305536
0.304064
0.302608
0.301168
0.299741
0.298326
0.296923
0.295531
0.294151
0.292783
0.291429
0.290087
0.288759
0.287444
0.286144
0.284859
0.283587
0.282332
0.281093
0.279872
0.278682
0.277512
0.276365
0.275234
0.274117
0.273025
0.271941
0.270877
0.269845
0.268834
0.267835
0.266863
0.265903
0.264963
0.264046
0.263148
0.262269
0.261417
0.260598
0.259797
0.25901
0.258243
0.257497
0.256765
0.256049
0.255352
0.254669
0.254004
0.253353
0.252721
0.252109
0.251516
0.250943
0.25039
0.249856
0.249341
0.248846
0.248371
0.247914
0.247477
0.247058
0.246658
0.246274
0.245907
0.245556
0.24522
0.244899
0.244593
0.2443
0.244021
0.243756
0.243503
0.243262
0.243036
0.242819
0.242617
0.242429
0.242254
0.242096
0.241934
0.241842
0.241669
0.241657
0.241493
0.241525
0.24144
0.241395
0.241631
0.241153
0.241015
0.240382
0.239245
0.244784
0.223427
0.378278
0.376913
0.375517
0.374112
0.372653
0.371147
0.36962
0.368078
0.36651
0.364889
0.363256
0.36162
0.35995
0.358255
0.35656
0.3549
0.353221
0.351478
0.349714
0.347964
0.346273
0.344564
0.342773
0.340981
0.339147
0.33732
0.335538
0.333737
0.33194
0.330141
0.328319
0.326535
0.324808
0.323105
0.321404
0.319699
0.317987
0.316267
0.314546
0.31283
0.311121
0.30942
0.307735
0.306068
0.304407
0.302751
0.301108
0.299482
0.297872
0.296277
0.294698
0.293136
0.291592
0.290066
0.28856
0.287076
0.285612
0.284171
0.282753
0.281359
0.27999
0.278644
0.277323
0.276025
0.274748
0.273491
0.272251
0.271018
0.269807
0.268625
0.267462
0.26632
0.265204
0.264095
0.263011
0.261959
0.260919
0.259909
0.258924
0.257952
0.256992
0.256059
0.25515
0.254252
0.253369
0.252513
0.251685
0.250866
0.250075
0.249311
0.248563
0.247842
0.247143
0.246469
0.245821
0.245191
0.24458
0.243986
0.243408
0.242848
0.242305
0.241778
0.241268
0.240773
0.240294
0.239831
0.239381
0.238947
0.238527
0.238124
0.237735
0.237363
0.237005
0.236662
0.236334
0.236021
0.235724
0.23544
0.235174
0.234922
0.234688
0.234471
0.234269
0.234098
0.233914
0.233803
0.233631
0.233579
0.233418
0.233419
0.233309
0.233134
0.233141
0.232555
0.232146
0.231574
0.230664
0.235392
0.216818
0.384453
0.382856
0.38126
0.379571
0.377921
0.376286
0.37454
0.372746
0.370956
0.369187