/*--------------------------------*- C++ -*----------------------------------*\
| =========                 |                                                 |
| \\      /  F ield         | OpenFOAM: The Open Source CFD Toolbox           |
|  \\    /   O peration     | Version:  5.x                                   |
|   \\  /    A nd           | Web:      www.OpenFOAM.org                      |
|    \\/     M anipulation  |                                                 |
\*---------------------------------------------------------------------------*/
/*   Windows 32 and 64 bit porting by blueCAPE: http://www.bluecape.com.pt   *\
|  Based on Windows porting (2.0.x v4) by Symscape: http://www.symscape.com   |
\*---------------------------------------------------------------------------*/
FoamFile
{
    version     2.0;
    format      ascii;
    class       surfaceScalarField;
    location    "230";
    object      phi;
}
// * * * * * * * * * * * * * * * * * * * * * * * * * * * * * * * * * * * * * //

dimensions      [0 3 -1 0 0 0 0];

internalField   nonuniform List<scalar> 
87341
(
0.36599
39.557
0.529114
39.7599
0.495729
39.9564
0.602739
39.816
0.640372
39.8854
0.684732
39.8787
0.723493
39.8843
0.764144
39.8824
0.801459
39.8857
0.828553
39.8959
0.85276
39.8988
0.875921
39.8999
0.89872
39.9002
0.920894
39.9009
0.941724
39.9022
0.95995
39.9048
0.977684
39.9053
0.993832
39.9069
1.00843
39.9084
1.02303
39.9084
1.03589
39.9102
1.04811
39.9108
1.06049
39.9107
1.07139
39.9121
1.08229
39.9121
1.09333
39.912
1.10317
39.9132
1.11337
39.9128
39.9127
1.12374
0.966955
38.5901
1.35603
39.3708
1.46435
39.8481
1.59694
39.6834
1.63117
39.8512
1.78663
39.7232
1.88238
39.7885
2.01391
39.7509
2.10847
39.7912
2.21947
39.7849
2.32345
39.7948
2.41985
39.8035
2.50977
39.8103
2.5918
39.8188
2.66676
39.8272
2.73812
39.8335
2.80281
39.8406
2.86228
39.8474
2.91852
39.8522
2.96875
39.8582
3.01648
39.8624
3.06187
39.8654
3.10229
39.8702
3.14156
39.8729
3.17862
39.8751
3.21183
39.8788
3.24474
39.8803
3.2755
39.8821
39.8845
3.30364
2.03223
36.5579
3.34682
38.0562
4.12276
39.0722
4.20212
39.6041
4.35761
39.6957
4.28783
39.793
4.3172
39.7592
4.2923
39.7758
4.31727
39.7662
4.34386
39.7584
4.37803
39.7607
4.42203
39.7595
4.46723
39.7651
4.51278
39.7733
4.56041
39.7796
4.60566
39.7882
4.65058
39.7957
4.69846
39.7995
4.7447
39.8059
4.79211
39.8108
4.84158
39.813
4.8885
39.8185
4.9368
39.8219
4.98522
39.8245
5.03114
39.8292
5.07858
39.8313
5.12447
39.8344
5.1678
39.8388
39.84
5.21234
1.69663
34.8612
3.49537
36.2575
4.94479
37.6227
5.83249
38.7164
6.13377
39.3944
6.22328
39.7035
6.23905
39.7434
6.26114
39.7537
6.27596
39.7514
6.282
39.7523
6.28685
39.7558
6.28282
39.7635
6.28229
39.7657
6.28696
39.7686
6.29366
39.7729
6.30925
39.7726
6.33417
39.7708
6.35812
39.7756
6.38786
39.7762
6.42326
39.7754
6.45592
39.7803
6.4927
39.7817
6.53243
39.7822
6.57023
39.7867
6.61051
39.7889
6.65099
39.7909
6.69151
39.7939
6.73499
39.7953
39.7976
6.77735
1.08501
33.7762
2.44959
34.8929
4.02006
36.0523
5.48213
37.2543
6.5486
38.3279
7.13045
39.1216
7.33173
39.5421
7.37031
39.7151
7.40262
39.7191
7.43158
39.7234
7.45902
39.7284
7.48785
39.7347
7.51318
39.7403
7.53447
39.7473
7.56759
39.7398
7.60469
39.7355
7.63423
39.7412
7.67045
39.7394
7.71057
39.7361
7.74692
39.7391
7.78815
39.7391
7.8298
39.7401
7.86907
39.7429
7.91307
39.7427
7.95665
39.7453
8.00176
39.7458
8.0499
39.7457
8.09279
39.7524
39.7526
8.1378
0.847454
32.9288
1.85322
33.8872
3.01553
34.89
4.33842
35.9314
5.68525
36.9811
6.81482
37.992
7.53426
38.8227
7.88048
39.3689
8.0058
39.5937
8.07914
39.65
8.15252
39.655
8.22351
39.6637
8.29497
39.6689
8.36842
39.6739
8.43843
39.6698
8.50536
39.6686
8.58085
39.6657
8.65482
39.6654
8.71756
39.6733
8.78587
39.6707
8.85333
39.6716
8.92094
39.6725
8.99317
39.6707
9.06012
39.6757
9.12706
39.6784
9.19599
39.6768
9.2594
39.6823
9.32863
39.6831
39.6785
9.40276
0.739005
32.1898
1.57853
33.0476
2.52106
33.9474
3.57054
34.8819
4.71658
35.8351
5.92091
36.7877
7.02418
37.7194
7.84211
38.5509
8.28902
39.1468
8.48444
39.4546
8.59954
39.5399
8.71818
39.545
8.8393
39.5478
8.96277
39.5504
9.07593
39.5566
9.19059
39.5539
9.3006
39.5557
9.40388
39.5621
9.51805
39.5592
9.62725
39.5615
9.73266
39.5662
9.83688
39.5683
9.93339
39.5742
10.0316
39.5774
10.133
39.577
10.229
39.5809
10.3289
39.5823
10.4269
39.5852
39.593
10.5123
0.687977
31.5018
1.44498
32.2906
2.27446
33.1179
3.17874
33.9777
4.15529
34.8585
5.19521
35.7478
6.28381
36.6308
7.34799
37.4868
8.20899
38.2858
8.75329
38.9103
9.01275
39.2804
9.16338
39.3944
9.31181
39.3993
9.45243
39.4098
9.60244
39.4066
9.74674
39.4096
9.88516
39.4173
10.0301
39.4172
10.1672
39.422
10.3026
39.4261
10.4408
39.428
10.5745
39.4345
10.7099
39.4388
10.8476
39.4398
10.9768
39.4477
11.1064
39.4514
11.2296
39.4591
11.3476
39.4673
39.4677
11.4728
0.657637
30.8441
1.36528
31.583
2.12731
32.3559
2.94579
33.1592
3.82032
33.984
4.74746
34.8207
5.71983
35.6584
6.72173
36.4849
7.72257
37.285
8.59368
38.0392
9.20228
38.6718
9.51426
39.0824
9.69904
39.2145
9.88234
39.2265
10.047
39.242
10.2139
39.2427
10.389
39.2422
10.5551
39.2511
10.7163
39.2607
10.8801
39.2624
11.0397
39.2684
11.2052
39.269
11.37
39.2739
11.5271
39.2828
11.6799
39.2948
11.8295
39.3018
11.9826
39.306
12.1432
39.3067
39.3127
12.2982
0.632833
30.2113
1.30777
30.9081
2.02389
31.6398
2.78283
32.4002
3.5848
33.182
4.42823
33.9772
5.30932
34.7773
6.22098
35.5732
7.15133
36.3546
8.08139
37.1091
8.93521
37.818
9.57477
38.4429
9.92529
38.864
10.1408
39.011
10.3546
39.0281
10.5545
39.0429
10.7452
39.0515
10.94
39.0563
11.14
39.0607
11.3383
39.0641
11.5387
39.068
11.7202
39.0876
11.8927
39.1014
12.0643
39.1112
12.2488
39.1104
12.4374
39.1131
12.6205
39.1229
12.7809
39.1463
39.1629
12.9306
0.623093
29.5882
1.27889
30.2523
1.96837
30.9503
2.69204
31.6766
3.44966
32.4244
4.23996
33.1869
5.06051
33.9568
5.9073
34.7264
6.77411
35.4878
7.65132
36.2319
8.52216
36.9472
9.34871
37.6163
9.99162
38.2211
10.3611
38.6415
10.6002
38.7891
10.8445
38.7986
11.0774
38.8186
11.2979
38.8358
11.525
38.8336
11.7454
38.8437
11.949
38.8644
12.1662
38.8703
12.3975
38.8701
12.625
38.8837
12.8334
38.902
13.0224
38.9241
13.1961
38.9492
13.389
38.9534
38.9509
13.6011
0.6269
28.9613
1.28135
29.5978
1.9645
30.2672
2.6765
30.9646
3.41697
31.684
4.18476
32.4191
4.97794
33.1636
5.7937
33.9107
6.62795
34.6536
7.47475
35.3851
8.32486
36.0971
9.16191
36.7793
9.96571
37.4173
10.6136
37.9936
11.0034
38.3992
11.2629
38.5391
11.5288
38.5527
11.8008
38.5637
12.0483
38.5861
12.2816
38.6105
12.5346
38.6114
12.7892
38.6158
13.0072
38.6521
13.2269
38.664
13.4536
38.6753
13.6834
38.6942
13.9303
38.7023
14.1667
38.7171
38.7529
14.3646
0.637847
28.3235
1.30094
28.9347
1.98941
29.5787
2.70307
30.2509
3.44143
30.9456
4.20363
31.6569
4.98809
32.3791
5.79261
33.1061
6.61419
33.832
7.44878
34.5505
8.29066
35.2552
9.13128
35.9386
9.95708
36.5915
10.7504
37.2004
11.4003
37.7493
11.7988
38.1405
12.0783
38.2732
12.3509
38.2912
12.6266
38.3105
12.9093
38.3278
13.1724
38.3483
13.4244
38.3637
13.7041
38.3724
13.9798
38.3883
14.228
38.4272
14.4674
38.4548
14.6924
38.4774
14.9178
38.4916
38.5081
15.1626
0.65057
27.6729
1.32405
28.2612
2.02058
28.8822
2.73983
29.5316
3.48084
30.2046
4.24258
30.8952
5.02375
31.5979
5.82248
32.3074
6.63631
33.0182
7.46215
33.7247
8.29593
34.4214
9.13213
35.1025
9.96274
35.7609
10.775
36.3881
11.5525
36.9719
12.1953
37.4977
12.6064
37.8621
12.9009
37.9966
13.1956
38.0158
13.5031
38.0202
13.8149
38.0365
14.1097
38.0689
14.381
38.1012
14.643
38.1263
14.9141
38.1561
15.1985
38.1703
15.4739
38.202
15.7285
38.237
38.274
15.9627
0.665627
27.0073
1.35228
27.5746
2.05983
28.1746
2.7881
28.8034
3.53625
29.4564
4.30272
30.1287
5.08604
30.8146
5.88461
31.5089
6.6963
32.2065
7.51851
32.9025
8.34804
33.5919
9.18085
34.2696
10.0116
34.9302
10.8326
35.5671
11.6323
36.1722
12.3957
36.7343
13.0234
37.2343
13.4549
37.5652
13.8123
37.6584
14.1447
37.6878
14.4425
37.7387
14.7496
37.7617
15.0636
37.7872
15.3793
37.8105
15.7011
37.8343
15.9921
37.8794
16.2751
37.9189
16.5615
37.9507
37.986
16.8495
0.682727
26.3245
1.38512
26.8722
2.10679
27.453
2.84728
28.0629
3.60603
28.6977
4.3818
29.353
5.17262
30.0238
5.97669
30.7048
6.79219
31.391
7.61682
32.0778
8.44789
32.7608
9.28216
33.4354
10.1156
34.0967
10.943
34.7397
11.757
35.3581
12.547
35.9444
13.2931
36.4882
13.8946
36.9637
14.3033
37.2496
14.6359
37.3553
14.9818
37.3928
15.34
37.4036
15.6826
37.4445
16.0205
37.4726
16.3544
37.5004
16.6806
37.5532
16.9988
37.6008
17.2989
37.6506
37.7051
17.5797
0.699939
25.6246
1.41862
26.1535
2.15545
26.7161
2.90966
27.3087
3.68038
27.927
4.46674
28.5666
5.26721
29.2234
6.07952
29.8925
6.90165
30.5688
7.7316
31.2479
8.56692
31.9255
9.40486
32.5974
10.2422
33.2594
11.075
33.9069
11.898
34.5351
12.7045
35.1379
13.4844
35.7082
14.2092
36.2389
14.7637
36.6952
15.1913
36.9277
15.5875
36.9966
15.9653
37.0258
16.3417
37.0682
16.6855
37.1288
16.9909
37.1949
17.2975
37.2467
17.6153
37.2829
17.9684
37.2975
37.3657
18.3078
0.717481
24.9071
1.45303
25.418
2.20594
25.9632
2.97533
26.5393
3.7601
27.1422
4.55912
27.7676
5.37126
28.4112
6.19478
29.0689
7.0273
29.7363
7.86667
30.4085
8.71078
31.0814
9.55714
31.7511
10.403
32.4136
11.2451
33.0648
12.0796
33.7005
12.9018
34.3158
13.705
34.905
14.4822
35.4617
15.19
35.9874
15.7336
36.3841
16.1617
36.5685
16.5367
36.6507
16.8938
36.7111
17.2844
36.7381
17.7036
36.7757
18.1151
36.8352
18.4891
36.9089
18.8079
36.9787
37.037
19.1365
0.734457
24.1727
1.48654
24.6659
2.25547
25.1943
3.04026
25.7545
3.83977
26.3427
4.65265
26.9547
5.47752
27.5863
6.31306
28.2334
7.15738
28.892
8.00803
29.5579
8.86279
30.2266
9.71943
30.8944
10.5754
31.5576
11.4279
32.2123
12.2738
32.8547
13.1091
33.4805
13.9291
34.085
14.7277
34.6631
15.5038
35.2112
16.171
35.7169
16.6719
36.0676
17.111
36.2116
17.5244
36.2978
17.9049
36.3576
18.2516
36.4291
18.6252
36.4617
19.0268
36.5072
19.4235
36.5821
36.6793
19.7812
0.750228
23.4224
1.51784
23.8983
2.30195
24.4102
3.1015
24.9549
3.91527
25.5289
4.74186
26.1281
5.57971
26.7485
6.42722
27.3859
7.28285
28.0363
8.14453
28.6962
9.00975
29.3614
9.87623
30.028
10.7415
30.6923
11.6029
31.3509
12.4574
32.0001
13.3018
32.6361
14.1319
33.2548
14.9433
33.8517
15.7321
34.4224
16.4826
34.9664
17.0978
35.4524
17.5849
35.7245
18.0429
35.8398
18.5281
35.8725
19.005
35.9521
19.4042
36.0625
19.7393
36.1721
20.0694
36.252
36.3031
20.4456
0.765376
22.6571
1.54798
23.1157
2.34691
23.6113
3.1611
24.1408
3.9893
24.7007
4.8301
25.2873
5.68194
25.8967
6.54307
26.5248
7.41177
27.1677
8.28632
27.8217
9.16448
28.4833
10.0438
29.1486
10.922
29.8141
11.7965
30.4764
12.6645
31.1321
13.5231
31.7775
14.3689
32.409
15.1982
33.0224
16.0071
33.6136
16.7932
34.1802
17.5181
34.7275
18.1336
35.109
18.6153
35.3581
19.0251
35.4627
19.4295
35.5477
19.9034
35.5886
20.4251
35.6504
20.8761
35.801
35.9358
21.2433
0.779687
21.8774
1.5766
22.3187
2.38982
22.798
3.21828
23.3123
4.06074
23.8582
4.91584
24.4322
5.78202
25.0305
6.65759
25.6492
7.5407
26.2845
8.42957
26.9328
9.32228
27.5905
10.2165
28.2544
11.11
28.9207
12.0003
29.5861
12.8849
30.2475
13.7609
30.9015
14.6255
31.5445
15.4752
32.1727
16.3064
32.7823
17.1167
33.37
17.9026
33.9416
18.5557
34.4559
19.1402
34.7736
19.6752
34.9277
20.1321
35.0908
20.4708
35.2499
20.8098
35.3113
21.2416
35.3693
35.4225
21.7549
0.793168
21.0842
1.6036
21.5083
2.43042
21.9712
3.2726
22.4701
4.12896
23.0019
4.99815
23.563
5.87867
24.15
6.76887
24.759
7.66695
25.3865
8.57101
26.0287
9.47921
26.6823
10.3895
27.3441
11.2995
28.0107
12.2068
28.6788
13.1091
29.3453
14.0037
30.0069
14.8876
30.6605
15.7579
31.3025
16.6112
31.9291
17.4444
32.5367
18.2606
33.1254
19.026
33.6906
19.6071
34.1925
20.0838
34.451
20.6222
34.5525
21.2205
34.6516
21.7508
34.781
22.129
34.991
35.0967
22.4549
0.805315
20.2789
1.628
20.6856
2.46722
21.132
3.32201
21.6153
4.19127
22.1326
5.0737
22.6806
5.96788
23.2558
6.8722
23.8547
7.78494
24.4737
8.70422
25.1094
9.6281
25.7585
10.5546
26.4176
11.4814
27.0838
12.4064
27.7538
13.3271
28.4246
14.2408
29.0932
15.1448
29.7565
16.0361
30.4112
16.9113
31.0538
17.7669
31.6811
18.6012
32.291
19.4061
32.8857
20.1735
33.425
20.7859
33.8386
21.2121
34.1262
21.6141
34.2496
22.1366
34.2586
22.73
34.3976
34.6348
23.1919
0.815744
19.4631
1.64896
19.8524
2.49888
20.2821
3.36465
20.7496
4.24521
21.2521
5.13938
21.7864
6.04579
22.3494
6.96293
22.9375
7.88911
23.5475
8.82254
24.176
9.76127
24.8197
10.7033
25.4756
11.6465
26.1406
12.5887
26.8116
13.5274
27.4859
14.4602
28.1604
15.3844
28.8323
16.2971
29.4984
17.1953
30.1557
18.0753
30.8011
18.934
31.4323
19.7627
32.0571
20.5065
32.6812
21.1993
33.1459
21.8748
33.4507
22.3592
33.7652
22.6816
33.9361
23.0965
33.9827
34.1271
23.6042
0.824143
18.639
1.66584
19.0107
2.52443
19.4235
3.39913
19.8749
4.289
20.3622
5.19294
20.8825
6.10965
21.4327
7.03768
22.0095
7.97543
22.6098
8.92113
23.2303
9.87288
23.868
10.8287
24.5198
11.7866
25.1827
12.7442
25.854
13.6993
26.5308
14.6494
27.2103
15.5919
27.8897
16.5242
28.5662
17.4431
29.2368
18.3455
29.8986
19.2286
30.5493
20.0957
31.1899
20.9376
31.8392
21.5988
32.4847
22.2112
32.8383
22.8832
33.0932
23.403
33.4164
23.8459
33.5397
33.7741
24.1989
0.830293
17.8087
1.67819
18.1628
2.54314
18.5585
3.42447
18.9935
4.32136
19.4653
5.23278
19.9711
6.15756
20.5079
7.09432
21.0728
8.04152
21.6626
8.99747
22.2744
9.96035
22.9051
10.9282
23.5519
11.899
24.2119
12.8705
24.8825
13.8404
25.5608
14.8064
26.2443
15.766
26.9302
16.7164
27.6158
17.6548
28.2984
18.5783
28.9751
19.484
29.6436
20.3709
30.3031
21.2573
30.9527
22.1117
31.6303
22.7019
32.2481
23.2295
32.5656
23.7997
32.8463
24.3346
33.0048
33.2836
24.825
0.834024
16.9747
1.68565
17.3112
2.55445
17.6897
3.4399
18.1081
4.34128
18.5639
5.25769
19.0546
6.18806
19.5775
7.1311
20.1297
8.08537
20.7083
9.04927
21.3105
10.021
21.9333
10.9988
22.5742
11.9804
23.2303
12.9639
23.899
13.9469
24.5778
14.9271
25.2641
15.902
25.9554
16.8688
26.649
17.8248
27.3424
18.7669
28.033
19.6917
28.7188
20.5961
29.3986
21.4757
30.0732
22.3649
30.7411
23.1802
31.4328
23.7253
32.0205
24.2221
32.3495
24.6961
32.5307
32.7393
25.2405
0.835205
16.1395
1.68795
16.4585
2.55795
16.8197
3.44481
17.2212
4.34796
17.6608
5.26663
18.136
6.19985
18.6443
7.14645
19.1831
8.10509
19.7497
9.07425
20.3413
10.0522
20.9553
11.0372
21.5892
12.0272
22.2403
13.0202
22.9061
14.0139
23.5842
15.0059
24.2721
15.9939
24.9674
16.9752
25.6677
17.947
26.3706
18.9064
27.0736
19.8503
27.7749
20.7755
28.4735
21.6787
29.17
22.5493
29.8705
23.4118
30.5703
24.2034
31.2288
24.7304
31.8226
25.1719
32.0892
32.3218
25.5894
0.833764
15.3057
1.68494
15.6073
2.55337
15.9513
3.43884
16.3358
4.34091
16.7587
5.25895
17.2179
6.1921
17.7112
7.13931
18.2359
8.09934
18.7896
9.07076
19.3699
10.052
19.9741
11.0412
20.6
12.0365
21.245
13.0358
21.9068
14.037
22.583
15.0377
23.2714
16.0354
23.9696
17.0277
24.6754
18.0118
25.3865
18.9848
26.1006
19.944
26.8157
20.8868
27.5307
21.8109
28.2459
22.7145
28.9669
23.5579
29.727
24.3654
30.4213
25.1184
31.0696
25.6166
31.591
31.8719
26.0665
0.829711
14.476
1.67662
14.7604
2.54073
15.0872
3.42199
15.4545
4.32011
15.8606
5.2346
16.3034
6.16471
16.781
7.10953
17.2911
8.06792
17.8313
9.03853
18.3993
10.0199
18.9928
11.0102
19.6096
12.0077
20.2475
13.0102
20.9042
14.0156
21.5776
15.0216
22.2654
16.0255
22.9656
17.025
23.676
18.0172
24.3943
18.9992
25.1185
19.9684
25.8466
20.9221
26.577
21.8589
27.3091
22.7806
28.0452
23.6984
28.8092
24.4962
29.6235
25.2467
30.319
25.9
30.9378
31.3889
26.383
0.823117
13.6529
1.66314
13.9204
2.52024
14.2301
3.39454
14.5802
4.28593
14.9692
5.19403
15.3953
6.11826
15.8568
7.05781
16.3515
8.01167
16.8774
8.9786
17.4323
9.95715
18.0142
10.9457
18.6211
11.9423
19.2508
12.9451
19.9015
13.9517
20.5709
14.9599
21.2572
15.9672
21.9584
16.9708
22.6724
17.9679
23.3971
18.9558
24.1306
19.9315
24.8709
20.8922
25.6162
21.8361
26.3653
22.7633
27.118
23.6877
27.8848
24.6084
28.7028
25.3774
29.55
26.0146
30.3006
30.8396
26.5638
0.814087
12.8388
1.64471
13.0897
2.49222
13.3826
3.35693
13.7155
4.23889
14.0872
5.1379
14.4963
6.05351
14.9412
6.98505
15.42
7.93163
15.9308
8.89212
16.4719
9.86515
17.0412
10.8492
17.6371
11.8423
18.2576
12.8427
18.9011
13.8481
19.5656
14.8561
20.2492
15.8642
20.9503
16.8696
21.6669
17.8695
22.3973
18.8607
23.1394
19.8402
23.8914
20.805
24.6514
21.7525
25.4178
22.6808
26.1897
23.597
26.9686
24.5171
27.7827
25.4241
28.643
26.1651
29.5596
30.3037
26.7011
0.802726
12.0361
1.62155
12.2709
2.457
12.5471
3.30961
12.8629
4.17959
13.2172
5.06691
13.609
5.97129
14.0368
6.8922
14.4991
7.82889
14.9941
8.78035
15.5204
9.74535
16.0762
10.7224
16.66
11.7098
17.2702
12.7056
17.9053
13.7076
18.5636
14.7135
19.2434
15.7205
19.9433
16.7258
20.6616
17.7265
21.3966
18.7193
22.1466
19.701
22.9097
20.6683
23.6841
21.618
24.4681
22.5476
25.2602
23.4566
26.0595
24.3613
26.878
25.2694
27.7349
26.1638
28.6652
29.6543
26.8131
0.789142
11.2469
1.59387
11.4662
2.41493
11.7261
3.25302
12.0248
4.1086
12.3617
4.98177
12.7358
5.87245
13.1462
6.78027
13.5913
7.70463
14.0698
8.64469
14.5803
9.59934
15.1216
10.5673
15.6921
11.5468
16.2906
12.5362
16.9159
13.533
17.5668
14.5349
18.2415
15.5392
18.939
16.543
19.6578
17.5432
20.3964
18.5364
21.1534
19.5191
21.927
20.4876
22.7156
21.4383
23.5173
22.3679
24.3306
23.2737
25.1537
24.1611
25.9907
25.0408
26.8552
25.9388
27.7673
28.8194
26.7737
0.773432
10.4735
1.56189
10.6777
2.3663
10.9217
3.18762
11.2035
4.02648
11.5228
4.88319
11.8791
5.75784
12.2715
6.65026
12.6988
7.56003
13.16
8.48648
13.6539
9.42866
14.1794
10.3854
14.7354
11.355
15.3209
12.3359
15.9351
13.3258
16.5769
14.3223
17.2451
15.3226
17.9386
16.3239
18.6565
17.3227
19.3976
18.3154
20.1607
19.2982
20.9442
20.2671
21.7467
21.2179
22.5665
22.1467
23.4018
23.0495
24.2509
23.9262
25.114
24.7833
25.9981
25.641
26.9096
27.9344
26.526
0.755677
9.71783
1.52576
9.90763
2.3114
10.136
3.11377
10.4011
3.9337
10.7029
4.77172
11.0411
5.62811
11.4151
6.50289
11.824
7.39585
12.267
8.3065
12.7432
9.23406
13.2518
10.1775
13.792
11.1354
14.3631
12.1061
14.9643
13.0877
15.5953
14.0776
16.2552
15.0731
16.9431
16.071
17.6586
17.0678
18.4008
18.0597
19.1687
19.0425
19.9614
20.0117
20.7775
20.9626
21.6156
21.8905
22.4739
22.7907
23.3507
23.6602
24.2445
24.5001
25.1582
25.3168
26.0929
27.0821
26.169
0.735944
8.98188
1.48565
9.15793
2.25045
9.37121
3.03178
9.61976
3.83068
9.90398
4.64788
10.2239
5.48387
10.5791
6.33888
10.969
7.2129
11.393
8.10566
11.8505
9.01658
12.3409
9.94483
12.8637
10.8892
13.4186
11.8484
14.0052
12.8203
14.6234
13.8024
15.273
14.792
15.9535
15.786
16.6646
16.7808
17.4061
17.7721
18.1774
18.7553
18.9782
19.7255
19.8073
20.6773
20.6638
21.6053
21.546
22.5038
22.4521
23.3681
23.3802
24.1962
24.3302
24.9869
25.3022
26.2935
25.7755
0.714289
8.26759
1.44166
8.43056
2.18366
8.62921
2.94196
8.86146
3.71781
9.12812
4.51216
9.42956
5.32571
9.76559
6.1589
10.1358
7.01196
10.54
7.88483
10.9776
8.77718
11.4485
9.6884
11.9525
10.6175
12.4895
11.5633
13.0595
12.5239
13.6627
13.4973
14.2996
14.4806
14.9702
15.4705
15.6747
16.4633
16.4132
17.4546
17.1862
18.4393
17.9934
19.412
18.8347
20.3664
19.7093
21.2964
20.616
22.1952
21.5532
23.0567
22.5188
23.8762
23.5106
24.6503
24.5281
25.5599
25.3839
0.690762
7.57683
1.39391
7.72741
2.11121
7.91192
2.84457
8.1281
3.59546
8.37723
4.36503
8.65999
5.15418
8.97643
5.96361
9.32642
6.79374
9.70984
7.64475
10.1266
8.51658
10.5767
9.40885
11.0603
10.3209
11.5775
11.2516
12.1288
12.1997
12.7147
13.1633
13.336
14.1394
13.9941
15.125
14.6891
16.1161
15.4221
17.1082
16.1941
18.0958
17.0057
19.0729
17.8576
20.0326
18.7496
20.9675
19.6812
21.8697
20.651
22.7315
21.657
23.546
22.6961
24.3079
23.7662
24.8576
25.0102
0.665416
6.91142
1.34253
7.0503
2.03331
7.22113
2.73993
7.42147
3.46406
7.6531
4.20703
7.91702
4.96997
8.21349
5.75376
8.54263
6.55906
8.90453
7.38631
9.29935
8.23568
9.72733
9.10711
10.1888
10.0002
10.6844
10.9143
11.2147
11.8481
11.7808
12.8002
12.3839
13.7683
13.026
14.7491
13.7083
15.7388
14.4325
16.7326
15.2003
17.7249
16.0135
18.709
16.8735
19.677
17.7815
20.6206
18.7377
21.5303
19.7413
22.3966
20.7906
23.2106
21.8821
23.9645
23.0122
24.1723
24.6498
0.638319
6.2731
1.28767
6.40095
1.95025
6.55855
2.62847
6.74325
3.32418
6.9574
4.03889
7.2023
4.77392
7.47847
5.53033
7.78622
6.30899
8.12587
7.11057
8.49778
7.93552
8.90237
8.78409
9.34025
9.65624
9.81222
10.5516
10.3194
11.4694
10.863
12.4085
11.4449
13.3672
12.0673
14.3424
12.7331
15.3305
13.4444
16.3268
14.204
17.3253
15.0149
18.3189
15.8799
19.299
16.8014
20.2557
17.781
21.1781
18.819
22.0545
19.9142
22.8732
21.0633
23.6242
22.2613
23.499
24.2976
0.609563
5.66353
1.22956
5.78095
1.86241
5.9257
2.51076
6.09491
3.17659
6.29156
3.86159
6.51731
4.56719
6.77287
5.29463
7.05878
6.04494
7.37556
6.819
7.72371
7.61755
8.10383
8.44115
8.51666
9.29014
8.96323
10.1646
9.44488
11.0643
9.96337
11.9883
10.5209
12.9354
11.1201
13.9039
11.7646
14.8899
12.4584
15.8889
13.205
16.895
14.0088
17.9006
14.8743
18.8964
15.8056
19.8713
16.8061
20.8123
17.878
21.7052
19.0213
22.5355
20.2331
23.2894
21.5074
22.8339
23.9545
0.579279
5.08425
1.16853
5.1917
1.77036
5.32387
2.38759
5.47767
3.02235
5.6568
3.6764
5.86326
4.35128
6.09798
5.04833
6.36173
5.76872
6.65517
6.51351
6.97892
7.28368
7.33366
8.08012
7.72022
8.9036
8.13975
9.75469
8.59378
10.6337
9.0844
11.5403
9.61423
12.4739
10.1865
13.4332
10.8054
14.4154
11.4761
15.4165
12.2039
16.4305
12.9948
17.45
13.8548
18.465
14.7906
19.4632
15.8079
20.4296
16.9116
21.3469
18.104
22.1968
19.3833
22.961
20.7431
22.1715
23.6233
0.547649
4.53661
1.10502
4.63432
1.67481
4.75408
2.26
4.89249
2.86275
5.05405
3.48489
5.24112
4.12801
5.45487
4.79346
5.69628
5.48251
5.96612
6.19635
6.26508
6.93619
6.59382
7.70325
6.95317
8.49872
7.34427
9.32372
7.76879
10.1791
8.22901
11.0654
8.72792
11.9825
9.26942
12.9297
9.85816
13.9056
10.5002
14.9069
11.2027
15.9283
11.9734
16.9624
12.8207
17.9991
13.7538
19.0253
14.7818
20.0239
15.913
20.9743
17.1535
21.8536
18.504
22.6377
19.9591
21.5046
23.3047
0.514925
4.02168
1.03964
4.10961
1.57672
4.217
2.12924
4.33997
2.69935
4.48394
3.28887
4.65159
3.89937
4.84438
4.53219
5.06345
5.18861
5.3097
5.86993
5.58377
6.57754
5.88621
7.31299
6.21772
8.07789
6.57936
8.8739
6.97278
9.70251
7.4004
10.565
7.86542
11.4621
8.37231
12.3939
8.92633
13.3599
9.53427
14.358
10.2046
15.3843
10.9471
16.4319
11.7731
17.4913
12.6944
18.5488
13.7243
19.5858
14.876
20.5783
16.161
21.4982
17.5841
22.3137
19.1436
20.8235
22.9948
0.481455
3.54023
0.973127
3.61794
1.47719
3.71294
1.99673
3.82043
2.53382
3.94685
3.09021
4.0952
3.6674
4.26719
4.26665
4.4642
4.88923
4.68713
5.5365
4.9365
6.21005
5.21265
6.91171
5.51606
7.64352
5.84755
8.40763
6.20867
9.20615
6.60188
10.0411
7.03045
10.9142
7.49926
11.8263
8.01418
12.7779
8.58272
13.7681
9.21433
14.7948
9.92041
15.8528
10.7151
16.9333
11.6139
18.023
12.6346
19.1028
13.7962
20.1457
15.1181
21.1177
16.612
21.977
18.2843
20.1168
22.6837
0.447702
3.09252
0.906407
3.15924
1.37747
3.24187
1.86397
3.33393
2.36783
3.443
2.89068
3.57234
3.43389
3.72398
3.99865
3.89944
4.58618
4.0996
5.19794
4.32473
5.8357
4.5749
6.50155
4.85021
7.19791
5.15119
7.92737
5.47921
8.69266
5.83659
9.49636
6.22675
10.341
6.65459
11.2285
7.12668
12.1603
7.65095
13.1369
8.23772
14.1578
8.89957
15.2202
9.65263
16.3175
10.5166
17.4373
11.5149
18.5611
12.6723
19.6598
14.0195
20.6937
15.5781
21.6096
17.3684
19.371
22.3554
0.414253
2.67827
0.840478
2.73301
1.27886
2.80349
1.73244
2.88035
2.20291
2.97253
2.69178
3.08347
3.20028
3.21548
3.72955
3.37017
4.28084
3.54831
4.85572
3.74985
5.45617
3.97446
6.08452
4.22186
6.74349
4.49223
7.43602
4.78668
8.16531
5.1073
8.93431
5.45775
9.74617
5.84273
10.6038
6.26904
11.5098
6.74492
12.4662
7.28132
13.4741
7.89173
14.5327
8.59399
15.6391
9.41025
16.7829
10.3711
17.9479
11.5073
19.1033
12.8641
20.2069
14.4744
21.1912
16.3842
18.5729
21.9893
0.381773
2.2965
0.776334
2.33845
1.18254
2.39728
1.6034
2.45949
2.04032
2.53562
2.49468
2.62911
2.96764
2.74252
3.4604
2.87741
3.97433
3.03437
4.51123
3.21295
5.07326
3.41243
5.663
3.63212
6.28332
3.87191
6.93735
4.13264
7.62836
4.41629
8.35976
4.72635
9.1351
5.06739
9.95805
5.44609
10.8323
5.87071
11.7611
6.35244
12.7478
6.90503
13.7935
7.54835
14.8983
8.30547
16.0559
9.21346
17.2548
10.3084
18.4637
11.6552
19.6411
13.297
20.7019
15.3235
17.7091
21.5657
0.350918
1.94558
0.714823
1.97455
1.08951
2.0226
1.47789
2.0711
1.88106
2.13245
2.30036
2.20982
2.73699
2.30589
3.19236
2.42204
3.66817
2.55855
4.16648
2.71464
4.68967
2.88923
5.24044
3.08136
5.82162
3.29073
6.43632
3.51793
7.0878
3.76481
7.77962
4.03453
8.51557
4.33144
9.29978
4.66188
10.1368
5.03371
11.0311
5.45809
11.9878
5.94833
13.01
6.52617
14.1017
7.21378
15.2598
8.05535
16.481
9.08719
17.7348
10.4013
18.9862
12.0456
20.1281
14.1815
16.7652
21.072
0.32219
1.62339
0.656522
1.64021
1.00048
1.67865
1.35673
1.71484
1.72609
1.76308
2.10997
1.82594
2.50982
1.90604
2.92743
2.00443
3.36499
2.12099
3.82483
2.2548
4.30952
2.40455
4.82167
2.56921
5.36398
2.74841
5.93934
2.94258
6.55085
3.15329
7.20201
3.38337
7.89664
3.63681
8.63904
3.91947
9.43433
4.23843
10.2877
4.60468
11.206
5.03006
12.1943
5.53791
13.2611
6.147
14.406
6.91039
15.6352
7.85805
16.9208
9.11572
18.2423
10.7241
19.4661
12.9577
15.7245
20.5068
0.295801
1.32759
0.601702
1.33431
0.91595
1.3644
1.24068
1.39011
1.5766
1.42716
1.9253
1.47725
2.28869
1.54265
2.66904
1.62408
3.06898
1.72106
3.49116
1.83262
3.9382
1.95752
4.41253
2.09487
4.91663
2.24432
5.45304
2.40617
6.02458
2.58175
6.63446
2.7735
7.28646
2.9848
7.98491
3.22102
8.73526
3.48808
9.54317
3.79678
10.4168
4.15639
11.3628
4.59199
12.3937
5.11605
13.5123
5.79179
14.7354
6.635
16.0382
7.81292
17.425
9.33726
18.7329
11.6498
14.5627
19.8946
0.271638
1.05595
0.550408
1.05554
0.83636
1.07845
1.1307
1.09577
1.4343
1.12356
1.74904
1.16251
2.07731
1.21438
2.42183
1.27955
2.78549
1.3574
3.17112
1.447
3.58133
1.5473
4.01854
1.65766
4.48496
1.77789
4.98283
1.9083
5.5146
2.04998
6.08315
2.20495
6.69208
2.37587
7.3456
2.5675
8.04934
2.78434
8.80917
3.03695
9.63441
3.33116
10.5324
3.69397
11.5196
4.12884
12.6015
4.7099
13.8062
5.43034
15.1155
6.5036
16.5642
7.88854
17.9777
10.2363
13.2312
19.3092
0.249402
0.806548
0.502645
0.8023
0.762211
0.818882
1.02798
0.830007
1.3013
0.850233
1.58438
0.87943
1.87984
0.918916
2.19063
0.968762
2.51981
1.02822
2.87028
1.09652
3.24464
1.17295
3.6452
1.2571
4.07409
1.349
4.53336
1.44904
5.02523
1.55811
5.55233
1.67785
6.11804
1.81016
6.72638
1.95917
7.38298
2.12774
8.09387
2.32606
8.86904
2.55599
9.71679
2.84622
10.6563
3.18935
11.6964
3.66977
12.8753
4.25147
14.1922
5.18666
15.703
6.37771
17.2975
8.64187
11.6285
18.9002
0.228905
0.577644
0.458504
0.572701
0.694025
0.583361
0.933676
0.590356
1.1796
0.604308
1.43405
0.624984
1.69976
0.653204
1.97972
0.688797
2.27689
0.731056
2.59402
0.779394
2.9336
0.83336
3.29791
0.892796
3.68904
0.957861
4.10907
1.02901
4.5602
1.10698
5.04499
1.19306
5.56667
1.28848
6.12924
1.3966
6.73814
1.51884
7.39983
1.66436
8.12429
1.83153
8.92171
2.0488
9.81231
2.29875
10.8112
2.67088
11.9617
3.10101
13.2993
3.84906
14.8745
4.80252
16.8267
6.68961
9.558
18.8972
0.210274
0.36737
0.418056
0.364919
0.632097
0.36932
0.848447
0.374006
1.0702
0.382552
1.29951
0.395678
1.53905
0.413664
1.79161
0.436241
2.05982
0.462841
2.34616
0.493058
2.65288
0.52664
2.98211
0.563567
3.33591
0.604055
3.7164
0.648523
4.12587
0.697517
4.56697
0.751953
5.04294
0.812512
5.55785
0.881693
6.11694
0.959747
6.72727
1.05403
7.39819
1.16061
8.14266
1.30434
8.97938
1.46202
9.93362
1.71665
11.047
1.98767
12.3881
2.50793
14.0438
3.1468
16.4667
4.26669
6.86873
19.156
0.193646
0.173724
0.381152
0.177413
0.576304
0.174167
0.772036
0.178275
0.972737
0.181851
1.18025
0.188164
1.39713
0.196782
1.62584
0.207537
1.86859
0.220087
2.12742
0.234226
2.40422
0.249842
2.70083
0.266954
3.01918
0.285711
3.36133
0.306369
3.7296
0.329245
4.12673
0.354822
4.55594
0.383302
5.02139
0.416244
5.52806
0.453076
6.08333
0.49876
6.69559
0.548354
7.37993
0.61999
8.15122
0.690733
9.04533
0.822544
10.0934
0.939628
11.3853
1.21597
13.0169
1.51526
15.5893
1.69426
3.75047
18.7076
0.173724
0.351136
0.525304
0.703579
0.88543
1.07359
1.27038
1.47791
1.698
1.93222
2.18207
2.44902
2.73473
3.0411
3.37035
3.72517
4.10847
4.52472
4.97779
5.47655
6.02491
6.6449
7.33563
8.15817
9.0978
10.3138
11.829
13.5233
17.2738
1.1365
54.1275
1.15048
54.1263
1.1652
54.1255
1.17761
54.1278
1.18805
54.1298
1.2002
54.1281
1.2155
54.1249
1.2306
54.1251
1.24234
54.1285
1.25146
54.1311
1.26164
54.1301
1.27607
54.1258
1.29212
54.1242
1.3058
54.1266
1.31419
54.1318
1.31833
54.1361
1.31996
54.1386
1.32003
54.1402
1.31902
54.1412
1.31733
54.1419
1.31538
54.1422
1.3137
54.1419
1.31288
54.1411
1.31347
54.1396
1.31577
54.1379
1.31963
54.1364
1.32451
54.1354
1.32964
54.1351
1.33454
54.1353
1.33875
54.136
1.3422
54.1368
1.34498
54.1375
1.34715
54.1381
1.34878
54.1386
1.34986
54.1392
1.35036
54.1397
1.35027
54.1403
1.34964
54.1409
1.34854
54.1413
1.34702
54.1418
1.34516
54.1421
1.34295
54.1424
1.34038
54.1428
1.33739
54.1432
1.33396
54.1437
1.33008
54.1441
1.32578
54.1445
1.32104
54.145
1.31593
54.1453
1.31041
54.1458
1.30452
54.1461
1.29825
54.1465
1.29163
54.1469
1.28463
54.1472
1.27726
54.1476
1.26952
54.148
1.26142
54.1483
1.25292
54.1487
1.24401
54.1491
1.23464
54.1496
1.22481
54.1501
1.21451
54.1505
1.20374
54.151
1.19253
54.1514
1.18085
54.1519
1.16874
54.1523
1.15618
54.1528
1.14319
54.1532
1.12974
54.1537
1.1159
54.1541
1.1016
54.1545
1.08686
54.155
1.07177
54.1553
1.05609
54.1559
1.04017
54.1562
1.02371
54.1567
1.00686
54.1571
0.989564
54.1575
0.971796
54.158
0.95365
54.1584
0.935017
54.1589
0.916024
54.1592
0.896528
54.1597
0.876684
54.1601
0.856482
54.1604
0.835947
54.1608
0.815134
54.161
0.793993
54.1614
0.772707
54.1615
0.751295
54.1616
0.72985
54.1617
0.708363
54.1617
0.686845
54.1618
0.665308
54.1618
0.643778
54.1618
0.62225
54.1618
0.600777
54.1617
0.579321
54.1617
0.557952
54.1616
0.536655
54.1615
0.515458
54.1614
0.494386
54.1613
0.473445
54.1612
0.452659
54.161
0.432021
54.1609
0.411567
54.1607
0.391284
54.1605
0.371236
54.1603
0.351403
54.1601
0.331841
54.1598
0.312526
54.1595
0.29355
54.1592
0.275034
54.1587
0.257117
54.1582
0.239782
54.1576
0.223122
54.1569
0.207353
54.156
0.192505
54.1551
0.177956
54.1548
0.163373
54.1548
0.148502
54.1551
0.133199
54.1555
0.117284