/*--------------------------------*- C++ -*----------------------------------*\
| =========                 |                                                 |
| \\      /  F ield         | OpenFOAM: The Open Source CFD Toolbox           |
|  \\    /   O peration     | Version:  5.x                                   |
|   \\  /    A nd           | Web:      www.OpenFOAM.org                      |
|    \\/     M anipulation  |                                                 |
\*---------------------------------------------------------------------------*/
/*   Windows 32 and 64 bit porting by blueCAPE: http://www.bluecape.com.pt   *\
|  Based on Windows porting (2.0.x v4) by Symscape: http://www.symscape.com   |
\*---------------------------------------------------------------------------*/
FoamFile
{
    version     2.0;
    format      ascii;
    class       volVectorField;
    location    "230";
    object      U;
}
// * * * * * * * * * * * * * * * * * * * * * * * * * * * * * * * * * * * * * //

dimensions      [0 1 -1 0 0 0 0];

internalField   nonuniform List<vector> 
43900
(
(1.16162 -0.000729093 -1.70869e-027)
(1.16715 0.00217267 -4.57922e-027)
(1.16973 0.000367169 1.44942e-030)
(1.16839 0.00182948 2.82835e-030)
(1.16973 0.000797504 3.67625e-030)
(1.16989 0.00199901 3.64046e-030)
(1.17013 0.00118728 6.11338e-027)
(1.17049 0.00188928 -1.22066e-026)
(1.17051 0.00167172 9.62376e-030)
(1.17038 0.00180269 -1.21792e-026)
(1.17013 0.00192902 1.22022e-026)
(1.17006 0.00191634 1.1514e-029)
(1.17007 0.0019751 -1.21435e-026)
(1.17009 0.00203052 2.48084e-029)
(1.17008 0.00208008 2.54993e-029)
(1.17004 0.00212294 2.61565e-029)
(1.17006 0.00216258 -2.41821e-026)
(1.17003 0.00220163 5.46937e-029)
(1.17002 0.00223466 2.42101e-026)
(1.17005 0.00226665 2.8391e-029)
(1.17001 0.00230119 2.88556e-029)
(1.17003 0.00232487 2.9302e-029)
(1.17004 0.00235451 2.97136e-029)
(1.17002 0.00238235 3.00977e-029)
(1.17004 0.00240203 3.04726e-029)
(1.17005 0.00243165 -2.39159e-026)
(1.17003 0.00245301 6.23003e-029)
(1.17006 0.00247388 6.29483e-029)
(1.17006 0.00249884 9.54714e-026)
(1.15871 0.0114527 0)
(1.16555 -0.00498782 0)
(1.17147 0.00905411 0)
(1.16654 -0.000213962 0)
(1.16842 0.00617899 0)
(1.16799 0.00267746 0)
(1.16828 0.00488648 0)
(1.16759 0.00455503 0)
(1.1681 0.00461417 0)
(1.16863 0.00533031 0)
(1.16907 0.00527571 0)
(1.16911 0.00556325 0)
(1.16905 0.00583623 0)
(1.16901 0.00602776 0)
(1.16904 0.00620321 0)
(1.16918 0.00637355 0)
(1.16915 0.00653484 0)
(1.16924 0.00667647 0)
(1.16931 0.00681487 0)
(1.16926 0.00694582 0)
(1.16937 0.00704687 0)
(1.16937 0.00716728 0)
(1.16933 0.00726686 0)
(1.16943 0.00734897 0)
(1.16939 0.00745454 0)
(1.16937 0.00752475 0)
(1.16945 0.00760415 0)
(1.16939 0.00768825 0)
(1.16937 0.0077503 0)
(1.10219 0.0321036 0)
(1.14484 -0.0175762 0)
(1.16316 0.0287847 0)
(1.16341 -0.00372826 0)
(1.16648 0.0208595 0)
(1.16443 0.00392245 0)
(1.16589 0.0149891 0)
(1.16625 0.00825826 0)
(1.16644 0.0118147 0)
(1.16619 0.0104555 0)
(1.16616 0.0107497 0)
(1.16656 0.0110182 0)
(1.16687 0.0110719 0)
(1.16716 0.011173 0)
(1.16737 0.0113001 0)
(1.16735 0.0114089 0)
(1.16758 0.0115098 0)
(1.16771 0.0116359 0)
(1.16773 0.0117571 0)
(1.16795 0.0118546 0)
(1.16794 0.0119956 0)
(1.16797 0.0121012 0)
(1.16815 0.0122102 0)
(1.1681 0.0123591 0)
(1.16817 0.0124444 0)
(1.16831 0.012571 0)
(1.16824 0.0127013 0)
(1.16832 0.0127829 0)
(1.16843 0.0129076 1.6781e-027)
(1.04094 0.0200262 0)
(1.08686 -0.00676897 0)
(1.12983 0.0201242 0)
(1.15583 0.00813226 0)
(1.16351 0.0222328 0)
(1.16621 0.0106892 0)
(1.16503 0.0205782 0)
(1.16377 0.0135972 0)
(1.16466 0.0180703 0)
(1.16466 0.0156934 0)
(1.16492 0.0167313 0)
(1.16484 0.0164842 0)
(1.16508 0.0164692 0)
(1.16528 0.0164954 0)
(1.16538 0.0164791 0)
(1.16581 0.0165138 0)
(1.16591 0.0165835 0)
(1.16596 0.0166563 0)
(1.1662 0.0167105 0)
(1.16614 0.0168157 0)
(1.16623 0.0168866 0)
(1.16645 0.0169806 0)
(1.16638 0.01711 0)
(1.16652 0.0171571 0)
(1.16668 0.0172979 0)
(1.1666 0.0174158 0)
(1.16679 0.0174674 0)
(1.16692 0.0176258 0)
(1.16686 0.0177345 1.7886e-027)
(1.00388 0.0101553 3.58369e-027)
(1.03938 -0.000912755 0)
(1.07624 0.0107854 0)
(1.11449 0.012846 0)
(1.14481 0.0182515 0)
(1.1604 0.0172664 0)
(1.16373 0.0227072 0)
(1.16472 0.0184221 0)
(1.16375 0.0215361 0)
(1.1638 0.0201104 0)
(1.16379 0.0205992 0)
(1.16417 0.0208099 0)
(1.16412 0.0207621 0)
(1.16418 0.0207701 0)
(1.16443 0.0208731 0)
(1.16419 0.0209771 0)
(1.16413 0.0210941 0)
(1.16435 0.0211411 0)
(1.16426 0.0212835 0)
(1.16443 0.021374 0)
(1.16459 0.0214691 0)
(1.16445 0.0216388 0)
(1.16466 0.0216777 0)
(1.16478 0.0218488 0)
(1.16471 0.0219758 0)
(1.16497 0.0220327 0)
(1.165 0.02225 0)
(1.16491 0.0223333 0)
(1.16516 0.0224219 -7.52733e-027)
(0.976641 0.00681304 -3.74053e-027)
(1.00656 0.000627716 0)
(1.03782 0.0075295 0)
(1.07026 0.0109285 0)
(1.10274 0.0147633 0)
(1.13314 0.0180335 0)
(1.15352 0.0219717 0)
(1.16169 0.0219942 0)
(1.16284 0.0242936 0)
(1.16266 0.0227288 0)
(1.16272 0.0240284 0)
(1.16269 0.023854 0)
(1.16288 0.0240711 0)
(1.16285 0.024341 0)
(1.16242 0.0245118 0)
(1.16266 0.02476 0)
(1.16302 0.0249056 0)
(1.16274 0.0251884 0)
(1.1628 0.0253552 0)
(1.16286 0.025511 0)
(1.1627 0.0258047 0)
(1.16303 0.0258825 0)
(1.1631 0.0261839 0)
(1.16297 0.0263694 0)
(1.16321 0.0264799 0)
(1.16315 0.0268365 0)
(1.16314 0.026901 0)
(1.16351 0.0270919 0)
(1.16347 0.0274287 3.98768e-027)
(0.954024 0.0052322 0)
(0.980378 0.00136376 0)
(1.00798 0.00633832 0)
(1.03666 0.0095037 0)
(1.0658 0.0127827 0)
(1.09474 0.0163613 0)
(1.12281 0.0200813 0)
(1.14606 0.0229096 0)
(1.15747 0.0255457 0)
(1.16062 0.0260045 0)
(1.16062 0.0260091 0)
(1.16072 0.0268707 0)
(1.16048 0.027005 0)
(1.1605 0.027374 0)
(1.16084 0.0278926 0)
(1.16071 0.0280739 0)
(1.16017 0.0285769 0)
(1.16044 0.0287863 0)
(1.16078 0.0291278 0)
(1.16062 0.0295953 0)
(1.16094 0.0297511 0)
(1.16079 0.0302203 0)
(1.16066 0.0304619 0)
(1.16104 0.0306814 0)
(1.16105 0.0312149 0)
(1.16119 0.0312785 0)
(1.16148 0.0316642 0)
(1.16125 0.0320961 0)
(1.16126 0.0321651 0)
(0.933238 0.0044009 0)
(0.957272 0.00184057 0)
(0.982461 0.00592026 0)
(1.00863 0.00892602 0)
(1.03541 0.0119268 0)
(1.06235 0.0151772 0)
(1.08895 0.018678 0)
(1.11443 0.0221972 0)
(1.1376 0.0254743 0)
(1.15203 0.0277892 0)
(1.15694 0.0295046 0)
(1.1571 0.0293136 0)
(1.15715 0.0301307 0)
(1.15705 0.0305038 0)
(1.15705 0.0309557 0)
(1.15706 0.031591 0)
(1.15766 0.0318938 0)
(1.15768 0.032356 0)
(1.15713 0.0329834 0)
(1.15746 0.0331654 0)
(1.15741 0.0338691 0)
(1.15764 0.034129 0)
(1.15807 0.0345953 0)
(1.15793 0.0352016 0)
(1.1579 0.0353683 0)
(1.15804 0.0359968 0)
(1.15794 0.036417 0)
(1.1583 0.0365804 0)
(1.15887 0.0372109 0)
(0.913672 0.00380419 0)
(0.935949 0.00224879 0)
(0.959299 0.00579971 0)
(0.98357 0.00872949 0)
(1.00848 0.0116197 0)
(1.0337 0.0146828 0)
(1.05889 0.0179523 0)
(1.08359 0.0213743 0)
(1.10728 0.0248535 0)
(1.12927 0.0280703 0)
(1.14566 0.0308201 0)
(1.15199 0.0327328 0)
(1.15212 0.0327844 0)
(1.1524 0.0336685 0)
(1.15216 0.0343808 0)
(1.15257 0.0346669 0)
(1.15245 0.0354681 0)
(1.15235 0.0360071 0)
(1.15309 0.0364022 0)
(1.15312 0.0372961 0)
(1.15329 0.0375417 0)
(1.15336 0.0381872 0)
(1.15323 0.0389079 0)
(1.15337 0.0391656 0)
(1.15376 0.0400076 0)
(1.15391 0.0403925 0)
(1.15447 0.040776 0)
(1.15455 0.0415643 0)
(1.15419 0.041991 0)
(0.89477 0.00326928 0)
(0.915759 0.00261895 0)
(0.937751 0.00582848 0)
(0.960601 0.00871358 0)
(0.984077 0.0115498 0)
(1.00793 0.0145099 0)
(1.03188 0.0176349 0)
(1.05563 0.0208989 0)
(1.07885 0.0242657 0)
(1.10109 0.0276663 0)
(1.12168 0.0308994 0)
(1.13898 0.033761 0)
(1.14615 0.035986 0)
(1.14629 0.036191 0)
(1.14692 0.0372344 0)
(1.14659 0.0380944 0)
(1.14679 0.038517 0)
(1.14733 0.0393074 0)
(1.14725 0.0402501 0)
(1.14739 0.040561 0)
(1.14754 0.0415919 0)
(1.14755 0.0423057 0)
(1.14789 0.0426429 0)
(1.14821 0.0436328 0)
(1.14856 0.0440749 0)
(1.14886 0.0446624 0)
(1.1486 0.045648 0)
(1.14857 0.0459945 0)
(1.14938 0.0466389 -1.04764e-026)
(0.876446 0.00309818 0)
(0.896379 0.00288004 0)
(0.917301 0.00600771 0)
(0.939051 0.00891806 0)
(0.961429 0.0117695 0)
(0.984216 0.0147145 0)
(1.00719 0.0177962 0)
(1.0301 0.0209966 0)
(1.0527 0.0242905 0)
(1.07468 0.0276512 0)
(1.09563 0.0310251 0)
(1.11489 0.0342596 0)
(1.13192 0.0371907 0)
(1.13982 0.0396305 0)
(1.13995 0.0400014 0)
(1.14071 0.041082 0)
(1.14091 0.0422058 0)
(1.14075 0.0428516 0)
(1.14099 0.043542 0)
(1.14107 0.0448517 0)
(1.14122 0.0454384 0)
(1.14221 0.0459167 0)
(1.14256 0.0473573 0)
(1.14285 0.0478924 0)
(1.1425 0.0486394 0)
(1.14239 0.0498203 0)
(1.14314 0.0500816 0)
(1.14448 0.050888 0)
(1.14483 0.0518445 1.1077e-026)
(0.858262 0.00304027 0)
(0.877307 0.00318635 0)
(0.897324 0.00635764 0)
(0.918163 0.00937941 0)
(0.939643 0.0123377 0)
(0.961571 0.0153724 0)
(0.983744 0.0185273 0)
(1.00596 0.0217883 0)
(1.028 0.0251347 0)
(1.04963 0.0285468 0)
(1.07059 0.0319985 0)
(1.09051 0.0354361 0)
(1.10888 0.03873 0)
(1.12516 0.0417467 0)
(1.13313 0.0444237 0)
(1.13289 0.0449054 0)
(1.13366 0.0461827 0)
(1.13466 0.0471509 0)
(1.13442 0.0485459 0)
(1.13499 0.0491187 0)
(1.136 0.050057 0)
(1.13547 0.0516464 0)
(1.13521 0.0520689 0)
(1.13572 0.0529344 0)
(1.13709 0.0543557 0)
(1.13847 0.0546839 0)
(1.13921 0.0558689 0)
(1.13825 0.0571585 0)
(1.13788 0.0575648 1.20906e-026)
(0.839751 0.00297901 0)
(0.858027 0.00356075 0)
(0.877265 0.00683184 0)
(0.897322 0.010018 0)
(0.918028 0.0131455 0)
(0.939211 0.0163394 0)
(0.96069 0.0196428 0)
(0.982281 0.0230449 0)
(1.0038 0.0265282 0)
(1.02505 0.0300766 0)
(1.04583 0.0336714 0)
(1.06588 0.0372858 0)
(1.0849 0.0408674 0)
(1.10238 0.0442899 0)
(1.11788 0.0475062 0)
(1.12573 0.0502296 0)
(1.12558 0.0509408 0)
(1.12519 0.0525131 0)
(1.12665 0.0531643 0)
(1.12757 0.0546391 0)
(1.12705 0.0562191 0)
(1.12783 0.0564475 0)
(1.13018 0.0580428 0)
(1.13061 0.059601 0)
(1.12992 0.0600075 0)
(1.12975 0.0614912 0)
(1.12969 0.062576 0)
(1.13141 0.0629978 0)
(1.13409 0.0644746 -1.27983e-026)
(0.820882 0.00295132 0)
(0.838455 0.00395162 0)
(0.856982 0.00736331 0)
(0.876343 0.0107398 0)
(0.896374 0.014065 0)
(0.916903 0.0174486 0)
(0.93777 0.020932 0)
(0.958808 0.0245066 0)
(0.979849 0.0281565 0)
(1.00072 0.031868 0)
(1.02126 0.0356256 0)
(1.04127 0.03941 0)
(1.06052 0.0431925 0)
(1.07872 0.0469164 0)
(1.09542 0.0504681 0)
(1.11014 0.053865 0)
(1.11706 0.0565483 0)
(1.11808 0.057667 0)
(1.118 0.0592397 0)
(1.11818 0.0603994 0)
(1.1198 0.0613751 0)
(1.12019 0.0635368 0)
(1.11882 0.064574 0)
(1.11904 0.065224 0)
(1.12172 0.0670857 0)
(1.12365 0.0680485 0)
(1.12508 0.0692735 0)
(1.12449 0.0706148 0)
(1.12327 0.0718985 -1.4074e-026)
(0.801627 0.00296045 0)
(0.818561 0.0043684 0)
(0.836446 0.00796617 0)
(0.855169 0.011561 0)
(0.874597 0.015115 0)
(0.894563 0.0187236 0)
(0.914899 0.0224228 0)
(0.935458 0.0262059 0)
(0.956086 0.0300582 0)
(0.976629 0.033967 0)
(0.996936 0.037919 0)
(1.01685 0.0418978 0)
(1.03618 0.0458826 0)
(1.05473 0.0498425 0)
(1.0722 0.0537168 0)
(1.08821 0.0574196 0)
(1.10187 0.0609004 0)
(1.10773 0.0639034 0)
(1.10856 0.0648588 0)
(1.10853 0.0669798 0)
(1.10834 0.0687563 0)
(1.10984 0.0692224 0)
(1.11282 0.0712981 0)
(1.11439 0.0731254 0)
(1.11355 0.0740664 0)
(1.11222 0.0757413 0)
(1.11271 0.0772529 0)
(1.11534 0.0783112 0)
(1.11897 0.0797421 1.49102e-026)
(0.781882 0.00300642 0)
(0.798221 0.00481535 0)
(0.815522 0.00864439 0)
(0.833667 0.0124928 0)
(0.852531 0.0163058 0)
(0.871984 0.0201743 0)
(0.891862 0.0241297 0)
(0.912003 0.0281619 0)
(0.932272 0.0322581 0)
(0.952529 0.0364063 0)
(0.972634 0.040594 0)
(0.992447 0.0448069 0)
(1.01182 0.0490276 0)
(1.03059 0.0532342 0)
(1.04855 0.057392 0)
(1.06544 0.0614341 0)
(1.08089 0.0652819 0)
(1.09347 0.0688947 0)
(1.09763 0.0719624 0)
(1.09929 0.0729162 0)
(1.10215 0.0746783 0)
(1.10228 0.0770833 0)
(1.10108 0.0782849 0)
(1.10074 0.0799598 0)
(1.10273 0.0819713 0)
(1.10644 0.0833837 0)
(1.10842 0.0852544 0)
(1.10796 0.0866762 0)
(1.10702 0.0883003 0)
(0.761631 0.00308383 0)
(0.777409 0.00528409 0)
(0.794164 0.00937896 0)
(0.811782 0.0135098 0)
(0.830139 0.0176098 0)
(0.849108 0.0217614 0)
(0.868561 0.0259997 0)
(0.888343 0.0303128 0)
(0.908301 0.0346838 0)
(0.928311 0.0391024 0)
(0.948242 0.0435563 0)
(0.967967 0.048032 0)
(0.987356 0.0525139 0)
(1.00627 0.0569841 0)
(1.02455 0.0614195 0)
(1.042 0.0657811 0)
(1.05838 0.0699855 0)
(1.07344 0.0740357 0)
(1.08494 0.0776633 0)
(1.08905 0.0804763 0)
(1.08889 0.0824047 0)
(1.08914 0.083967 0)
(1.09275 0.0865701 0)
(1.09527 0.0885795 0)
(1.09495 0.0897414 0)
(1.09419 0.0915446 0)
(1.09494 0.0934601 0)
(1.09802 0.0946134 0)
(1.10235 0.0973147 0)
(0.740872 0.00319674 0)
(0.756113 0.00577938 0)
(0.772349 0.0101756 0)
(0.789475 0.0146198 0)
(0.80737 0.0190385 0)
(0.825905 0.0235073 0)
(0.844955 0.0280579 0)
(0.864401 0.0326852 0)
(0.884093 0.037371 0)
(0.903891 0.0421 0)
(0.923679 0.0468626 0)
(0.943338 0.0516452 0)
(0.962746 0.0564329 0)
(0.98178 0.0612097 0)
(1.00031 0.0659569 0)
(1.01817 0.0706496 0)
(1.03519 0.0752426 0)
(1.05115 0.0796523 0)
(1.0661 0.0840244 0)
(1.07507 0.0875703 0)
(1.07873 0.0904408 0)
(1.08062 0.0929168 0)
(1.07952 0.0941247 0)
(1.08014 0.0964534 0)
(1.08426 0.0990468 0)
(1.08813 0.101153 0)
(1.08997 0.103928 0)
(1.08831 0.105195 0)
(1.08825 0.107265 0)
(0.719596 0.00334356 4.28684e-026)
(0.734314 0.00629772 0)
(0.750051 0.0110263 0)
(0.766703 0.0158115 0)
(0.784158 0.0205755 0)
(0.802291 0.0253906 0)
(0.820975 0.0302858 0)
(0.840089 0.0352537 0)
(0.85952 0.0402827 0)
(0.879128 0.0453567 0)
(0.898781 0.05046 0)
(0.918375 0.0555826 0)
(0.937796 0.060709 0)
(0.956929 0.0658236 0)
(0.975656 0.0709093 0)
(0.993844 0.075946 0)
(1.01135 0.0809022 0)
(1.028 0.0857137 0)
(1.04371 0.0903937 0)
(1.05751 0.0949653 0)
(1.06452 0.0988944 0)
(1.06692 0.100415 0)
(1.07189 0.104094 0)
(1.07362 0.106421 0)
(1.07193 0.107706 0)
(1.07128 0.110213 0)
(1.07338 0.112381 0)
(1.07908 0.114848 0)
(1.08332 0.118037 0)
(0.697843 0.003523 1.46799e-027)
(0.712049 0.00683618 0)
(0.727298 0.011924 0)
(0.743493 0.0170749 0)
(0.760526 0.0222073 0)
(0.778277 0.0273924 0)
(0.796624 0.0326584 0)
(0.815444 0.0379951 0)
(0.834622 0.0433893 0)
(0.854049 0.0488294 0)
(0.873597 0.0543001 0)
(0.893147 0.0597845 0)
(0.912595 0.0652701 0)
(0.931834 0.0707398 0)
(0.950756 0.0761763 0)
(0.969242 0.081561 0)
(0.987167 0.0868705 0)
(1.00439 0.0920623 0)
(1.02078 0.0970626 0)
(1.03628 0.101978 0)
(1.04894 0.10653 0)
(1.05508 0.110516 0)
(1.05514 0.112406 0)
(1.05658 0.115705 0)
(1.06216 0.118755 0)
(1.06511 0.122126 0)
(1.06633 0.124133 0)
(1.06523 0.125563 0)
(1.06649 0.127963 0)
(0.675639 0.00373852 -4.9586e-026)
(0.689338 0.00740201 0)
(0.704108 0.0128797 0)
(0.719854 0.0184255 0)
(0.736475 0.0239548 0)
(0.753856 0.0295399 0)
(0.77188 0.0352089 0)
(0.790427 0.0409513 0)
(0.80938 0.0467503 0)
(0.828633 0.0525953 0)
(0.848077 0.058472 0)
(0.867595 0.0643648 0)
(0.887085 0.0702577 0)
(0.906442 0.0761344 0)
(0.925565 0.0819776 0)
(0.944345 0.0877685 0)
(0.962668 0.0934872 0)
(0.980406 0.0991063 0)
(0.99743 0.104574 0)
(1.01367 0.109861 0)
(1.02911 0.115103 0)
(1.0379 0.119214 0)
(1.0451 0.124335 0)
(1.04624 0.126037 0)
(1.04525 0.128716 0)
(1.04788 0.131167 0)
(1.05224 0.135018 0)
(1.05896 0.139141 0)
(1.06199 0.141417 0)
(0.653001 0.00398789 0)
(0.666196 0.00799656 0)
(0.680488 0.0138944 0)
(0.695789 0.0198646 0)
(0.712 0.0258196 0)
(0.729013 0.0318346 0)
(0.746714 0.0379387 0)
(0.764989 0.0441209 0)
(0.783725 0.0503642 0)
(0.802809 0.0566535 0)
(0.822145 0.0629782 0)
(0.841627 0.0693229 0)
(0.861145 0.0756685 0)
(0.880604 0.0820013 0)
(0.899905 0.0883025 0)
(0.918949 0.0945538 0)
(0.937627 0.100736 0)
(0.955828 0.106825 0)
(0.973431 0.112784 0)
(0.990342 0.118552 0)
(1.00677 0.124215 0)
(1.02034 0.129822 0)
(1.02695 0.133503 0)
(1.03166 0.137861 0)
(1.03816 0.141911 0)
(1.03911 0.144367 0)
(1.03901 0.145937 0)
(1.04005 0.148564 0)
(1.04384 0.152315 0)
(0.629955 0.00427007 -6.09569e-026)
(0.642644 0.00862237 0)
(0.656458 0.0149708 0)
(0.671312 0.0213952 0)
(0.687112 0.0278051 0)
(0.703753 0.0342807 0)
(0.721127 0.0408523 0)
(0.739124 0.0475086 0)
(0.757635 0.0542319 0)
(0.776551 0.0610069 0)
(0.795771 0.0678203 0)
(0.815199 0.0746565 0)
(0.834734 0.0815005 0)
(0.854279 0.0883334 0)
(0.87374 0.0951375 0)
(0.89302 0.101894 0)
(0.91202 0.108583 0)
(0.930632 0.115182 0)
(0.948747 0.121663 0)
(0.966261 0.127966 0)
(0.983231 0.134139 0)
(0.999285 0.139797 0)
(1.0122 0.146636 0)
(1.01652 0.148714 0)
(1.01865 0.152666 0)
(1.02576 0.156925 0)
(1.02998 0.161292 0)
(1.03378 0.166231 0)
(1.03333 0.166844 5.65409e-026)
(0.606529 0.00458012 -1.87299e-027)
(0.61871 0.00927679 0)
(0.632042 0.0161032 0)
(0.646444 0.0230086 0)
(0.661824 0.0299001 0)
(0.678085 0.036864 0)
(0.695123 0.0439328 0)
(0.712831 0.0510948 0)
(0.731105 0.0583319 0)
(0.749839 0.0656284 0)
(0.768934 0.0729685 0)
(0.788294 0.0803377 0)
(0.807829 0.08772 0)
(0.827442 0.0950956 0)
(0.847042 0.102447 0)
(0.866539 0.109754 0)
(0.885839 0.116995 0)
(0.904841 0.124148 0)
(0.923441 0.131187 0)
(0.941531 0.138068 0)
(0.959046 0.144777 0)
(0.976058 0.151246 0)
(0.991548 0.157181 0)
(1.00291 0.163923 0)
(1.00816 0.167928 0)
(1.00752 0.170689 0)
(1.01069 0.172963 0)
(1.01793 0.178414 0)
(1.02423 0.184443 1.13302e-027)
(0.582768 0.00491363 7.04281e-026)
(0.594439 0.00995686 0)
(0.607284 0.0172854 0)
(0.621226 0.0246949 0)
(0.636178 0.0320909 0)
(0.652047 0.0395672 0)
(0.668733 0.0471589 0)
(0.686136 0.0548537 0)
(0.704154 0.0626333 0)
(0.722687 0.0704812 0)
(0.741638 0.0783816 0)
(0.760916 0.0863197 0)
(0.780429 0.0942765 0)
(0.800085 0.102233 0)
(0.819801 0.110172 0)
(0.839488 0.118071 0)
(0.859058 0.12591 0)
(0.878419 0.133666 0)
(0.897478 0.141312 0)
(0.916139 0.148809 0)
(0.934337 0.156102 0)
(0.95226 0.16319 0)
(0.969275 0.170392 0)
(0.981702 0.175285 0)
(0.991762 0.181444 0)
(0.999888 0.188111 0)
(0.998413 0.190045 0)
(1.00052 0.192126 0)
(1.00711 0.196785 -6.48268e-026)
(0.558729 0.00526613 0)
(0.569886 0.0106595 0)
(0.582239 0.018511 0)
(0.595712 0.0264445 0)
(0.610226 0.0343647 0)
(0.62569 0.0423743 0)
(0.64201 0.0505109 0)
(0.659091 0.0587619 0)
(0.676835 0.0671083 0)
(0.695146 0.0755334 0)
(0.713931 0.0840213 0)
(0.7331 0.0925549 0)
(0.752566 0.101115 0)
(0.772243 0.109685 0)
(0.792046 0.118242 0)
(0.811893 0.126765 0)
(0.831699 0.135233 0)
(0.851379 0.143621 0)
(0.870844 0.151907 0)
(0.890008 0.160061 0)
(0.908814 0.168026 0)
(0.927388 0.175694 0)
(0.946518 0.18331 0)
(0.96245 0.191795 0)
(0.970692 0.1944 0)
(0.980155 0.202438 0)
(0.990622 0.206791 0)
(0.991748 0.211843 0)
(0.994471 0.214952 0)
(0.534475 0.00563343 0)
(0.545116 0.0113816 0)
(0.556971 0.0197738 0)
(0.569969 0.0282479 0)
(0.584032 0.0367092 0)
(0.599077 0.04527 0)
(0.615016 0.0539708 0)
(0.631756 0.0627988 0)
(0.649205 0.0717344 0)
(0.667273 0.0807609 0)
(0.685869 0.0898618 0)
(0.704906 0.0990191 0)
(0.724302 0.108214 0)
(0.743973 0.117427 0)
(0.763837 0.126636 0)
(0.783816 0.135819 0)
(0.803829 0.144953 0)
(0.823793 0.154014 0)
(0.843625 0.162975 0)
(0.863241 0.171813 0)
(0.88257 0.180496 0)
(0.901627 0.188994 0)
(0.920676 0.196883 0)
(0.941494 0.205661 0)
(0.954877 0.214401 0)
(0.961416 0.216641 0)
(0.970412 0.223544 0)
(0.976892 0.226897 0)
(0.986131 0.234322 7.65723e-026)
(0.510073 0.00601136 0)
(0.520198 0.01212 0)
(0.531551 0.0210673 0)
(0.544065 0.0300951 0)
(0.557667 0.0391112 0)
(0.572279 0.0482381 0)
(0.587818 0.0575194 0)
(0.604197 0.0669421 0)
(0.62133 0.0764864 0)
(0.639129 0.0861354 0)
(0.657509 0.0958724 0)
(0.676388 0.105679 0)
(0.695684 0.115536 0)
(0.715318 0.125422 0)
(0.735214 0.135316 0)
(0.755294 0.145193 0)
(0.775482 0.155029 0)
(0.795699 0.164798 0)
(0.815869 0.174474 0)
(0.835913 0.184024 0)
(0.85576 0.193416 0)
(0.875372 0.202628 0)
(0.894746 0.211679 0)
(0.914218 0.219692 0)
(0.936117 0.229301 0)
(0.947731 0.238157 0)
(0.955838 0.239588 0)
(0.959811 0.24678 0)
(0.966814 0.249577 1.07376e-027)
(0.485597 0.00639571 0)
(0.495206 0.0128708 0)
(0.506055 0.0223841 0)
(0.518077 0.0319752 0)
(0.531207 0.0415561 0)
(0.545372 0.0512603 0)
(0.560493 0.0611346 0)
(0.576491 0.0711657 0)
(0.593283 0.0813339 0)
(0.610787 0.0916222 0)
(0.628922 0.102014 0)
(0.647611 0.112491 0)
(0.666777 0.123031 0)
(0.686343 0.133615 0)
(0.706235 0.144219 0)
(0.726381 0.154818 0)
(0.746708 0.165387 0)
(0.767141 0.175899 0)
(0.78761 0.186325 0)
(0.808043 0.196636 0)
(0.828383 0.206793 0)
(0.848602 0.216754 0)
(0.868715 0.226487 0)
(0.888774 0.236306 0)
(0.908166 0.244151 0)
(0.930565 0.254569 0)
(0.941998 0.263082 0)
(0.948737 0.264301 0)
(0.953875 0.272137 -1.75587e-025)
(0.461123 0.00678251 0)
(0.47022 0.0136302 0)
(0.480563 0.023717 0)
(0.492088 0.0338769 0)
(0.504736 0.044029 0)
(0.518439 0.054318 0)
(0.533126 0.0647937 0)
(0.548721 0.0754428 0)
(0.565149 0.0862454 0)
(0.582332 0.097185 0)
(0.600195 0.108245 0)
(0.618665 0.119406 0)
(0.637668 0.130647 0)
(0.657131 0.141945 0)
(0.676985 0.153277 0)
(0.697161 0.164618 0)
(0.717589 0.175939 0)
(0.738201 0.187213 0)
(0.758927 0.19841 0)
(0.779701 0.2095 0)
(0.800467 0.22045 0)
(0.821199 0.231216 0)
(0.841936 0.24174 0)
(0.862914 0.252007 0)
(0.884801 0.262626 0)
(0.902125 0.270358 0)
(0.925336 0.280588 0)
(0.934995 0.288973 0)
(0.942011 0.289968 -9.2461e-028)
(0.43673 0.00716817 0)
(0.445319 0.0143948 0)
(0.455156 0.0250593 0)
(0.46618 0.0357905 0)
(0.478337 0.0465168 0)
(0.491566 0.057395 0)
(0.505802 0.0684773 0)
(0.520976 0.0797505 0)
(0.537017 0.0911949 0)
(0.553855 0.102794 0)
(0.571417 0.114532 0)
(0.589637 0.126388 0)
(0.608447 0.138343 0)
(0.627779 0.150372 0)
(0.647564 0.162447 0)
(0.667739 0.174543 0)
(0.688238 0.186632 0)
(0.708996 0.198682 0)
(0.729947 0.21066 0)
(0.751028 0.222535 0)
(0.772181 0.234274 0)
(0.793366 0.245844 0)
(0.814594 0.257197 0)
(0.835994 0.268296 0)
(0.858642 0.279114 0)
(0.882235 0.290471 0)
(0.898425 0.298746 0)
(0.919191 0.306845 0)
(0.928372 0.316108 1.00429e-025)
(0.412491 0.00754941 0)
(0.42058 0.0151618 0)
(0.429914 0.0264054 0)
(0.440435 0.0377073 0)
(0.452094 0.0490086 0)
(0.464838 0.0604778 0)
(0.478609 0.0721696 0)
(0.493344 0.0840709 0)
(0.508977 0.0961627 0)
(0.525444 0.108429 0)
(0.54268 0.120853 0)
(0.560622 0.133416 0)
(0.579208 0.146096 0)
(0.598376 0.158866 0)
(0.618063 0.171701 0)
(0.638208 0.184571 0)
(0.658751 0.197445 0)
(0.679629 0.21029 0)
(0.700781 0.223071 0)
(0.722146 0.235752 0)
(0.743665 0.248295 0)
(0.765291 0.260667 0)
(0.786998 0.272833 0)
(0.808815 0.28476 0)
(0.831295 0.29646 0)
(0.855791 0.308048 0)
(0.88052 0.319541 0)
(0.897502 0.329217 0)
(0.913169 0.333604 1.08127e-025)
(0.388481 0.00792308 0)
(0.39608 0.0159284 0)
(0.404916 0.0277498 0)
(0.414932 0.0396192 0)
(0.426088 0.0514936 0)
(0.438337 0.0635532 0)
(0.451629 0.0758552 0)
(0.465905 0.0883867 0)
(0.481109 0.10113 0)
(0.497181 0.114069 0)
(0.514063 0.127188 0)
(0.5317 0.140468 0)
(0.550032 0.153884 0)
(0.569007 0.167412 0)
(0.588565 0.181024 0)
(0.608649 0.194688 0)
(0.629205 0.208371 0)
(0.650177 0.222037 0)
(0.671505 0.235647 0)
(0.693133 0.249161 0)
(0.715003 0.262537 0)
(0.737061 0.275733 0)
(0.759268 0.288712 0)
(0.781605 0.301431 0)
(0.804196 0.313889 0)
(0.82823 0.326349 0)
(0.854076 0.3383 0)
(0.880803 0.350564 0)
(0.896482 0.359192 -1.14755e-025)
(0.36477 0.00828594 0)
(0.37189 0.0166914 0)
(0.380234 0.0290864 0)
(0.389747 0.0415172 0)
(0.400395 0.05396 0)
(0.412141 0.0666071 0)
(0.424939 0.0795175 0)
(0.43874 0.0926788 0)
(0.453492 0.106074 0)
(0.469145 0.11969 0)
(0.485646 0.133511 0)
(0.502946 0.147517 0)
(0.520995 0.161685 0)
(0.539743 0.175989 0)
(0.559137 0.1904 0)
(0.579128 0.204883 0)
(0.599667 0.219402 0)
(0.620702 0.233919 0)
(0.642181 0.248391 0)
(0.664049 0.262773 0)
(0.686253 0.277017 0)
(0.708738 0.291078 0)
(0.731456 0.304907 0)
(0.754371 0.318459 0)
(0.777482 0.331676 0)
(0.801342 0.344733 0)
(0.826648 0.357715 0)
(0.855113 0.370669 0)
(0.881902 0.382415 1.22394e-025)
(0.341424 0.00863469 0)
(0.34808 0.0174472 0)
(0.35594 0.0304085 0)
(0.364951 0.0433914 0)
(0.375088 0.0563952 0)
(0.386322 0.0696239 0)
(0.398614 0.0831382 0)
(0.411922 0.0969268 0)
(0.426202 0.110975 0)
(0.441408 0.12527 0)
(0.457498 0.139798 0)
(0.474428 0.154541 0)
(0.492154 0.169474 0)
(0.510639 0.184576 0)
(0.529835 0.199811 0)
(0.549697 0.215139 0)
(0.570185 0.230527 0)
(0.591253 0.245931 0)
(0.612854 0.261304 0)
(0.634941 0.276595 0)
(0.657462 0.291752 0)
(0.680364 0.30672 0)
(0.703598 0.321443 0)
(0.727117 0.335868 0)
(0.750889 0.349922 0)
(0.775105 0.363631 0)
(0.800371 0.377067 0)
(0.827503 0.3908 0)
(0.859037 0.404163 -2.59262e-025)
(0.318507 0.00896604 0)
(0.324714 0.0181914 0)
(0.332101 0.0317082 0)
(0.340614 0.0452302 0)
(0.350238 0.0587844 0)
(0.360952 0.072586 0)
(0.372725 0.0866968 0)
(0.385522 0.101108 0)
(0.399305 0.115806 0)
(0.414038 0.130781 0)
(0.429685 0.146023 0)
(0.446208 0.161511 0)
(0.463575 0.177225 0)
(0.481752 0.193139 0)
(0.50071 0.209217 0)
(0.520404 0.225423 0)
(0.540801 0.241717 0)
(0.561865 0.25805 0)
(0.583557 0.274371 0)
(0.605836 0.290623 0)
(0.628657 0.306745 0)
(0.651971 0.322672 0)
(0.675728 0.338339 0)
(0.699877 0.353678 0)
(0.724371 0.368624 0)
(0.749262 0.383093 0)
(0.774857 0.397233 0)
(0.801617 0.410852 0)
(0.832407 0.425655 5.8404e-028)
(0.29608 0.00927659 0)
(0.301855 0.0189185 0)
(0.30878 0.0329757 0)
(0.3168 0.04702 0)
(0.325909 0.06111 0)
(0.336097 0.0754716 0)
(0.347338 0.090168 0)
(0.359605 0.105192 0)
(0.372868 0.120534 0)
(0.387099 0.136187 0)
(0.402268 0.152142 0)
(0.418348 0.168383 0)
(0.435315 0.184889 0)
(0.453142 0.201631 0)
(0.47181 0.218581 0)
(0.491288 0.235702 0)
(0.511549 0.252942 0)
(0.532567 0.270252 0)
(0.554313 0.287576 0)
(0.576755 0.304849 0)
(0.599856 0.322 0)
(0.623574 0.338955 0)
(0.647863 0.355632 0)
(0.672671 0.37195 0)
(0.697946 0.387831 0)
(0.723671 0.403173 0)
(0.74998 0.418011 0)
(0.777016 0.432299 0)
(0.806495 0.446184 1.1028e-027)
(0.274202 0.00956293 0)
(0.279563 0.0196219 0)
(0.286039 0.0341997 0)
(0.293571 0.0487443 0)
(0.302166 0.063351 0)
(0.31182 0.0782555 0)
(0.322517 0.0935219 0)
(0.334236 0.109146 0)
(0.346955 0.125121 0)
(0.360652 0.141447 0)
(0.375308 0.158114 0)
(0.390904 0.175111 0)
(0.407422 0.192418 0)
(0.424849 0.21001 0)
(0.443173 0.227863 0)
(0.462382 0.245928 0)
(0.482453 0.264156 0)
(0.503375 0.282498 0)
(0.52513 0.300889 0)
(0.547698 0.319256 0)
(0.571054 0.337518 0)
(0.595165 0.355586 0)
(0.619992 0.373363 0)
(0.645487 0.390748 0)
(0.671596 0.407642 0)
(0.698272 0.423937 0)
(0.725544 0.439549 0)
(0.753447 0.454609 0)
(0.782255 0.468418 1.5146e-025)
(0.252929 0.00982161 0)
(0.257897 0.0202933 0)
(0.263937 0.0353663 0)
(0.270988 0.050384 0)
(0.279068 0.0654832 0)
(0.288183 0.0809085 0)
(0.298324 0.0967246 0)
(0.309476 0.11293 0)
(0.321626 0.129526 0)
(0.334759 0.146512 0)
(0.348864 0.163887 0)
(0.363931 0.18164 0)
(0.379951 0.199757 0)
(0.396922 0.218216 0)
(0.414841 0.236986 0)
(0.43372 0.256029 0)
(0.453539 0.275303 0)
(0.474302 0.294737 0)
(0.496009 0.314268 0)
(0.518654 0.333815 0)
(0.542228 0.353284 0)
(0.566711 0.372572 0)
(0.592075 0.391562 0)
(0.618281 0.410132 0)
(0.645277 0.428152 0)
(0.673001 0.445498 0)
(0.70142 0.462016 0)
(0.730534 0.477834 0)
(0.760016 0.492128 -1.56076e-025)
(0.232319 0.0100492 0)
(0.236913 0.0209232 0)
(0.242531 0.0364597 0)
(0.249107 0.0519172 0)
(0.256673 0.0674789 0)
(0.265244 0.0833975 0)
(0.274816 0.0997375 0)
(0.285384 0.116502 0)
(0.296939 0.133697 0)
(0.309477 0.151329 0)
(0.322992 0.1694 0)
(0.337484 0.187905 0)
(0.352954 0.206834 0)
(0.369409 0.226168 0)
(0.386858 0.245879 0)
(0.405323 0.265943 0)
(0.424822 0.286305 0)
(0.445354 0.306894 0)
(0.466941 0.327646 0)
(0.4896 0.34847 0)
(0.513339 0.369261 0)
(0.53816 0.389898 0)
(0.56405 0.410243 0)
(0.590983 0.430145 0)
(0.618913 0.449443 0)
(0.647776 0.467976 0)
(0.6775 0.485548 0)
(0.708044 0.5022 0)
(0.739097 0.517202 1.64994e-025)
(0.212423 0.0102421 0)
(0.216665 0.0215006 0)
(0.221875 0.0374621 0)
(0.227984 0.0533196 0)
(0.235037 0.0693081 0)
(0.243057 0.0856862 0)
(0.25205 0.102519 0)
(0.262015 0.119814 0)
(0.272952 0.137583 0)
(0.284862 0.155839 0)
(0.297749 0.174589 0)
(0.311618 0.193835 0)
(0.326483 0.213572 0)
(0.342358 0.233788 0)
(0.359266 0.254461 0)
(0.377236 0.275563 0)
(0.396321 0.29705 0)
(0.416534 0.318868 0)
(0.437917 0.340926 0)
(0.460508 0.363135 0)
(0.484342 0.385377 0)
(0.509445 0.407515 0)
(0.535831 0.429385 0)
(0.563492 0.450804 0)
(0.592399 0.47157 0)
(0.622489 0.491475 0)
(0.653671 0.510282 0)
(0.685859 0.527895 0)
(0.718808 0.543868 0)
(0.193297 0.0103968 0)
(0.197205 0.0220137 0)
(0.202021 0.0383547 0)
(0.207669 0.0545659 0)
(0.214209 0.0709393 0)
(0.221675 0.087738 0)
(0.230078 0.105026 0)
(0.239424 0.122816 0)
(0.249719 0.141128 0)
(0.260972 0.159979 0)
(0.273191 0.179384 0)
(0.286392 0.199351 0)
(0.300594 0.219882 0)
(0.315823 0.240975 0)
(0.332115 0.262615 0)
(0.34951 0.284775 0)
(0.368073 0.307434 0)
(0.387869 0.330528 0)
(0.408937 0.353974 0)
(0.431354 0.37768 0)
(0.455184 0.401517 0)
(0.48049 0.425328 0)
(0.507316 0.448924 0)
(0.535688 0.472085 0)
(0.565599 0.494558 0)
(0.596999 0.516075 0)
(0.62979 0.536343 0)
(0.663845 0.55512 0)
(0.698919 0.572176 1.72324e-025)
(0.174988 0.01051 0)
(0.178583 0.02245 0)
(0.183017 0.0391182 0)
(0.188209 0.055631 0)
(0.194237 0.0723427 0)
(0.201143 0.0895179 0)
(0.208946 0.107219 0)
(0.217659 0.125465 0)
(0.227292 0.144281 0)
(0.23786 0.163691 0)
(0.249378 0.183716 0)
(0.261865 0.204374 0)
(0.275349 0.225676 0)
(0.289866 0.247628 0)
(0.305461 0.270228 0)
(0.322192 0.293462 0)
(0.340126 0.317303 0)
(0.359372 0.341716 0)
(0.380005 0.366637 0)
(0.402119 0.391949 0)
(0.425822 0.417525 0)
(0.451217 0.443194 0)
(0.478396 0.468742 0)
(0.507429 0.493907 0)
(0.538347 0.518379 0)
(0.571131 0.541811 0)
(0.605683 0.56383 0)
(0.641842 0.584052 0)
(0.679334 0.602261 -5.65604e-027)
(0.157545 0.0105783 0)
(0.160842 0.0227973 0)
(0.164904 0.039735 0)
(0.169644 0.0564926 0)
(0.175159 0.073492 0)
(0.181502 0.0909958 0)
(0.188697 0.109064 0)
(0.196764 0.127721 0)
(0.20572 0.146997 0)
(0.215581 0.166922 0)
(0.226367 0.187525 0)
(0.238101 0.208832 0)
(0.250816 0.230866 0)
(0.264554 0.253644 0)
(0.279373 0.277181 0)
(0.295342 0.301476 0)
(0.312549 0.326516 0)
(0.331103 0.352282 0)
(0.351149 0.378716 0)
(0.372807 0.405727 0)
(0.396225 0.433183 0)
(0.42156 0.460901 0)
(0.448962 0.488645 0)
(0.478563 0.516112 0)