/*--------------------------------*- C++ -*----------------------------------*\
| =========                 |                                                 |
| \\      /  F ield         | OpenFOAM: The Open Source CFD Toolbox           |
|  \\    /   O peration     | Version:  5.x                                   |
|   \\  /    A nd           | Web:      www.OpenFOAM.org                      |
|    \\/     M anipulation  |                                                 |
\*---------------------------------------------------------------------------*/
/*   Windows 32 and 64 bit porting by blueCAPE: http://www.bluecape.com.pt   *\
|  Based on Windows porting (2.0.x v4) by Symscape: http://www.symscape.com   |
\*---------------------------------------------------------------------------*/
FoamFile
{
    version     2.0;
    format      ascii;
    class       volScalarField;
    location    "90";
    object      epsilon;
}
// * * * * * * * * * * * * * * * * * * * * * * * * * * * * * * * * * * * * * //

dimensions      [0 2 -3 0 0 0 0];

internalField   nonuniform List<scalar> 
43900
(
0.00155294
0.0015196
0.00151975
0.00151967
0.00151966
0.00151967
0.00151966
0.00151968
0.00151968
0.00151968
0.00151968
0.00151968
0.00151968
0.00151968
0.00151969
0.00151969
0.00151969
0.00151969
0.00151969
0.00151969
0.00151969
0.00151969
0.00151969
0.00151969
0.00151969
0.00151969
0.00151969
0.00151969
0.00151969
0.000112793
3.29389e-005
3.15652e-005
3.23331e-005
3.2793e-005
3.28025e-005
3.27848e-005
3.27959e-005
3.27966e-005
3.28004e-005
3.28026e-005
3.28045e-005
3.28061e-005
3.28075e-005
3.28087e-005
3.28097e-005
3.28106e-005
3.28113e-005
3.28119e-005
3.28123e-005
3.28126e-005
3.28129e-005
3.28132e-005
3.28134e-005
3.28137e-005
3.2814e-005
3.28142e-005
3.28145e-005
3.28145e-005
0.0397544
0.00324231
8.94988e-005
3.34309e-006
1.35319e-006
1.32872e-006
1.41345e-006
1.41761e-006
1.418e-006
1.41838e-006
1.41877e-006
1.41914e-006
1.41946e-006
1.41974e-006
1.41999e-006
1.42021e-006
1.42041e-006
1.42059e-006
1.42075e-006
1.42089e-006
1.42103e-006
1.42115e-006
1.42126e-006
1.42137e-006
1.42147e-006
1.42156e-006
1.42165e-006
1.42173e-006
1.4218e-006
0.123764
0.0301099
0.00464612
0.000309718
8.00829e-006
3.78835e-007
1.18476e-007
1.09628e-007
1.1261e-007
1.12848e-007
1.12888e-007
1.12922e-007
1.12959e-007
1.12993e-007
1.13025e-007
1.13055e-007
1.13083e-007
1.13108e-007
1.13132e-007
1.13152e-007
1.13174e-007
1.13194e-007
1.13213e-007
1.1323e-007
1.13247e-007
1.1326e-007
1.13279e-007
1.13294e-007
1.13308e-007
0.182061
0.0715252
0.0245436
0.00588959
0.000758266
3.40507e-005
7.77439e-007
4.49756e-008
2.45357e-008
2.404e-008
2.40406e-008
2.40431e-008
2.40485e-008
2.40545e-008
2.40601e-008
2.40654e-008
2.40701e-008
2.40758e-008
2.40803e-008
2.40877e-008
2.40899e-008
2.40923e-008
2.40945e-008
2.40976e-008
2.40993e-008
2.4104e-008
2.41e-008
2.41003e-008
2.41019e-008
0.20781
0.0952822
0.042657
0.0175293
0.0054794
0.000911904
4.9172e-005
9.28746e-007
3.67856e-008
2.3447e-008
2.32611e-008
2.3261e-008
2.32629e-008
2.32694e-008
2.32759e-008
2.32819e-008
2.32868e-008
2.32917e-008
2.32952e-008
2.3301e-008
2.3309e-008
2.33183e-008
2.33168e-008
2.33167e-008
2.33181e-008
2.33125e-008
2.33045e-008
2.33045e-008
2.33054e-008
0.218244
0.10717
0.0525854
0.0250323
0.0108593
0.00357534
0.000520618
1.91744e-005
2.85155e-007
5.24901e-008
5.00638e-008
5.00549e-008
5.00586e-008
5.00754e-008
5.00942e-008
5.01107e-008
5.01252e-008
5.0137e-008
5.01448e-008
5.01574e-008
5.01763e-008
5.02232e-008
5.01926e-008
5.01924e-008
5.01948e-008
5.01484e-008
5.01462e-008
5.01465e-008
5.01485e-008
0.221104
0.112194
0.0572959
0.0288284
0.013745
0.00569022
0.00153082
0.000126096
2.14429e-006
1.85756e-007
1.68841e-007
1.68766e-007
1.68778e-007
1.68831e-007
1.68887e-007
1.68979e-007
1.69176e-007
1.69174e-007
1.69174e-007
1.69178e-007
1.69201e-007
1.6933e-007
1.69097e-007
1.69087e-007
1.69089e-007
1.68923e-007
1.68921e-007
1.68925e-007
1.68956e-007
0.218036
0.111812
0.0579059
0.0297662
0.014706
0.0065347
0.00214471
0.000285097
7.75348e-006
6.08142e-007
5.44254e-007
5.439e-007
5.43905e-007
5.43947e-007
5.44058e-007
5.44295e-007
5.44494e-007
5.44541e-007
5.44662e-007
5.44623e-007
5.4463e-007
5.44745e-007
5.44001e-007
5.44e-007
5.44011e-007
5.43664e-007
5.43652e-007
5.43815e-007
5.43299e-007
0.213405
0.11027
0.0575219
0.0297743
0.0148794
0.00676731
0.00236847
0.000365898
1.23259e-005
1.04893e-006
9.44794e-007
9.43983e-007
9.43986e-007
9.43989e-007
9.44009e-007
9.44189e-007
9.44019e-007
9.44018e-007
9.43841e-007
9.43844e-007
9.43726e-007
9.43954e-007
9.43214e-007
9.43211e-007
9.42945e-007
9.42947e-007
9.4302e-007
9.42245e-007
9.42019e-007
0.208474
0.108069
0.0566337
0.0294929
0.0148112
0.00677038
0.00240333
0.000386119
1.38055e-005
1.3007e-006
1.18472e-006
1.18378e-006
1.18366e-006
1.18366e-006
1.18366e-006
1.18372e-006
1.18327e-006
1.18326e-006
1.18327e-006
1.1832e-006
1.18326e-006
1.18276e-006
1.18261e-006
1.18261e-006
1.18235e-006
1.18235e-006
1.18185e-006
1.18166e-006
1.18166e-006
0.203077
0.105369
0.0552827
0.0288618
0.0145714
0.00670502
0.00239441
0.000387263
1.43417e-005
1.44004e-006
1.31281e-006
1.31167e-006
1.31156e-006
1.31156e-006
1.31152e-006
1.31152e-006
1.31142e-006
1.31142e-006
1.31117e-006
1.31117e-006
1.31083e-006
1.31078e-006
1.31078e-006
1.3108e-006
1.31052e-006
1.31052e-006
1.30997e-006
1.30997e-006
1.30997e-006
0.197152
0.102328
0.053699
0.0280311
0.0141509
0.00652915
0.00234748
0.000382855
1.46501e-005
1.52019e-006
1.37577e-006
1.37436e-006
1.37436e-006
1.37441e-006
1.37419e-006
1.37421e-006
1.37394e-006
1.37394e-006
1.37391e-006
1.37396e-006
1.37371e-006
1.37371e-006
1.37355e-006
1.37355e-006
1.37357e-006
1.37326e-006
1.37319e-006
1.3732e-006
1.37321e-006
0.190818
0.0990607
0.0519948
0.027143
0.0136945
0.00630077
0.00224912
0.00036533
1.44115e-005
1.56362e-006
1.40491e-006
1.40313e-006
1.40313e-006
1.40313e-006
1.40315e-006
1.40293e-006
1.40293e-006
1.40297e-006
1.4029e-006
1.40291e-006
1.40253e-006
1.40254e-006
1.40254e-006
1.40269e-006
1.40249e-006
1.40249e-006
1.40217e-006
1.40217e-006
1.40234e-006
0.184161
0.0956288
0.0502066
0.0262146
0.013222
0.00607167
0.00214786
0.000341372
1.37893e-005
1.5889e-006
1.41785e-006
1.41566e-006
1.41565e-006
1.41565e-006
1.41566e-006
1.4157e-006
1.41557e-006
1.41557e-006
1.41558e-006
1.41565e-006
1.41537e-006
1.41538e-006
1.41527e-006
1.41527e-006
1.41527e-006
1.41537e-006
1.41522e-006
1.41537e-006
1.41509e-006
0.177182
0.0920407
0.0483431
0.0252519
0.0127364
0.00584026
0.00204977
0.000320605
1.33487e-005
1.61199e-006
1.42409e-006
1.42122e-006
1.42116e-006
1.42116e-006
1.42117e-006
1.42125e-006
1.421e-006
1.421e-006
1.42101e-006
1.42109e-006
1.42103e-006
1.42103e-006
1.42093e-006
1.42093e-006
1.4209e-006
1.42091e-006
1.42074e-006
1.42052e-006
1.42051e-006
0.169862
0.0882881
0.0464012
0.0242538
0.0122368
0.00560553
0.00195332
0.000301858
1.30971e-005
1.6385e-006
1.42755e-006
1.42394e-006
1.42394e-006
1.424e-006
1.42384e-006
1.42384e-006
1.42359e-006
1.4236e-006
1.42362e-006
1.42382e-006
1.42362e-006
1.42362e-006
1.42338e-006
1.42338e-006
1.42339e-006
1.4234e-006
1.42345e-006
1.42317e-006
1.42317e-006
0.162198
0.0843695
0.0443797
0.023219
0.0117223
0.00536647
0.00185754
0.000284514
1.2985e-005
1.67041e-006
1.43027e-006
1.42533e-006
1.42528e-006
1.42528e-006
1.4253e-006
1.42542e-006
1.42509e-006
1.42509e-006
1.42504e-006
1.42504e-006
1.42505e-006
1.42522e-006
1.42505e-006
1.42515e-006
1.42483e-006
1.42483e-006
1.42483e-006
1.42448e-006
1.42448e-006
0.154208
0.0802917
0.0422812
0.0221487
0.0111929
0.00512281
0.00176208
0.000268317
1.30045e-005
1.70931e-006
1.43336e-006
1.42689e-006
1.42688e-006
1.42696e-006
1.42677e-006
1.42678e-006
1.42653e-006
1.42666e-006
1.42629e-006
1.42629e-006
1.42616e-006
1.42616e-006
1.42613e-006
1.42593e-006
1.42582e-006
1.42586e-006
1.4261e-006
1.4257e-006
1.42572e-006
0.145917
0.0760679
0.040112
0.0210454
0.0106497
0.00487491
0.00166704
0.000253176
1.31103e-005
1.75636e-006
1.43687e-006
1.42817e-006
1.42801e-006
1.42797e-006
1.42781e-006
1.42781e-006
1.42788e-006
1.42776e-006
1.42776e-006
1.42785e-006
1.42772e-006
1.42773e-006
1.4279e-006
1.42709e-006
1.42749e-006
1.42711e-006
1.42708e-006
1.42684e-006
1.42661e-006
0.137362
0.0717154
0.0378804
0.0199131
0.0100945
0.00462345
0.00157262
0.000239061
1.32982e-005
1.81391e-006
1.44198e-006
1.43037e-006
1.43032e-006
1.42961e-006
1.4296e-006
1.42966e-006
1.42975e-006
1.42996e-006
1.42924e-006
1.42922e-006
1.42932e-006
1.4291e-006
1.4291e-006
1.42927e-006
1.42864e-006
1.4284e-006
1.42883e-006
1.42824e-006
1.42828e-006
0.12859
0.0672566
0.0355969
0.0187565
0.00952924
0.00436903
0.00147913
0.000225883
1.35785e-005
1.88333e-006
1.44821e-006
1.43286e-006
1.43201e-006
1.43188e-006
1.43189e-006
1.43221e-006
1.43154e-006
1.43141e-006
1.43122e-006
1.43112e-006
1.43148e-006
1.4309e-006
1.43091e-006
1.43122e-006
1.43036e-006
1.43109e-006
1.4303e-006
1.4301e-006
1.43028e-006
0.119659
0.0627185
0.0332742
0.0175815
0.00895639
0.00411272
0.00138657
0.000213629
1.39179e-005
1.96737e-006
1.45761e-006
1.43552e-006
1.4354e-006
1.43526e-006
1.43538e-006
1.43455e-006
1.43471e-006
1.43426e-006
1.4338e-006
1.43506e-006
1.43366e-006
1.43376e-006
1.43378e-006
1.43292e-006
1.43386e-006
1.43319e-006
1.43241e-006
1.43324e-006
1.43205e-006
0.110632
0.0581321
0.030927
0.0163945
0.00837848
0.00385488
0.00129555
0.000202073
1.43637e-005
2.06794e-006
1.46799e-006
1.44058e-006
1.43826e-006
1.43801e-006
1.43801e-006
1.43929e-006
1.43802e-006
1.43713e-006
1.43867e-006
1.43757e-006
1.4375e-006
1.43796e-006
1.43603e-006
1.43701e-006
1.43655e-006
1.43537e-006
1.43669e-006
1.43529e-006
1.43463e-006
0.101584
0.053532
0.0285713
0.0152026
0.0077986
0.00359734
0.00120544
0.00019134
1.48086e-005
2.18595e-006
1.48455e-006
1.4449e-006
1.44374e-006
1.44343e-006
1.44449e-006
1.44252e-006
1.44176e-006
1.44394e-006
1.4418e-006
1.4414e-006
1.44275e-006
1.44053e-006
1.44137e-006
1.44158e-006
1.43926e-006
1.44068e-006
1.43965e-006
1.43848e-006
1.43996e-006
0.0925933
0.0489558
0.026225
0.0140139
0.00721961
0.00333942
0.00111758
0.000180854
1.53677e-005
2.32709e-006
1.50335e-006
1.45376e-006
1.44843e-006
1.4488e-006
1.44813e-006
1.44883e-006
1.4505e-006
1.44744e-006
1.44659e-006
1.44949e-006
1.44637e-006
1.44643e-006
1.44708e-006
1.44453e-006
1.44663e-006
1.44549e-006
1.44316e-006
1.44503e-006
1.44316e-006
0.083743
0.0444422
0.0239055
0.0128358
0.00664471
0.00308436
0.00103001
0.000171075
1.58694e-005
2.4869e-006
1.52855e-006
1.46033e-006
1.45745e-006
1.45553e-006
1.45552e-006
1.45571e-006
1.4543e-006
1.45481e-006
1.45743e-006
1.45344e-006
1.45307e-006
1.45479e-006
1.45148e-006
1.45361e-006
1.45166e-006
1.44946e-006
1.4518e-006
1.44952e-006
1.44903e-006
0.0751163
0.040032
0.021633
0.0116779
0.00607771
0.00283002
0.000945849
0.000161165
1.64167e-005
2.66817e-006
1.56116e-006
1.47461e-006
1.46427e-006
1.46413e-006
1.46522e-006
1.46428e-006
1.46483e-006
1.46459e-006
1.46153e-006
1.46281e-006
1.46424e-006
1.46024e-006
1.46143e-006
1.45925e-006
1.45937e-006
1.46033e-006
1.45721e-006
1.45533e-006
1.45522e-006
0.0667931
0.0357624
0.0194239
0.0105464
0.00552042
0.00258099
0.00086057
0.000151382
1.68894e-005
2.87399e-006
1.60336e-006
1.48513e-006
1.47821e-006
1.47535e-006
1.47474e-006
1.47478e-006
1.47345e-006
1.47313e-006
1.47487e-006
1.47187e-006
1.4703e-006
1.4719e-006
1.46992e-006
1.46994e-006
1.46726e-006
1.46771e-006
1.46582e-006
1.46563e-006
1.46648e-006
0.0588541
0.0316729
0.0172983
0.00945183
0.00497824
0.00233345
0.000779657
0.000141559
1.72852e-005
3.09581e-006
1.64439e-006
1.50799e-006
1.48862e-006
1.4884e-006
1.48659e-006
1.48614e-006
1.48893e-006
1.4863e-006
1.48344e-006
1.48548e-006
1.48352e-006
1.48189e-006
1.4818e-006
1.48025e-006
1.48201e-006
1.47726e-006
1.47752e-006
1.47756e-006
1.47296e-006
0.0513619
0.0277952
0.0152711
0.00839995
0.00445224
0.00209527
0.000698061
0.000131198
1.7537e-005
3.30676e-006
1.71609e-006
1.52437e-006
1.5081e-006
1.50419e-006
1.50357e-006
1.50458e-006
1.49987e-006
1.50094e-006
1.50317e-006
1.49669e-006
1.49796e-006
1.49669e-006
1.49516e-006
1.49574e-006
1.49137e-006
1.49416e-006
1.49128e-006
1.48568e-006
1.48675e-006
0.0443765
0.0241584
0.0133568
0.00739864
0.00394706
0.00185787
0.000619636
0.000120826
1.75579e-005
3.56538e-006
1.77391e-006
1.55638e-006
1.52659e-006
1.52159e-006
1.52191e-006
1.51846e-006
1.52152e-006
1.52007e-006
1.51498e-006
1.51882e-006
1.51306e-006
1.51161e-006
1.5148e-006
1.50989e-006
1.51124e-006
1.50646e-006
1.5041e-006
1.50585e-006
1.50164e-006
0.0379429
0.0207872
0.0115688
0.00645415
0.00346412
0.00163423
0.00054295
0.000109698
1.74287e-005
3.7534e-006
1.85045e-006
1.58877e-006
1.54913e-006
1.54457e-006
1.54231e-006
1.54355e-006
1.53941e-006
1.53861e-006
1.54309e-006
1.5357e-006
1.53657e-006
1.53519e-006
1.53109e-006
1.53328e-006
1.52675e-006
1.52912e-006
1.52572e-006
1.51936e-006
1.52126e-006
0.0320879
0.0176967
0.00991574
0.00557184
0.00300838
0.00141354
0.000468612
9.86536e-005
1.70893e-005
3.9617e-006
1.95846e-006
1.61935e-006
1.57745e-006
1.57623e-006
1.57211e-006
1.56342e-006
1.56732e-006
1.56664e-006
1.56094e-006
1.56912e-006
1.56138e-006
1.555e-006
1.55651e-006
1.5546e-006
1.55647e-006
1.54819e-006
1.54998e-006
1.54549e-006
1.53688e-006
0.0268284
0.0148979
0.00840449
0.0047555
0.00257854
0.00120853
0.000398461
8.69143e-005
1.64952e-005
4.12296e-006
2.01813e-006
1.68288e-006
1.60974e-006
1.59746e-006
1.59716e-006
1.60524e-006
1.59402e-006
1.59311e-006
1.59956e-006
1.5905e-006
1.59683e-006
1.5908e-006
1.57922e-006
1.5779e-006
1.57802e-006
1.58587e-006
1.57429e-006
1.57336e-006
1.56907e-006
0.0221633
0.012394
0.00703869
0.00400868
0.00218196
0.00101138
0.000331324
7.57633e-005
1.56262e-005
4.23736e-006
2.13949e-006
1.72507e-006
1.64799e-006
1.64191e-006
1.64068e-006
1.63039e-006
1.63748e-006
1.63865e-006
1.62541e-006
1.6287e-006
1.62241e-006
1.63e-006
1.62278e-006
1.61771e-006
1.61133e-006
1.60559e-006
1.61286e-006
1.60295e-006
1.60215e-006
0.018079
0.0101811
0.00581859
0.00333293
0.00181333
0.000831648
0.000271005
6.43286e-005
1.45392e-005
4.29583e-006
2.2001e-006
1.79379e-006
1.71162e-006
1.67745e-006
1.66851e-006
1.6804e-006
1.67279e-006
1.66819e-006
1.67609e-006
1.67109e-006
1.67233e-006
1.66222e-006
1.66738e-006
1.66068e-006
1.64934e-006
1.648e-006
1.63927e-006
1.64462e-006
1.63346e-006
0.0145512
0.00825064
0.00474203
0.00272777
0.0014825
0.000666093
0.000215019
5.39041e-005
1.32886e-005
4.28052e-006
2.32067e-006
1.85315e-006
1.74542e-006
1.72881e-006
1.73494e-006
1.71858e-006
1.73217e-006
1.72826e-006
1.71601e-006
1.71823e-006
1.71319e-006
1.72141e-006
1.7102e-006
1.7158e-006
1.70662e-006
1.68736e-006
1.68931e-006
1.68252e-006
1.68998e-006
0.0115445
0.00658858
0.00380445
0.00219518
0.00118129
0.000518964
0.000167624
4.40506e-005
1.19545e-005
4.24083e-006
2.36662e-006
1.93018e-006
1.82294e-006
1.79729e-006
1.77357e-006
1.77964e-006
1.77231e-006
1.78142e-006
1.78087e-006
1.77602e-006
1.77855e-006
1.77185e-006
1.77424e-006
1.75913e-006
1.772e-006
1.76484e-006
1.74078e-006
1.73264e-006
1.72338e-006
0.00901732
0.00517697
0.00299902
0.00172889
0.000920022
0.000393188
0.000126729
3.55633e-005
1.05468e-005
4.13675e-006
2.47195e-006
2.00023e-006
1.87406e-006
1.8421e-006
1.84708e-006
1.84436e-006
1.85424e-006
1.84302e-006
1.84805e-006
1.84756e-006
1.84276e-006
1.83969e-006
1.83334e-006
1.83896e-006
1.82036e-006
1.82953e-006
1.82041e-006
1.81145e-006
1.79383e-006
0.00692335
0.00399532
0.00231702
0.00133251
0.000692223
0.000286854
9.39393e-005
2.80222e-005
9.28543e-006
4.02678e-006
2.50621e-006
2.07163e-006
1.96744e-006
1.94016e-006
1.91275e-006
1.91983e-006
1.90635e-006
1.92776e-006
1.92132e-006
1.92243e-006
1.91468e-006
1.91138e-006
1.91562e-006
1.91358e-006
1.92233e-006
1.8991e-006
1.90586e-006
1.89564e-006
1.88233e-006
0.00521404
0.00302133
0.00175014
0.000995584
0.000504095
0.000203791
6.80756e-005
2.21139e-005
8.00171e-006
3.85307e-006
2.58165e-006
2.16756e-006
2.03112e-006
1.98891e-006
1.99522e-006
1.99695e-006
2.00915e-006
1.99116e-006
2.01028e-006
2.00223e-006
2.01689e-006
2.02e-006
2.01557e-006
2.01254e-006
2.00383e-006
2.01706e-006
1.98697e-006
1.99397e-006
1.97833e-006
0.00384103
0.00223226
0.00128594
0.000722158
0.000352283
0.000139809
4.87989e-005
1.70586e-005
7.04583e-006
3.7162e-006
2.59551e-006
2.26656e-006
2.14142e-006
2.09167e-006
2.06408e-006
2.06403e-006
2.0706e-006
2.10937e-006
2.10756e-006
2.1412e-006
2.11507e-006
2.12477e-006
2.11727e-006
2.11881e-006
2.11655e-006
2.10899e-006
2.12053e-006
2.09032e-006
2.0946e-006
0.00275809
0.00160527
0.00091676
0.000501696
0.000237361
9.42904e-005
3.45166e-005
1.35107e-005
6.05536e-006
3.55682e-006
2.68513e-006
2.32195e-006
2.20367e-006
2.18235e-006
2.18819e-006
2.19218e-006
2.1876e-006
2.19186e-006
2.2134e-006
2.21429e-006
2.26041e-006
2.23794e-006
2.25495e-006
2.25002e-006
2.24972e-006
2.2456e-006
2.23685e-006
2.25217e-006
2.22416e-006
0.00192169
0.00111906
0.000628794
0.000336042
0.000154349
6.23152e-005
2.48144e-005
1.05103e-005
5.40869e-006
3.45142e-006
2.69737e-006
2.42532e-006
2.31115e-006
2.28689e-006
2.2735e-006
2.27487e-006
2.28217e-006
2.31001e-006
2.32686e-006
2.33968e-006
2.34743e-006
2.41325e-006
2.39385e-006
2.43013e-006
2.43113e-006
2.4353e-006
2.42912e-006
2.40101e-006
2.39772e-006
0.00129215
0.000751851
0.000414672
0.000214782
9.82585e-005
4.15412e-005
1.77314e-005
8.56842e-006
4.80263e-006
3.37192e-006
2.74174e-006
2.48064e-006
2.39855e-006
2.38264e-006
2.38434e-006
2.39039e-006
2.41967e-006
2.42304e-006
2.44222e-006
2.4605e-006
2.50372e-006
2.53618e-006
2.63655e-006
2.6009e-006
2.63169e-006
2.62232e-006
2.64041e-006
2.63273e-006
2.59213e-006
0.000833184
0.000484686
0.000261274
0.000133618
6.17459e-005
2.78278e-005
1.32451e-005
6.95658e-006
4.44898e-006
3.28566e-006
2.79844e-006
2.58229e-006
2.52198e-006
2.48891e-006
2.48891e-006
2.48949e-006
2.51482e-006
2.55591e-006
2.58255e-006
2.63624e-006
2.67354e-006
2.69302e-006
2.73953e-006
2.87512e-006
2.84306e-006
2.87458e-006
2.85321e-006
2.88186e-006
2.86613e-006
0.000511776
0.00029832
0.000158672
8.11432e-005
3.9272e-005
1.91091e-005
1.00099e-005
6.03376e-006
4.09451e-006
3.24266e-006
2.84435e-006
2.70465e-006
2.60811e-006
2.59176e-006
2.59178e-006
2.62109e-006
2.64495e-006
2.69985e-006
2.72142e-006
2.78564e-006
2.84174e-006
2.92877e-006
2.94379e-006
2.99414e-006
3.17112e-006
3.15356e-006
3.20204e-006
3.17317e-006
3.20835e-006
0.000298096
0.000175662
9.37448e-005
4.935e-005
2.5392e-005
1.36256e-005
7.96397e-006
5.17873e-006
3.89859e-006
3.22789e-006
2.91674e-006
2.75778e-006
2.70994e-006
2.70458e-006
2.71268e-006
2.74596e-006
2.78706e-006
2.81444e-006
2.87484e-006
2.92614e-006
3.00126e-006
3.06841e-006
3.2157e-006
3.23682e-006
3.31826e-006
3.58405e-006
3.58213e-006
3.64329e-006
3.59127e-006
0.000164799
9.9869e-005
5.48392e-005
3.05114e-005
1.69879e-005
1.00285e-005
6.50211e-006
4.70743e-006
3.71952e-006
3.24009e-006
2.97581e-006
2.86802e-006
2.8156e-006
2.8241e-006
2.82926e-006
2.87156e-006
2.89037e-006
2.97299e-006
3.0166e-006
3.11819e-006
3.18335e-006
3.28978e-006
3.39321e-006
3.62688e-006
3.67281e-006
3.79805e-006
4.17818e-006
4.17103e-006
4.25072e-006
8.74502e-005
5.57489e-005
3.24603e-005
1.92683e-005
1.18756e-005
7.72316e-006
5.49818e-006
4.25199e-006
3.63239e-006
3.22494e-006
3.07459e-006
2.92374e-006
2.92161e-006
2.91692e-006
2.94687e-006
2.97698e-006
3.04427e-006
3.07788e-006
3.1879e-006
3.24572e-006
3.38994e-006
3.47392e-006
3.64262e-006
3.79209e-006
4.14101e-006
4.24361e-006
4.45897e-006
4.98137e-006
4.92293e-006
4.54575e-005
3.12203e-005
1.95803e-005
1.27626e-005
8.5301e-006
6.17978e-006
4.74955e-006
3.96108e-006
3.53415e-006
3.25301e-006
3.08817e-006
3.02321e-006
3.03075e-006
3.03624e-006
3.0769e-006
3.09841e-006
3.17322e-006
3.24558e-006
3.31539e-006
3.47096e-006
3.55197e-006
3.73184e-006
3.89964e-006
4.15148e-006
4.37932e-006
4.90279e-006
5.14857e-006
5.48874e-006
6.20845e-006
2.37733e-005
1.78319e-005
1.22886e-005
8.69533e-006
6.49162e-006
5.09204e-006
4.21218e-006
3.78162e-006
3.41974e-006
3.21626e-006
3.14596e-006
3.11381e-006
3.1187e-006
3.12289e-006
3.16202e-006
3.18065e-006
3.26669e-006
3.33123e-006
3.47557e-006
3.56984e-006
3.7819e-006
3.88422e-006
4.12016e-006
4.33011e-006
4.70477e-006
5.0707e-006
5.8094e-006
6.16855e-006
7.0736e-006
1.28225e-005
1.05549e-005
8.01758e-006
6.23814e-006
5.12764e-006
4.2262e-006
3.88775e-006
3.53922e-006
3.35152e-006
3.21396e-006
3.18835e-006
3.18983e-006
3.18629e-006
3.20215e-006
3.24784e-006
3.2915e-006
3.37265e-006
3.44148e-006
3.59034e-006
3.69597e-006
3.9548e-006
4.17511e-006
4.6459e-006
5.14837e-006
6.18334e-006
7.03961e-006
8.7864e-006
9.63318e-006
1.04633e-005
7.33453e-006
6.58244e-006
5.5338e-006
4.63542e-006
4.29575e-006
3.68006e-006
3.57245e-006
3.32564e-006
3.28025e-006
3.1878e-006
3.20117e-006
3.19212e-006
3.21971e-006
3.26231e-006
3.40556e-006
3.62783e-006
4.27433e-006
5.57371e-006
9.58989e-006
1.62412e-005
3.26735e-005
6.12031e-005
0.000104141
0.000185348
0.000256413
0.000395462
0.000476105
0.000567437
0.000520208
4.52923e-006
4.37775e-006
4.05432e-006
3.70026e-006
3.6186e-006
3.27513e-006
3.27128e-006
3.21719e-006
3.2522e-006
3.28694e-006
3.49018e-006
4.07575e-006
6.41203e-006
1.20424e-005
2.98216e-005
6.19146e-005
0.000144479
0.000260839
0.000532786
0.000844021
0.00147781
0.0022347
0.00333081
0.004859
0.00636865
0.00910919
0.0108062
0.0149232
0.0148718
3.14087e-006
3.20158e-006
3.12678e-006
3.14715e-006
3.15149e-006
3.2122e-006
3.4954e-006
4.1642e-006
7.16066e-006
1.54718e-005
4.12892e-005
9.73015e-005
0.000241945
0.000470871
0.000968464
0.00156275
0.00271876
0.00405263
0.00629966
0.0088964
0.0128217
0.0174839
0.0239121
0.0321219
0.0420699
0.0573198
0.0716131
0.103354
0.119564
2.42139e-006
2.59194e-006
2.90827e-006
3.53343e-006
5.8756e-006
1.00384e-005
2.95952e-005
6.44007e-005
0.000176425
0.00039775
0.000869048
0.00154998
0.00281301
0.00447302
0.00699083
0.0100818
0.0145725
0.0200235
0.0276743
0.036935
0.0496728
0.0651144
0.0864076
0.112684
0.149348
0.197836
0.263133
0.372611
0.479034
2.32421e-006
3.41785e-006
7.32654e-006
1.95077e-005
6.20316e-005
0.000142372
0.000408026
0.000765794
0.00165166
0.00299046
0.00517658
0.00804011
0.012375
0.0178847
0.0253827
0.0345973
0.0470241
0.0621269
0.0824058
0.106933
0.140156
0.180151
0.236406
0.303809
0.406009
0.529304
0.737525
0.999273
1.39487
0.00151969
0.00151969
0.00151969
0.00151969
0.00151969
0.00151969
0.00151969
0.00151969
0.00151969
0.00151969
0.00151969
0.00151969
0.00151969
0.00151969
0.00151969
0.00151969
0.00151969
0.00151969
0.00151969
0.00151969
0.00151969
0.00151969
0.00151969
0.0015197
0.0015197
0.0015197
0.0015197
0.0015197
0.0015197
0.0015197
0.0015197
0.0015197
0.0015197
0.0015197
0.0015197
0.0015197
0.0015197
0.0015197
0.0015197
0.0015197
0.0015197
0.0015197
0.0015197
0.0015197
0.0015197
0.0015197
0.0015197
0.0015197
0.0015197
0.0015197
0.0015197
0.0015197
0.0015197
0.0015197
0.0015197
0.0015197
0.0015197
0.00151971
0.00151971
0.00151971
0.00151971
0.00151971
0.00151971
0.00151971
0.00151971
0.00151971
0.00151971
0.00151971
0.00151971
0.00151971
0.00151971
0.00151971
0.00151971
0.00151971
0.00151971
0.00151971
0.00151971
0.00151971
0.00151971
0.00151971
0.00151971
0.00151971
0.00151971
0.00151971
0.00151971
0.00151971
0.00151971
0.00151971
0.00151971
0.00151971
0.00151971
0.00151971
0.00151971
0.00151971
0.00151971
0.00151971
0.00151971
0.00151971
0.00151971
0.00151971
0.00151971
0.00151971
0.00151971
0.00151971
0.00151971
0.00151971
0.0015197
0.0015197
0.0015197
0.0015197
0.0015197
0.0015197
0.0015197
0.0015197
0.0015197
0.0015197
0.0015197
0.0015197
0.0015197
0.0015197
0.0015197
0.0015197
0.00151971
0.00151971
0.00151971
0.00151971
0.00151971
0.00151971
0.00151971
0.00151971
0.00151971
0.00151971
0.00151971
0.00151971
0.00151971
0.00151971
0.00151971
0.00151975
0.00154201
3.28149e-005
3.28154e-005
3.28157e-005
3.28161e-005
3.28164e-005
3.28167e-005
3.2817e-005
3.28173e-005
3.28177e-005
3.2818e-005
3.28183e-005
3.28186e-005
3.28189e-005
3.28192e-005
3.28195e-005
3.28199e-005
3.28202e-005
3.28205e-005
3.28208e-005
3.28211e-005
3.28215e-005
3.28218e-005
3.28221e-005
3.28225e-005
3.28228e-005
3.28232e-005
3.28235e-005
3.28239e-005
3.28242e-005
3.28246e-005
3.28249e-005
3.28253e-005
3.28256e-005
3.2826e-005
3.28263e-005
3.28267e-005
3.2827e-005
3.28274e-005
3.28278e-005
3.28281e-005
3.28285e-005
3.28289e-005
3.28292e-005
3.28296e-005
3.283e-005
3.28303e-005
3.28307e-005
3.28311e-005
3.28314e-005
3.28318e-005
3.28321e-005
3.28325e-005
3.28329e-005
3.28332e-005
3.28336e-005
3.28339e-005
3.28343e-005
3.28346e-005
3.28349e-005
3.28352e-005
3.28355e-005
3.28357e-005
3.2836e-005
3.28362e-005
3.28364e-005
3.28366e-005
3.28369e-005
3.28371e-005
3.28373e-005
3.28375e-005
3.28376e-005
3.28378e-005
3.2838e-005
3.28381e-005
3.28383e-005
3.28384e-005
3.28385e-005
3.28386e-005
3.28387e-005
3.28388e-005
3.28389e-005
3.28389e-005
3.2839e-005
3.2839e-005
3.2839e-005
3.28391e-005
3.2839e-005
3.2839e-005
3.2839e-005
3.2839e-005
3.28389e-005
3.28388e-005
3.28387e-005
3.28386e-005
3.28385e-005
3.28383e-005
3.28381e-005
3.28379e-005
3.28377e-005
3.28374e-005
3.28371e-005
3.28367e-005
3.28364e-005
3.28361e-005
3.28358e-005
3.28354e-005
3.28351e-005
3.28347e-005
3.28344e-005
3.2834e-005
3.28337e-005
3.28334e-005
3.28332e-005
3.28331e-005
3.28331e-005
3.28331e-005
3.28332e-005
3.28332e-005
3.28334e-005
3.28337e-005
3.28341e-005
3.28346e-005
3.28351e-005
3.28358e-005
3.28364e-005
3.2837e-005
3.28375e-005
3.28378e-005
3.28382e-005
3.28385e-005
3.2839e-005
3.28398e-005
3.28402e-005
3.28425e-005
3.28417e-005
3.28456e-005
3.28572e-005
3.2457e-005
3.37435e-005
1.42189e-006
1.422e-006
1.42209e-006
1.42217e-006
1.42225e-006
1.42233e-006
1.42241e-006
1.42248e-006
1.42255e-006
1.42262e-006
1.42268e-006
1.42275e-006
1.42281e-006
1.42287e-006
1.42293e-006
1.42299e-006
1.42305e-006
1.42311e-006
1.42316e-006
1.42322e-006
1.42328e-006
1.42334e-006
1.42339e-006
1.42345e-006
1.4235e-006
1.42356e-006
1.42362e-006
1.42367e-006
1.42373e-006
1.42378e-006
1.42384e-006
1.4239e-006
1.42395e-006
1.42401e-006
1.42406e-006
1.42412e-006
1.42417e-006
1.42423e-006
1.42428e-006
1.42434e-006
1.42439e-006
1.42445e-006
1.4245e-006
1.42456e-006
1.42461e-006
1.42467e-006
1.42472e-006
1.42478e-006
1.42483e-006
1.42488e-006
1.42493e-006
1.42499e-006
1.42504e-006
1.42509e-006
1.42514e-006
1.42518e-006
1.42523e-006
1.42528e-006
1.42532e-006
1.42537e-006
1.42541e-006
1.42545e-006
1.4255e-006
1.42554e-006
1.42558e-006
1.42563e-006
1.42567e-006
1.42571e-006
1.42575e-006
1.42579e-006
1.42583e-006
1.42586e-006
1.4259e-006
1.42594e-006
1.42597e-006
1.426e-006
1.42604e-006
1.42607e-006
1.4261e-006
1.42613e-006
1.42615e-006
1.42618e-006
1.42621e-006
1.42623e-006
1.42626e-006
1.42628e-006
1.4263e-006
1.42632e-006
1.42634e-006
1.42635e-006
1.42637e-006
1.42638e-006
1.4264e-006
1.42641e-006
1.42642e-006
1.42643e-006
1.42645e-006
1.42645e-006
1.42646e-006
1.42647e-006
1.42647e-006
1.42647e-006
1.42646e-006
1.42646e-006
1.42645e-006
1.42644e-006
1.42643e-006
1.42642e-006
1.4264e-006
1.42638e-006
1.42636e-006
1.42634e-006
1.42632e-006
1.42631e-006
1.42629e-006
1.42628e-006
1.42626e-006
1.42625e-006
1.42625e-006
1.42624e-006
1.42623e-006
1.42623e-006
1.42622e-006
1.4262e-006
1.42619e-006
1.42616e-006
1.42612e-006
1.42608e-006
1.426e-006
1.426e-006
1.42587e-006
1.42591e-006
1.42574e-006
1.42587e-006
1.42615e-006
1.42406e-006
1.33622e-006
3.06368e-006
0.000310794
1.13321e-007
1.13336e-007
1.13351e-007
1.13364e-007
1.13378e-007
1.13391e-007
1.13403e-007
1.13415e-007
1.13427e-007
1.13438e-007
1.1345e-007
1.13461e-007
1.13473e-007
1.13484e-007
1.13496e-007
1.13508e-007
1.13519e-007
1.13531e-007
1.13543e-007
1.13556e-007
1.13568e-007
1.1358e-007
1.13593e-007
1.13606e-007
1.13618e-007
1.13631e-007
1.13644e-007
1.13657e-007
1.13671e-007
1.13684e-007
1.13697e-007
1.13711e-007
1.13724e-007
1.13738e-007
1.13752e-007
1.13765e-007
1.13779e-007
1.13793e-007
1.13807e-007
1.13821e-007
1.13834e-007
1.13848e-007
1.13861e-007
1.13875e-007
1.13888e-007
1.13902e-007
1.13915e-007
1.13928e-007
1.13942e-007
1.13955e-007
1.13968e-007
1.13981e-007
1.13993e-007
1.14006e-007
1.14019e-007
1.14031e-007
1.14044e-007
1.14056e-007
1.14068e-007
1.14081e-007
1.14093e-007
1.14105e-007
1.14117e-007
1.14129e-007
1.14141e-007
1.14152e-007
1.14163e-007
1.14174e-007
1.14185e-007
1.14196e-007
1.14206e-007
1.14217e-007
1.14227e-007
1.14237e-007
1.14247e-007
1.14257e-007
1.14266e-007
1.14276e-007
1.14285e-007
1.14294e-007
1.14303e-007
1.14311e-007
1.14319e-007
1.14328e-007
1.14336e-007
1.14343e-007
1.14351e-007
1.14358e-007
1.14365e-007
1.14371e-007
1.14378e-007
1.14384e-007
1.1439e-007
1.14395e-007
1.14401e-007
1.14406e-007
1.14411e-007
1.14416e-007
1.1442e-007
1.14424e-007
1.14428e-007
1.14432e-007
1.14435e-007
1.14439e-007
1.14441e-007
1.14444e-007
1.14446e-007
1.14447e-007
1.14448e-007
1.14449e-007
1.14449e-007
1.14448e-007
1.14447e-007
1.14444e-007
1.14441e-007
1.14437e-007
1.14433e-007
1.14428e-007
1.14422e-007
1.14416e-007
1.14409e-007
1.14401e-007
1.14393e-007
1.14383e-007
1.14371e-007
1.14359e-007
1.1434e-007
1.14329e-007
1.14299e-007
1.1429e-007
1.14268e-007
1.14229e-007
1.14269e-007
1.14135e-007
1.11883e-007
1.14211e-007
7.52227e-007
0.000104612
0.00609293
2.41029e-008
2.41031e-008
2.41034e-008
2.41043e-008
2.41036e-008
2.41038e-008
2.41032e-008
2.4103e-008
2.41024e-008
2.41019e-008
2.4101e-008
2.41002e-008
2.40992e-008
2.40982e-008
2.4097e-008
2.40958e-008
2.40945e-008
2.40929e-008
2.40916e-008
2.40902e-008
2.40884e-008
2.40869e-008
2.40853e-008
2.40837e-008
2.40821e-008
2.40805e-008
2.40789e-008
2.40769e-008
2.40754e-008
2.40737e-008
2.40721e-008
2.40705e-008
2.40688e-008
2.40672e-008
2.40653e-008
2.40636e-008
2.40617e-008
2.406e-008
2.40585e-008
2.40569e-008
2.40553e-008
2.40538e-008
2.40523e-008
2.40508e-008
2.40494e-008
2.40477e-008
2.40463e-008
2.4045e-008
2.40433e-008
2.4042e-008
2.40406e-008
2.40393e-008
2.40381e-008
2.40368e-008
2.40356e-008
2.40342e-008
2.40331e-008
2.4032e-008
2.40309e-008
2.40299e-008
2.40289e-008
2.40278e-008
2.4027e-008
2.4026e-008
2.40248e-008
2.40236e-008
2.40226e-008
2.40217e-008
2.40208e-008
2.402e-008
2.4019e-008
2.40181e-008
2.40172e-008
2.40164e-008
2.40156e-008
2.40148e-008
2.4014e-008