/*--------------------------------*- C++ -*----------------------------------*\
| =========                 |                                                 |
| \\      /  F ield         | OpenFOAM: The Open Source CFD Toolbox           |
|  \\    /   O peration     | Version:  5.x                                   |
|   \\  /    A nd           | Web:      www.OpenFOAM.org                      |
|    \\/     M anipulation  |                                                 |
\*---------------------------------------------------------------------------*/
/*   Windows 32 and 64 bit porting by blueCAPE: http://www.bluecape.com.pt   *\
|  Based on Windows porting (2.0.x v4) by Symscape: http://www.symscape.com   |
\*---------------------------------------------------------------------------*/
FoamFile
{
    version     2.0;
    format      ascii;
    class       volScalarField;
    location    "90";
    object      k;
}
// * * * * * * * * * * * * * * * * * * * * * * * * * * * * * * * * * * * * * //

dimensions      [0 2 -2 0 0 0 0];

internalField   nonuniform List<scalar> 
43900
(
0.00101355
0.000990042
0.000990208
0.000990131
0.000990115
0.000990121
0.000990114
0.000990125
0.000990125
0.000990128
0.00099013
0.000990131
0.000990133
0.000990134
0.000990134
0.000990135
0.000990136
0.000990136
0.000990137
0.000990137
0.000990137
0.000990137
0.000990137
0.000990138
0.000990138
0.000990138
0.000990138
0.000990138
0.000990138
0.000308632
4.22027e-005
3.8752e-005
3.98823e-005
4.09649e-005
4.09822e-005
4.09488e-005
4.0961e-005
4.09624e-005
4.09671e-005
4.097e-005
4.09724e-005
4.09745e-005
4.09763e-005
4.09779e-005
4.09792e-005
4.09804e-005
4.09813e-005
4.09821e-005
4.09827e-005
4.09831e-005
4.09835e-005
4.09839e-005
4.09843e-005
4.09847e-005
4.09851e-005
4.09855e-005
4.09858e-005
4.09859e-005
0.228802
0.0303181
0.00109459
1.81362e-005
3.19098e-006
2.99103e-006
3.35807e-006
3.37741e-006
3.3775e-006
3.37831e-006
3.37921e-006
3.38005e-006
3.3808e-006
3.38146e-006
3.38205e-006
3.38258e-006
3.38305e-006
3.38347e-006
3.38386e-006
3.38421e-006
3.38453e-006
3.38483e-006
3.38511e-006
3.38537e-006
3.38561e-006
3.38584e-006
3.38605e-006
3.38626e-006
3.38642e-006
0.729512
0.261814
0.0600375
0.00575815
0.000170947
4.61145e-006
5.56691e-007
4.52672e-007
4.7546e-007
4.77377e-007
4.77559e-007
4.77702e-007
4.77854e-007
4.77991e-007
4.7812e-007
4.78241e-007
4.78355e-007
4.78453e-007
4.7855e-007
4.78622e-007
4.78717e-007
4.78805e-007
4.78884e-007
4.78952e-007
4.79028e-007
4.79077e-007
4.79178e-007
4.79243e-007
4.79303e-007
1.15773
0.620285
0.289976
0.0956586
0.0171207
0.000983668
2.2857e-005
7.41973e-007
2.68739e-007
2.57994e-007
2.57883e-007
2.57886e-007
2.57906e-007
2.57959e-007
2.58008e-007
2.58054e-007
2.58092e-007
2.58153e-007
2.58203e-007
2.58334e-007
2.58334e-007
2.58334e-007
2.58337e-007
2.58367e-007
2.58348e-007
2.58391e-007
2.58233e-007
2.58219e-007
2.5822e-007
1.40132
0.848303
0.496268
0.266304
0.110771
0.0247666
0.0017124
3.48859e-005
1.02795e-006
5.17529e-007
5.10747e-007
5.10744e-007
5.1078e-007
5.10958e-007
5.11147e-007
5.11322e-007
5.11456e-007
5.11564e-007
5.11666e-007
5.11883e-007
5.12387e-007
5.12349e-007
5.12438e-007
5.12192e-007
5.12195e-007
5.12337e-007
5.11615e-007
5.11466e-007
5.11469e-007
1.52954
0.975276
0.614142
0.372192
0.205568
0.0887621
0.0172216
0.00079315
1.27916e-005
2.65921e-006
2.55243e-006
2.55219e-006
2.55298e-006
2.55436e-006
2.55562e-006
2.55671e-006
2.5574e-006
2.55784e-006
2.55862e-006
2.56022e-006
2.5609e-006
2.56146e-006
2.56338e-006
2.5603e-006
2.56031e-006
2.56074e-006
2.55724e-006
2.5557e-006
2.5553e-006
1.58926
1.03807
0.674257
0.427652
0.256159
0.134498
0.0480338
0.00522785
0.0001059
1.26703e-005
1.18656e-005
1.18631e-005
1.1867e-005
1.18719e-005
1.1878e-005
1.18914e-005
1.18919e-005
1.18932e-005
1.18983e-005
1.18986e-005
1.18989e-005
1.18996e-005
1.19066e-005
1.18877e-005
1.18832e-005
1.18829e-005
1.18735e-005
1.18674e-005
1.18612e-005
1.58658
1.04527
0.687315
0.44404
0.274278
0.153069
0.0653267
0.0116354
0.000400337
4.60112e-005
4.27993e-005
4.27848e-005
4.27883e-005
4.28006e-005
4.28097e-005
4.28296e-005
4.28373e-005
4.28648e-005
4.28501e-005
4.28502e-005
4.28519e-005
4.28504e-005
4.28619e-005
4.28067e-005
4.27863e-005
4.27717e-005
4.27694e-005
4.27301e-005
4.27299e-005
1.57497
1.0422
0.688111
0.447137
0.278984
0.158917
0.071811
0.0149071
0.000655028
8.30542e-005
7.75672e-005
7.7531e-005
7.75312e-005
7.75336e-005
7.75402e-005
7.75441e-005
7.75536e-005
7.75284e-005
7.75206e-005
7.75207e-005
7.75217e-005
7.75191e-005
7.75355e-005
7.74744e-005
7.74493e-005
7.74267e-005
7.74091e-005
7.74089e-005
7.74101e-005
1.55502
1.032
0.683856
0.445763
0.278911
0.159571
0.0730251
0.015788
0.000745755
0.000104737
9.84969e-005
9.84524e-005
9.84555e-005
9.84431e-005
9.84431e-005
9.84433e-005
9.84494e-005
9.84234e-005
9.84021e-005
9.83959e-005
9.8396e-005
9.8397e-005
9.83801e-005
9.83414e-005
9.83199e-005
9.83052e-005
9.82823e-005
9.82788e-005
9.82725e-005
1.52854
1.01506
0.673564
0.440328
0.276592
0.158813
0.072953
0.0158716
0.000777974
0.000116567
0.000109713
0.000109653
0.000109653
0.000109631
0.000109625
0.000109625
0.000109625
0.000109629
0.000109602
0.000109602
0.000109602
0.00010961
0.00010957
0.000109561
0.000109561
0.000109536
0.000109536
0.000109512
0.000109512
1.49774
0.994723
0.659969
0.431322
0.271112
0.156092
0.0720323
0.0157463
0.000794022
0.000122978
0.000115242
0.000115162
0.000115162
0.000115147
0.000115147
0.000115149
0.000115157
0.000115131
0.000115128
0.000115128
0.000115128
0.000115118
0.000115103
0.000115104
0.000115105
0.000115088
0.000115088
0.00011507
0.00011507
1.46424
0.972532
0.64521
0.421541
0.264653
0.151956
0.0697511
0.0151503
0.000781445
0.00012623
0.000117798
0.000117702
0.000117702
0.0001177
0.000117713
0.00011769
0.000117685
0.000117682
0.000117682
0.000117683
0.000117691
0.000117658
0.000117657
0.000117658
0.000117655
0.000117655
0.000117657
0.000117637
0.000117637
1.42866
0.948978
0.629587
0.411254
0.257992
0.147782
0.0672129
0.0142446
0.000746959
0.000127925
0.000118955
0.000118834
0.000118834
0.000118835
0.000118813
0.000118812
0.000118812
0.000118808
0.000118808
0.000118811
0.000118822
0.0001188
0.0001188
0.000118789
0.000118789
0.00011879
0.000118802
0.000118786
0.000118786
1.39097
0.924105
0.613152
0.400497
0.251102
0.143551
0.0647666
0.0134556
0.000720686
0.000129221
0.000119469
0.000119325
0.000119325
0.000119318
0.000119318
0.000119308
0.000119308
0.000119308
0.000119322
0.000119297
0.000119297
0.000119296
0.000119301
0.000119287
0.000119288
0.000119289
0.000119287
0.000119287
0.000119278
1.35102
0.897815
0.595851
0.389238
0.243954
0.139228
0.0623413
0.012737
0.000703691
0.000130539
0.000119744
0.000119556
0.000119548
0.000119548
0.000119551
0.00011954
0.00011954
0.000119544
0.000119533
0.000119533
0.00011954
0.000119532
0.000119532
0.000119532
0.000119518
0.000119523
0.000119508
0.000119508
0.000119526
1.30867
0.870032
0.577629
0.377437
0.236515
0.134783
0.0599052
0.0120653
0.000693063
0.00013206
0.000119937
0.000119683
0.000119681
0.000119682
0.00011968
0.00011968
0.000119684
0.000119678
0.000119685
0.000119651
0.00011965
0.000119661
0.000119654
0.000119655
0.000119665
0.000119645
0.000119645
0.00011966
0.000119639
1.2639
0.840727
0.558466
0.365076
0.228772
0.130202
0.0574463
0.0114313
0.000687894
0.000133888
0.000120104
0.00011978
0.000119779
0.000119768
0.000119787
0.000119763
0.000119757
0.000119773
0.000119753
0.000119751
0.000119772
0.000119751
0.000119759
0.000119745
0.000119735
0.000119757
0.000119732
0.000119726
0.000119745
1.21673
0.809907
0.538364
0.352157
0.220722
0.125486
0.0549642
0.0108325
0.000688848
0.000136093
0.000120332
0.000119908
0.000119897
0.000119908
0.000119892
0.000119857
0.000119889
0.000119868
0.000119868
0.000119858
0.000119848
0.000119866
0.000119849
0.000119819
0.000119852
0.00011983
0.000119806
0.000119852
0.00011982
1.16719
0.777607
0.517344
0.338691
0.212373
0.120636
0.0524617
0.0102685
0.000693432
0.000138754
0.000120609
0.000120015
0.000120021
0.000119999
0.000119986
0.000120012
0.000119988
0.000120008
0.00011999
0.00011996
0.000119981
0.000119966
0.000119934
0.000119958
0.000119955
0.000119926
0.000119957
0.00011994
0.000119936
1.11541
0.74389
0.495443
0.324699
0.203736
0.115658
0.0499447
0.009737
0.000702268
0.000141959
0.000120925
0.000120217
0.000120163
0.000120163
0.000120171
0.000120157
0.000120163
0.000120125
0.000120111
0.0001201
0.000120135
0.000120087
0.000120092
0.000120123
0.000120069
0.000120111
0.00012007
0.000120054
0.000120091
1.06153
0.708851
0.472718
0.310212
0.194828
0.11056
0.0474123
0.00923836
0.000713923
0.000145772
0.000121456
0.000120385
0.000120374
0.000120355
0.000120362
0.000120318
0.000120355
0.000120333
0.000120284
0.000120353
0.000120274
0.000120272
0.000120323
0.000120246
0.000120305
0.000120261
0.0001202
0.000120268
0.000120213
1.00578
0.672618
0.449241
0.295271
0.185664
0.105341
0.0448771
0.00876524
0.000730663
0.000150429
0.000121963
0.000120709
0.000120593
0.000120554
0.000120537
0.000120642
0.000120558
0.000120501
0.000120597
0.000120518
0.000120514
0.000120574
0.000120465
0.000120517
0.000120514
0.00012041
0.000120481
0.000120423
0.000120385
0.94842
0.635349
0.425104
0.279924
0.176274
0.100025
0.0423239
0.00832227
0.000747539
0.000155703
0.000122854
0.000120971
0.000120904
0.000120879
0.000120952
0.000120848
0.000120787
0.000120913
0.000120802
0.000120767
0.000120875
0.000120744
0.000120784
0.000120818
0.000120682
0.000120763
0.000120707
0.000120625
0.000120726
0.889762
0.597232
0.400417
0.264231
0.166679
0.0945899
0.0397808
0.00788889
0.000769775
0.000162205
0.000123779
0.000121508
0.000121207
0.000121253
0.000121195
0.00012123
0.000121352
0.000121157
0.000121112
0.000121292
0.000121111
0.000121113
0.000121152
0.000121003
0.00012113
0.000121088
0.000120932
0.000121042
0.000120936
0.830178
0.558483
0.375298
0.24825
0.15691
0.0890856
0.0372021
0.00748241
0.000789727
0.000169375
0.000125037
0.000121901
0.00012181
0.000121728
0.000121715
0.00012171
0.000121606
0.000121643
0.000121798
0.000121548
0.000121525
0.000121639
0.000121436
0.000121561
0.000121453
0.000121329
0.000121469
0.000121354
0.000121329
0.770077
0.519352
0.349901
0.232073
0.147006
0.0834645
0.0346607
0.0070705
0.000811938
0.000177486
0.000126686
0.000122775
0.00012223
0.000122223
0.000122251
0.000122199
0.000122262
0.000122259
0.000122058
0.000122127
0.000122217
0.000121981
0.000122054
0.000121918
0.000121933
0.000121997
0.000121824
0.000121706
0.000121689
0.709892
0.480088
0.324354
0.215749
0.136983
0.0777971
0.0320364
0.00666389
0.000831198
0.000186861
0.000128724
0.000123365
0.000123079
0.000122918
0.000122867
0.000122872
0.000122794
0.000122754
0.000122865
0.000122699
0.000122594
0.000122696
0.000122602
0.000122597
0.00012242
0.000122443
0.00012235
0.000122334
0.000122405
0.650122
0.440994
0.298847
0.199403
0.126911
0.0720094
0.0294791
0.00625417
0.000847322
0.000196781
0.000130604
0.00012465
0.000123706
0.000123703
0.000123576
0.000123525
0.000123709
0.000123601
0.000123398
0.000123525
0.000123428
0.000123321
0.0001233
0.000123199
0.000123318
0.000123057
0.00012307
0.000123098
0.000122826
0.591207
0.402342
0.273532
0.183095
0.116805
0.0662408
0.0268392
0.00582179
0.000857084
0.000206137
0.000134143
0.000125531
0.000124847
0.000124649
0.00012459
0.000124651
0.000124383
0.000124474
0.000124605
0.000124213
0.000124296
0.000124244
0.000124144
0.00012419
0.000123918
0.000124083
0.000123939
0.0001236
0.000123666
0.533646
0.364425
0.248583
0.166937
0.106723
0.0603073
0.0242311
0.00538685
0.000856624
0.000217898
0.000136804
0.000127296
0.00012596
0.0001257
0.000125726
0.000125526
0.000125708
0.000125635
0.000125324
0.000125549
0.000125223
0.000125122
0.00012533
0.00012507
0.000125142
0.000124846
0.000124686
0.000124802
0.000124564
0.477906
0.327545
0.224185
0.151026
0.0967096
0.0544874
0.0216106
0.00491868
0.000850579
0.000226164
0.000140424
0.000129003
0.000127254
0.000127084
0.000126939
0.000127011
0.000126781
0.000126732
0.000127
0.000126566
0.000126613
0.000126565
0.000126321
0.000126434
0.000126056
0.000126187
0.000126005
0.000125616
0.000125716
0.424394
0.291957
0.200499
0.135466
0.0868396
0.0485246
0.0189947
0.00444905
0.000834915
0.000235581
0.000145611
0.000130573
0.000128896
0.000128921
0.000128731
0.000128208
0.000128437
0.000128422
0.000128087
0.00012856
0.000128137
0.000127733
0.000127813
0.000127714
0.000127824
0.000127334
0.000127446
0.000127209
0.000126681
0.373513
0.257922
0.177691
0.12035
0.0771196
0.0427304
0.0164504
0.00394822
0.00080769
0.000242791
0.000148319
0.000133964
0.000130815
0.000130188
0.000130194
0.000130681
0.000130045
0.000129996
0.000130386
0.000129854
0.00013021
0.000129881
0.000129204
0.000129084
0.00012909
0.00012957
0.000128941
0.00012888
0.000128643
0.325587
0.225664
0.155915
0.105794
0.0677008
0.0369098
0.0139414
0.00346463
0.00076833
0.000247997
0.000154071
0.000136156
0.00013289
0.000132757
0.000132748
0.000132172
0.000132565
0.000132657
0.000131918
0.000132111
0.00013174
0.000132181
0.000131814
0.000131514
0.000131137
0.000130758
0.000131175
0.000130643
0.00013059
0.280883
0.195371
0.135304
0.091883
0.0585085
0.0313321
0.0116138
0.00296804
0.000718576
0.000250495
0.000156902
0.000139692
0.000136529
0.000134853
0.000134375
0.000135068
0.000134664
0.000134394
0.000134866
0.000134595
0.000134667
0.000134074
0.000134347
0.00013398
0.00013335
0.000133266
0.000132736
0.00013304
0.000132437
0.239612
0.167204
0.115978
0.0787042
0.0497941
0.0259408
0.00939096
0.00250535
0.000661735
0.000249759
0.000162693
0.000142672
0.000138363
0.000137686
0.000138153
0.000137271
0.000138032
0.000137837
0.000137161
0.000137271
0.000137001
0.000137468
0.000136861
0.000137184
0.000136712
0.000135598
0.000135667
0.000135249
0.000135666
0.201903
0.141279
0.0980448
0.0663841
0.0414103
0.0208864
0.00744564
0.00206866
0.000600561
0.000247894
0.000164882
0.000146685
0.000142555
0.000141756
0.00014042
0.000140785
0.000140345
0.000140852
0.000140837
0.000140594
0.000140726
0.000140361
0.000140489
0.000139658
0.000140387
0.000140012
0.000138696
0.00013822
0.000137625
0.167825
0.117678
0.081581
0.0549207
0.0336755
0.0163416
0.00572926
0.00168488
0.000536277
0.000243206
0.000170075
0.000150236
0.000145342
0.000144154
0.000144531
0.00014442
0.000144994
0.00014438
0.000144637
0.000144622
0.000144406
0.000144238
0.000143876
0.000144177
0.000143133
0.000143634
0.000143182
0.000142723
0.000141819
0.137382
0.0964436
0.0666538
0.044514
0.0265027
0.0122982
0.00431007
0.00134412
0.00047796
0.000238235
0.000171795
0.000154006
0.000150349
0.000149562
0.000148347
0.000148751
0.00014796
0.000149114
0.000148784
0.00014886
0.000148479
0.000148286
0.00014848
0.000148357
0.000148838
0.000147595
0.000147955
0.000147432
0.00014673
0.110521
0.077588
0.0533241
0.0350633
0.0201632
0.00898498
0.00317353
0.00107283
0.000419593
0.000230594
0.00017572
0.000158903
0.000153706
0.000152231
0.000152713
0.000152867
0.000153628
0.000152649
0.000153659
0.000153259
0.000154055
0.000154234
0.000154036
0.000153863
0.000153337
0.000153989
0.000152393
0.000152768
0.000151998
0.0871418
0.0610903
0.0415842
0.0268176
0.0147112
0.00632458
0.00230684
0.000842201
0.000375383
0.000224566
0.000176611
0.000163946
0.000159516
0.000157923
0.000156756
0.000156761
0.000157148
0.000159233
0.000159098
0.000160783
0.000159375
0.000159835
0.000159455
0.000159557
0.000159457
0.000159096
0.00015968
0.000158116
0.000158355
0.0671115
0.046904
0.0315042
0.019671
0.0103043
0.00436257
0.00166058
0.000677718
0.000331051
0.000218086
0.000181341
0.000166864
0.000162779
0.000162293
0.000162981
0.000163572
0.00016342
0.000163675
0.000164836
0.000164865
0.000167205
0.00016607
0.000166908
0.000166636
0.000166604
0.000166409
0.00016596
0.000166682
0.000165236
0.0502666
0.0349692
0.0230047
0.0138699
0.00694587
0.00294812
0.0012131
0.000541021
0.000302004
0.000214022
0.000182352
0.000172234
0.000168454
0.000168237
0.000168057
0.000168214
0.000168671
0.000170177
0.000171024
0.000171651
0.000171995
0.000175261
0.000174375
0.000176197
0.000176224
0.000176387
0.000176066
0.00017467
0.000174403
0.0364236
0.0251752
0.0161467
0.00931507
0.00456116
0.00200798
0.000889002
0.000451435
0.000275571
0.000211459
0.000185363
0.000175291
0.000173011
0.000173024
0.000173607
0.000174162
0.000175974
0.000176205
0.000177281
0.00017822
0.00018041
0.000181926
0.000186602
0.000184868
0.000186356
0.000185906
0.000186771
0.000186395
0.000184494
0.0253773
0.0174155
0.0108197
0.00605504
0.00295636
0.00137928
0.000680688
0.000379577
0.000260891
0.000208928
0.000188758
0.00018083
0.000179527
0.000178824
0.000179043
0.000179308
0.000181076
0.000183232
0.000184701
0.000187463
0.000189248
0.000190245
0.000192405
0.000198627
0.000197071
0.00019849
0.000197464
0.000198819
0.000198128
0.016891
0.011517
0.00696624
0.00383409
0.00193799
0.000975976
0.000532412
0.000338383
0.000247027
0.000208545
0.000192131
0.000187348
0.000184383
0.000184256
0.000184432
0.000186328
0.000187707
0.000190671
0.000191767
0.000195015
0.000197836
0.000202024
0.000202799
0.00020501
0.000212958
0.000212261
0.000214457
0.000213075
0.000214549
0.0106921
0.00728865
0.00435056
0.00242783
0.0012974
0.000719957
0.000438819
0.000302201
0.000240501
0.000209744
0.000196803
0.000190927
0.000189923
0.000189981
0.000190762
0.000192963
0.000195138
0.000196577
0.000199694
0.000202181
0.00020594
0.000209144
0.000215987
0.000217276
0.00022091
0.000232421
0.000232526
0.000235351
0.00023305
0.00644207
0.00445239
0.00268568
0.00156487
0.000902499
0.00055177
0.000373324
0.000282914
0.000234906
0.000212934
0.000201379
0.000197575
0.000195897
0.000196507
0.000196948
0.000199412
0.00020044
0.000204614
0.000206807
0.000211842
0.000215009
0.000220247
0.000224982
0.000234971
0.000238406
0.000243774
0.000259327
0.00025919
0.00026265
0.00373443
0.00266977
0.0016764
0.00103524
0.000658406
0.000443716
0.000328514
0.000264835
0.00023371
0.00021414
0.000207902
0.000201603
0.000201826
0.000201769
0.000203385
0.000204992
0.000208459
0.000210106
0.000215378
0.000218169
0.000225066
0.000229018
0.000237337
0.000243652
0.000257079
0.000265615
0.000273766
0.000293493
0.000290872
0.00212495
0.00160545
0.00106892
0.00071935
0.00049666
0.000370888
0.00029568
0.000254159
0.000231498
0.000218487
0.000210209
0.000207578
0.000208112
0.00020846
0.000210528
0.000211622
0.000215318
0.000218942
0.000222244
0.000229538
0.000233247
0.000241805
0.000248188
0.000260272
0.000269636
0.000289694
0.000303779
0.000317325
0.00034587
0.00121803
0.000984692
0.000709679
0.000516917
0.000395625
0.000319542
0.00027155
0.000247527
0.000228645
0.000218122
0.000215061
0.000213079
0.000213266
0.000213399
0.000215283
0.000216046
0.000220017
0.000223163
0.000230182
0.000234726
0.000244826
0.000249915
0.000261802
0.00027008
0.000285563
0.000299554
0.000329172
0.000343513
0.000373812
0.000720227
0.000625497
0.000490539
0.000390718
0.000326563
0.000276981
0.000256495
0.000237769
0.000226811
0.000219431
0.000217907
0.000217562
0.000217225
0.000218025
0.000220038
0.000223173
0.000226367
0.000229324
0.000235855
0.000240255
0.000251076
0.000258599
0.000275328
0.000289049
0.000318953
0.000337418
0.000379696
0.000405806
0.000433162
0.000450191
0.00041742
0.000357526
0.000305466
0.000282498
0.000248714
0.000241762
0.000227344
0.000224372
0.000218438
0.000218632
0.00021785
0.000218973
0.000220375
0.000225559
0.000231617
0.000248673
0.000272902
0.000347199
0.000451853
0.000708038
0.00109229
0.00167439
0.00254452
0.00336197
0.00446878
0.00519318
0.00525757
0.00466931
0.000301838
0.000295389
0.000275343
0.000253221
0.000246754
0.000226292
0.000224668
0.000220526
0.000221798
0.000221808
0.000226507
0.000239207
0.000287677
0.000392821
0.000716645
0.00121936
0.00246654
0.00395744
0.00731074
0.010635
0.0168861
0.0236164
0.0321848
0.0430084
0.0522433
0.0674449
0.0743793
0.0895002
0.08355
0.000223379
0.000226781
0.000221363
0.000220694
0.000219312
0.000220635
0.000228879
0.00024572
0.000314807
0.000485107
0.000962056
0.0018828
0.00410828
0.00694223
0.0128159
0.0189265
0.0294482
0.0404686
0.0569607
0.0744396
0.0977176
0.123804
0.154458
0.192788
0.230077
0.288989
0.329736
0.428583
0.434868
0.000181101
0.00019073
0.000207297
0.000233241
0.000333686
0.00042629
0.000888262
0.00149711
0.00337719
0.00638268
0.0120185
0.0190529
0.0302585
0.0433566
0.060973
0.0805859
0.106043
0.134649
0.170492
0.211308
0.260777
0.318537
0.386488
0.470515
0.564339
0.697022
0.824941
1.07771
1.19794
0.000174151
0.000226762
0.000375444
0.000726288
0.00192695
0.00313442
0.0069691
0.0107692
0.0194954
0.0310038
0.0460802
0.0644205
0.0884847
0.116625
0.150849
0.189745
0.236859
0.290685
0.355681
0.430391
0.520198
0.624817
0.75138
0.903292
1.08988
1.32961
1.62626
2.058
2.43292
0.000990138
0.000990139
0.000990139
0.000990139
0.000990139
0.00099014
0.00099014
0.00099014
0.00099014
0.000990141
0.000990141
0.000990141
0.000990141
0.000990141
0.000990142
0.000990142
0.000990142
0.000990142
0.000990143
0.000990143
0.000990143
0.000990143
0.000990144
0.000990144
0.000990144
0.000990144
0.000990145
0.000990145
0.000990145
0.000990146
0.000990146
0.000990146
0.000990146
0.000990147
0.000990147
0.000990147
0.000990148
0.000990148
0.000990148
0.000990148
0.000990149
0.000990149
0.000990149
0.000990149
0.00099015
0.00099015
0.00099015
0.000990151
0.000990151
0.000990151
0.000990151
0.000990152
0.000990152
0.000990152
0.000990153
0.000990153
0.000990153
0.000990153
0.000990154
0.000990154
0.000990154
0.000990154
0.000990154
0.000990155
0.000990155
0.000990155
0.000990155
0.000990155
0.000990155
0.000990156
0.000990156
0.000990156
0.000990156
0.000990156
0.000990156
0.000990156
0.000990156
0.000990156
0.000990157
0.000990157
0.000990157
0.000990157
0.000990157
0.000990157
0.000990157
0.000990157
0.000990157
0.000990157
0.000990157
0.000990157
0.000990156
0.000990156
0.000990156
0.000990156
0.000990156
0.000990156
0.000990156
0.000990156
0.000990155
0.000990155
0.000990155
0.000990154
0.000990154
0.000990154
0.000990154
0.000990153
0.000990153
0.000990153
0.000990152
0.000990152
0.000990152
0.000990152
0.000990151
0.000990151
0.000990151
0.000990151
0.000990151
0.000990152
0.000990152
0.000990152
0.000990152
0.000990153
0.000990153
0.000990154
0.000990154
0.000990155
0.000990155
0.000990156
0.000990156
0.000990156
0.000990157
0.000990158
0.000990158
0.00099016
0.00099016
0.000990162
0.000990161
0.000990205
0.00100821
4.09864e-005
4.09871e-005
4.09875e-005
4.0988e-005
4.09884e-005
4.09889e-005
4.09893e-005
4.09897e-005
4.09901e-005
4.09906e-005
4.0991e-005
4.09914e-005
4.09918e-005
4.09922e-005
4.09926e-005
4.09931e-005
4.09935e-005
4.09939e-005
4.09943e-005
4.09948e-005
4.09952e-005
4.09956e-005
4.09961e-005
4.09965e-005
4.09969e-005
4.09974e-005
4.09978e-005
4.09983e-005
4.09987e-005
4.09992e-005
4.09996e-005
4.10001e-005
4.10005e-005
4.10009e-005
4.10014e-005
4.10019e-005
4.10023e-005
4.10028e-005
4.10033e-005
4.10037e-005
4.10042e-005
4.10047e-005
4.10051e-005
4.10056e-005
4.10061e-005
4.10065e-005
4.1007e-005
4.10074e-005
4.10079e-005
4.10084e-005
4.10088e-005
4.10093e-005
4.10097e-005
4.10102e-005
4.10106e-005
4.10111e-005
4.10115e-005
4.10119e-005
4.10123e-005
4.10127e-005
4.1013e-005
4.10133e-005
4.10137e-005
4.1014e-005
4.10143e-005
4.10145e-005
4.10148e-005
4.10151e-005
4.10154e-005
4.10156e-005
4.10158e-005
4.10161e-005
4.10163e-005
4.10165e-005
4.10166e-005
4.10168e-005
4.1017e-005
4.10171e-005
4.10172e-005
4.10173e-005
4.10174e-005
4.10175e-005
4.10176e-005
4.10177e-005
4.10177e-005
4.10177e-005
4.10177e-005
4.10177e-005
4.10177e-005
4.10176e-005
4.10176e-005
4.10175e-005
4.10174e-005
4.10173e-005
4.10171e-005
4.10169e-005
4.10167e-005
4.10165e-005
4.10162e-005
4.10158e-005
4.10155e-005
4.10151e-005
4.10147e-005
4.10143e-005
4.10139e-005
4.10135e-005
4.1013e-005
4.10126e-005
4.10122e-005
4.10117e-005
4.10113e-005
4.10109e-005
4.10107e-005
4.10106e-005
4.10105e-005
4.10105e-005
4.10106e-005
4.10107e-005
4.10108e-005
4.10112e-005
4.10117e-005
4.10123e-005
4.1013e-005
4.10138e-005
4.10146e-005
4.10152e-005
4.10158e-005
4.10162e-005
4.10167e-005
4.10171e-005
4.10176e-005
4.10186e-005
4.1019e-005
4.10218e-005
4.10208e-005
4.10257e-005
4.10528e-005
4.01145e-005
4.21054e-005
3.38664e-006
3.38689e-006
3.38711e-006
3.38732e-006
3.38752e-006
3.38771e-006
3.38788e-006
3.38806e-006
3.38823e-006
3.38839e-006
3.38855e-006
3.38871e-006
3.38886e-006
3.389e-006
3.38915e-006
3.38929e-006
3.38943e-006
3.38957e-006
3.38971e-006
3.38985e-006
3.38999e-006
3.39013e-006
3.39026e-006
3.3904e-006
3.39054e-006
3.39067e-006
3.39081e-006
3.39095e-006
3.39108e-006
3.39122e-006
3.39136e-006
3.39149e-006
3.39163e-006
3.39176e-006
3.3919e-006
3.39203e-006
3.39216e-006
3.3923e-006
3.39243e-006
3.39257e-006
3.3927e-006
3.39284e-006
3.39297e-006
3.3931e-006
3.39324e-006
3.39337e-006
3.3935e-006
3.39363e-006
3.39376e-006
3.39389e-006
3.39402e-006
3.39415e-006
3.39427e-006
3.39439e-006
3.39451e-006
3.39463e-006
3.39474e-006
3.39486e-006
3.39497e-006
3.39508e-006
3.39519e-006
3.39529e-006
3.3954e-006
3.39551e-006
3.39561e-006
3.39572e-006
3.39582e-006
3.39592e-006
3.39602e-006
3.39612e-006
3.39621e-006
3.3963e-006
3.3964e-006
3.39649e-006
3.39657e-006
3.39666e-006
3.39674e-006
3.39681e-006
3.39689e-006
3.39696e-006
3.39704e-006
3.39711e-006
3.39717e-006
3.39724e-006
3.3973e-006
3.39735e-006
3.39741e-006
3.39746e-006
3.39751e-006
3.39755e-006
3.39759e-006
3.39763e-006
3.39767e-006
3.3977e-006
3.39773e-006
3.39777e-006
3.39779e-006
3.39782e-006
3.39784e-006
3.39786e-006
3.39787e-006
3.39788e-006
3.39788e-006
3.39787e-006
3.39786e-006
3.39785e-006
3.39782e-006
3.39779e-006
3.39776e-006
3.39772e-006
3.39767e-006
3.39763e-006
3.39759e-006
3.39755e-006
3.39751e-006
3.39747e-006
3.39744e-006
3.39741e-006
3.39738e-006
3.39736e-006
3.39734e-006
3.39731e-006
3.39728e-006
3.39725e-006
3.39719e-006
3.39712e-006
3.39701e-006
3.39692e-006
3.39671e-006
3.3967e-006
3.39638e-006
3.39644e-006
3.3961e-006
3.39628e-006
3.39804e-006
3.3883e-006
3.04231e-006
1.38457e-005
0.00229052
4.79359e-007
4.79427e-007
4.79492e-007
4.79555e-007
4.79615e-007
4.79674e-007
4.7973e-007
4.79787e-007
4.79841e-007
4.79896e-007
4.7995e-007
4.80005e-007
4.8006e-007
4.80115e-007
4.80171e-007
4.80227e-007
4.80284e-007
4.80342e-007
4.804e-007
4.80459e-007
4.80519e-007
4.80579e-007
4.80641e-007
4.80702e-007
4.80765e-007
4.80827e-007
4.80891e-007
4.80955e-007
4.81019e-007
4.81083e-007
4.81148e-007
4.81213e-007
4.81279e-007
4.81346e-007
4.81413e-007
4.81481e-007
4.81548e-007
4.81616e-007
4.81682e-007
4.81749e-007
4.81817e-007
4.81883e-007
4.81949e-007
4.82015e-007
4.82081e-007
4.82146e-007
4.82211e-007
4.82276e-007
4.82341e-007
4.82405e-007
4.82469e-007
4.82532e-007
4.82595e-007
4.82657e-007
4.82719e-007
4.8278e-007
4.82841e-007
4.82901e-007
4.82961e-007
4.83022e-007
4.83082e-007
4.83141e-007
4.83199e-007
4.83257e-007
4.83315e-007
4.8337e-007
4.83426e-007
4.8348e-007
4.83534e-007
4.83586e-007
4.83638e-007
4.83689e-007
4.83739e-007
4.83789e-007
4.83838e-007
4.83886e-007
4.83933e-007
4.83979e-007
4.84024e-007
4.84069e-007
4.84112e-007
4.84155e-007
4.84197e-007
4.84238e-007
4.84278e-007
4.84316e-007
4.84353e-007
4.8439e-007
4.84425e-007
4.84459e-007
4.84492e-007
4.84524e-007
4.84554e-007
4.84584e-007
4.84612e-007
4.84639e-007
4.84665e-007
4.8469e-007
4.84714e-007
4.84737e-007
4.84759e-007
4.84779e-007
4.84798e-007
4.84815e-007
4.84832e-007
4.84846e-007
4.8486e-007
4.8487e-007
4.8488e-007
4.84886e-007
4.8489e-007
4.8489e-007
4.84887e-007
4.8488e-007
4.84869e-007
4.84854e-007
4.84836e-007
4.84816e-007
4.84793e-007
4.84769e-007
4.84742e-007
4.84711e-007
4.84678e-007
4.84639e-007
4.84591e-007
4.84543e-007
4.84468e-007
4.84419e-007
4.84306e-007
4.84256e-007
4.84176e-007
4.84002e-007
4.8418e-007
4.83454e-007
4.63262e-007
5.09499e-007
7.90755e-006
0.00128756
0.0472668
2.58232e-007
2.58174e-007
2.58144e-007
2.58115e-007
2.58082e-007
2.58047e-007
2.58007e-007
2.57967e-007
2.57922e-007
2.57876e-007
2.57826e-007
2.57775e-007
2.57721e-007
2.57667e-007
2.57608e-007
2.57549e-007
2.57488e-007
2.57426e-007
2.57362e-007
2.57296e-007
2.57223e-007
2.57155e-007
2.57084e-007
2.57014e-007
2.56942e-007
2.56871e-007
2.56798e-007
2.56725e-007
2.56652e-007
2.56578e-007
2.56503e-007
2.56429e-007
2.56354e-007
2.56279e-007
2.56198e-007
2.56121e-007
2.56046e-007
2.55967e-007
2.55892e-007
2.55816e-007
2.55739e-007
2.55664e-007
2.55589e-007
2.55514e-007
2.55441e-007
2.55368e-007
2.55294e-007
2.55222e-007
2.55144e-007
2.55071e-007
2.54999e-007
2.54928e-007
2.54859e-007
2.54789e-007
2.54721e-007
2.54654e-007
2.54587e-007
2.54521e-007
2.54457e-007
2.54394e-007
2.54331e-007
2.54269e-007
2.5421e-007
2.54151e-007
2.54084e-007
2.54025e-007
2.53967e-007
2.53909e-007
2.53852e-007
2.53797e-007
2.53741e-007
2.53685e-007
2.53631e-007
2.53579e-007
2.53528e-007
2.53477e-007
2.53428e-007
2.5338e-007
2.53334e-007
2.53286e-007
2.53241e-007
2.53196e-007
2.53153e-007
2.53103e-007
2.5306e-007
2.53019e-007
2.52979e-007
2.52939e-007
2.529e-007
2.52862e-007
2.52824e-007
2.52788e-007
2.52753e-007
2.52717e-007
2.52684e-007
2.52651e-007
2.52619e-007
2.52587e-007
2.52556e-007
2.52527e-007
2.52498e-007
2.52469e-007
2.52442e-007
2.52416e-007
2.5239e-007
2.52365e-007
2.5234e-007
2.52317e-007
2.52294e-007
2.52272e-007
2.52251e-007
2.5223e-007
2.5221e-007
2.5219e-007
2.52169e-007
2.52147e-007
2.52124e-007
2.521e-007
2.52075e-007
2.52051e-007
2.52028e-007
2.52007e-007
2.51979e-007
2.51959e-007
2.51939e-007
2.5193e-007
2.51904e-007
2.51908e-007
2.51857e-007
2.51904e-007
2.5179e-007
2.51904e-007
2.51707e-007
2.53119e-007
3.79895e-007
1.00592e-005
0.000889058
0.028733
0.238271
5.11518e-007
5.11087e-007
5.10835e-007
5.10584e-007
5.10311e-007
5.10015e-007
5.09696e-007
5.09363e-007
5.09004e-007
5.08625e-007
5.08225e-007
5.0781e-007
5.07369e-007
5.0692e-007
5.06449e-007
5.05964e-007
5.05458e-007
5.04949e-007
5.0442e-007
5.03876e-007
5.03321e-007
5.02765e-007
5.02193e-007
5.01613e-007
5.01028e-007
5.00441e-007
4.99844e-007
4.99246e-007
4.98642e-007
4.98032e-007
4.97416e-007
4.96807e-007
4.9619e-007
4.9557e-007
4.94947e-007
4.94322e-007
4.93705e-007
4.9308e-007
4.92469e-007
4.91852e-007
4.91231e-007
4.90624e-007
4.90019e-007
4.89414e-007
4.88819e-007