/*--------------------------------*- C++ -*----------------------------------*\
| =========                 |                                                 |
| \\      /  F ield         | OpenFOAM: The Open Source CFD Toolbox           |
|  \\    /   O peration     | Version:  5.x                                   |
|   \\  /    A nd           | Web:      www.OpenFOAM.org                      |
|    \\/     M anipulation  |                                                 |
\*---------------------------------------------------------------------------*/
/*   Windows 32 and 64 bit porting by blueCAPE: http://www.bluecape.com.pt   *\
|  Based on Windows porting (2.0.x v4) by Symscape: http://www.symscape.com   |
\*---------------------------------------------------------------------------*/
FoamFile
{
    version     2.0;
    format      ascii;
    class       volScalarField;
    location    "90";
    object      nut;
}
// * * * * * * * * * * * * * * * * * * * * * * * * * * * * * * * * * * * * * //

dimensions      [0 2 -1 0 0 0 0];

internalField   nonuniform List<scalar> 
43900
(
5.95359e-005
5.80524e-005
5.80664e-005
5.80601e-005
5.80585e-005
5.8059e-005
5.80585e-005
5.80593e-005
5.80593e-005
5.80596e-005
5.80597e-005
5.80598e-005
5.80599e-005
5.806e-005
5.806e-005
5.80601e-005
5.80601e-005
5.80602e-005
5.80602e-005
5.80602e-005
5.80602e-005
5.80602e-005
5.80603e-005
5.80603e-005
5.80603e-005
5.80603e-005
5.80603e-005
5.80603e-005
5.80603e-005
7.60052e-005
4.86647e-006
4.28176e-006
4.42747e-006
4.6056e-006
4.60813e-006
4.60312e-006
4.60431e-006
4.6045e-006
4.60503e-006
4.60537e-006
4.60565e-006
4.6059e-006
4.60612e-006
4.6063e-006
4.60646e-006
4.6066e-006
4.60671e-006
4.6068e-006
4.60687e-006
4.60693e-006
4.60698e-006
4.60703e-006
4.60708e-006
4.60713e-006
4.60718e-006
4.60723e-006
4.60728e-006
4.60729e-006
0.118516
0.0255147
0.00120483
8.85494e-006
6.77225e-007
6.05971e-007
7.18031e-007
7.24191e-007
7.24031e-007
7.24183e-007
7.24369e-007
7.24542e-007
7.247e-007
7.2484e-007
7.24965e-007
7.25077e-007
7.25178e-007
7.25269e-007
7.25353e-007
7.2543e-007
7.25501e-007
7.25567e-007
7.25628e-007
7.25684e-007
7.25737e-007
7.25788e-007
7.25834e-007
7.25879e-007
7.25915e-007
0.387002
0.20489
0.0698227
0.00963477
0.000328418
5.05204e-006
2.35418e-007
1.68225e-007
1.80672e-007
1.81748e-007
1.81822e-007
1.81877e-007
1.81933e-007
1.81982e-007
1.82029e-007
1.82073e-007
1.82115e-007
1.8215e-007
1.82185e-007
1.82208e-007
1.82244e-007
1.82278e-007
1.82309e-007
1.82333e-007
1.82364e-007
1.8238e-007
1.82425e-007
1.82452e-007
1.82475e-007
0.662581
0.484134
0.308339
0.139831
0.0347906
0.00255749
6.04802e-005
1.10165e-006
2.64913e-007
2.49188e-007
2.48968e-007
2.48948e-007
2.4893e-007
2.4897e-007
2.49007e-007
2.49041e-007
2.49065e-007
2.49125e-007
2.49175e-007
2.49351e-007
2.49329e-007
2.49304e-007
2.49286e-007
2.49312e-007
2.49258e-007
2.49293e-007
2.49029e-007
2.48999e-007
2.48983e-007
0.850454
0.679724
0.519619
0.364112
0.201541
0.060538
0.00536706
0.000117936
2.58528e-006
1.02808e-006
1.00931e-006
1.0093e-006
1.00936e-006
1.00978e-006
1.01025e-006
1.01068e-006
1.011e-006
1.01121e-006
1.01146e-006
1.01206e-006
1.01371e-006
1.01316e-006
1.01358e-006
1.01261e-006
1.01256e-006
1.01336e-006
1.01086e-006
1.01027e-006
1.01024e-006
0.964761
0.798773
0.645528
0.498055
0.35023
0.198326
0.0512706
0.00295278
5.1643e-005
1.21247e-005
1.17119e-005
1.17117e-005
1.17182e-005
1.17269e-005
1.17341e-005
1.17402e-005
1.17431e-005
1.17444e-005
1.17498e-005
1.17615e-005
1.17633e-005
1.17575e-005
1.17823e-005
1.1754e-005
1.17536e-005
1.17684e-005
1.17367e-005
1.17225e-005
1.17184e-005
1.0281
0.864419
0.714118
0.570957
0.42965
0.286116
0.135648
0.0195069
0.000470707
7.77814e-005
7.50495e-005
7.50513e-005
7.50952e-005
7.51326e-005
7.51856e-005
7.5314e-005
7.5233e-005
7.52502e-005
7.53139e-005
7.53167e-005
7.53103e-005
7.52619e-005
7.54539e-005
7.52184e-005
7.51619e-005
7.52316e-005
7.51127e-005
7.5034e-005
7.49419e-005
1.03905
0.879444
0.734228
0.596162
0.460393
0.322696
0.179084
0.0427376
0.00186036
0.000313303
0.00030291
0.000302902
0.000302949
0.000303099
0.000303167
0.000303317
0.000303315
0.000303678
0.000303403
0.000303426
0.000303446
0.000303361
0.000303939
0.000303157
0.000302861
0.000302848
0.000302823
0.000302175
0.00030246
1.04612
0.886513
0.740844
0.604341
0.470779
0.335866
0.195955
0.0546598
0.00313287
0.000591863
0.000573142
0.000573098
0.000573099
0.000573133
0.000573218
0.000573167
0.000573411
0.000573038
0.000573031
0.00057303
0.000573117
0.000572941
0.000573631
0.000572731
0.00057252
0.000572185
0.00057188
0.000572348
0.000572503
1.04391
0.886955
0.743185
0.606363
0.4727
0.338483
0.199698
0.0581002
0.00362562
0.000759041
0.000737008
0.000736926
0.00073705
0.000736863
0.00073686
0.000736828
0.000737201
0.000736814
0.000736494
0.000736444
0.000736405
0.00073673
0.000736571
0.000735991
0.000735836
0.000735615
0.000735583
0.000735645
0.00073555
1.03547
0.880071
0.738602
0.604603
0.472521
0.338542
0.200046
0.0585437
0.00379814
0.000849218
0.00082519
0.000825011
0.000825082
0.000824748
0.000824679
0.000824679
0.000824747
0.0008248
0.00082456
0.000824559
0.000824775
0.000824923
0.000824325
0.00082418
0.000824353
0.000823967
0.000824311
0.000823961
0.000823955
1.02403
0.870271
0.73
0.597318
0.46747
0.33585
0.198927
0.0582862
0.00387318
0.00089536
0.000868796
0.000868479
0.00086848
0.000868231
0.000868369
0.00086838
0.000868667
0.000868276
0.000868251
0.000868216
0.000868387
0.000868224
0.000868111
0.000868111
0.000868116
0.000868054
0.000868097
0.000867822
0.000867815
1.01123
0.859308
0.720586
0.589202
0.460309
0.329824
0.194685
0.0565454
0.00381356
0.000917135
0.000888936
0.000888604
0.000888605
0.000888581
0.00088877
0.000888553
0.000888486
0.000888415
0.000888456
0.000888464
0.000888816
0.000888319
0.000888307
0.000888233
0.000888301
0.000888298
0.000888542
0.000888248
0.000888137
0.997473
0.847551
0.710549
0.580656
0.45306
0.323726
0.189296
0.0534954
0.00364162
0.000926956
0.000898218
0.000897771
0.000897773
0.000897781
0.000897461
0.000897415
0.000897498
0.000897433
0.000897428
0.000897424
0.000897772
0.000897439
0.000897509
0.000897346
0.000897344
0.000897291
0.00089757
0.000897231
0.000897407
0.982789
0.835036
0.699915
0.571674
0.445552
0.317559
0.184179
0.0508248
0.00350184
0.000932282
0.000902022
0.00090167
0.000901709
0.000901602
0.000901588
0.000901382
0.000901541
0.000901548
0.000901744
0.00090132
0.000901359
0.00090135
0.000901486
0.000901278
0.000901302
0.000901311
0.0009014
0.000901538
0.000901397
0.967093
0.821701
0.688633
0.562204
0.437714
0.311226
0.179069
0.0483696
0.00340277
0.000936
0.00090398
0.000903423
0.000903315
0.000903279
0.000903425
0.000903249
0.000903404
0.000903456
0.000903283
0.000903158
0.00090338
0.000903266
0.000903419
0.000903426
0.000903203
0.00090328
0.000903019
0.000903196
0.000903471
0.950295
0.807472
0.676639
0.552188
0.429486
0.304664
0.173874
0.0460482
0.00332923
0.000939635
0.000905168
0.000904461
0.00090446
0.000904476
0.000904436
0.000904365
0.00090463
0.000904545
0.000904679
0.000904166
0.000904153
0.000904198
0.000904213
0.000904148
0.000904505
0.00090421
0.00090421
0.000904653
0.000904336
0.932321
0.792286
0.663879
0.54158
0.420829
0.297833
0.168554
0.0438314
0.00327485
0.000943849
0.00090573
0.000904941
0.000904937
0.000904714
0.000905125
0.000904758
0.000904825
0.00090498
0.000904908
0.000904888
0.000905288
0.000904967
0.000905107
0.000905022
0.000904943
0.000905244
0.000904713
0.000904884
0.000905158
0.91311
0.77609
0.650311
0.530345
0.411714
0.290713
0.1631
0.0417132
0.00325743
0.000949068
0.000906961
0.000906069
0.000905993
0.000906184
0.000906058
0.000905527
0.00090596
0.000905726
0.000905722
0.00090551
0.000905435
0.000905702
0.000905341
0.000905401
0.000905655
0.000905565
0.000905219
0.000906058
0.000905721
0.892606
0.75884
0.635898
0.518455
0.402122
0.283291
0.157508
0.0396957
0.00325429
0.000955248
0.000907904
0.000906288
0.000906414
0.00090653
0.000906332
0.000906685
0.000906277
0.000906437
0.000906627
0.000906183
0.000906443
0.000906348
0.000905863
0.000906116
0.000906473
0.000906193
0.000906382
0.000906508
0.000906418
0.870764
0.740499
0.62061
0.505884
0.392031
0.275553
0.15178
0.0377755
0.00326887
0.000963027
0.000908751
0.000907755
0.000907479
0.000907562
0.000907685
0.000907271
0.000907782
0.00090729
0.000907196
0.000907099
0.00090739
0.000907039
0.000907109
0.00090737
0.0009071
0.000907276
0.000907161
0.000907046
0.000907494
0.847552
0.721036
0.60442
0.492611
0.381426
0.26749
0.14591
0.0359561
0.00329587
0.000972079
0.000910835
0.000908609
0.000908521
0.000908324
0.000908357
0.000908223
0.000908675
0.000908627
0.00090818
0.00090842
0.000908116
0.000908016
0.000908781
0.00090816
0.000908461
0.000908219
0.000907788
0.000908284
0.000908206
0.822943
0.700429
0.587305
0.478615
0.370284
0.259074
0.139906
0.0342186
0.00334511
0.000984848
0.000911953
0.0009103
0.000910013
0.000909582
0.000909327
0.00091011
0.000909644
0.000909347
0.000909817
0.000909323
0.000909313
0.000909917
0.000909495
0.000909652
0.000909914
0.00090908
0.000909325
0.000909325
0.000909172
0.796926
0.678661
0.569249
0.463878
0.358595
0.25031
0.133742
0.0325776
0.00339623
0.000998145
0.000915006
0.00091152
0.00091124
0.000911062
0.000911494
0.000911175
0.000910731
0.000911248
0.00091093
0.000910652
0.000911425
0.000910857
0.000910939
0.000911316
0.000910731
0.000911058
0.000910862
0.000910361
0.000910946
0.769503
0.65573
0.550241
0.448384
0.346329
0.241135
0.127442
0.0309704
0.00347026
0.00101755
0.000917235
0.000914021
0.000912847
0.000913313
0.000912858
0.000912953
0.000913734
0.000912722
0.000912579
0.000913464
0.000912702
0.000912699
0.000912877
0.000912233
0.000912822
0.000912911
0.000912034
0.000912503
0.000912092
0.74069
0.631635
0.53027
0.432115
0.333478
0.231576
0.12093
0.0294537
0.003537
0.0010382
0.00092053
0.000915808
0.000916249
0.00091622
0.00091603
0.000915849
0.000915159
0.000915399
0.000916087
0.000914837
0.000914715
0.000915353
0.000914374
0.000914925
0.000914525
0.000914033
0.000914683
0.000914384
0.000914309
0.710522
0.6064
0.509349
0.415075
0.320019
0.221543
0.114313
0.0279171
0.00361411
0.00106257
0.00092524
0.000919999
0.00091828
0.000918264
0.000918008
0.000917819
0.000918413
0.000918528
0.000917414
0.000917658
0.000918106
0.000917071
0.000917413
0.00091675
0.000916887
0.000917252
0.000916612
0.000916018
0.000915839
0.679041
0.58004
0.487466
0.397226
0.305919
0.211049
0.107336
0.0264012
0.0036816
0.00109345
0.000930104
0.000922288
0.00092231
0.00092167
0.000921294
0.00092134
0.000920999
0.000920604
0.000921178
0.000920558
0.000919973
0.000920498
0.000920334
0.000920234
0.000919261
0.000919332
0.000919117
0.000918999
0.000919528
0.646331
0.552612
0.464664
0.378608
0.291184
0.199997
0.100316
0.0248681
0.00373822
0.00112573
0.000933582
0.000927309
0.000925205
0.000925306
0.000924533
0.000924041
0.000925059
0.000925077
0.000923824
0.000924458
0.000924221
0.000923641
0.00092338
0.000922832
0.000923514
0.000922559
0.0009226
0.000922993
0.000921786
0.612465
0.524159
0.44095
0.359187
0.275793
0.188475
0.0928728
0.0232503
0.00376993
0.00115652
0.000943709
0.000930368
0.000930184
0.000929644
0.000929157
0.000929436
0.00092835
0.000929044
0.000929629
0.000927779
0.000928225
0.000928239
0.000927702
0.00092803
0.000926674
0.00092741
0.000927046
0.000925455
0.000925765
0.577558
0.494757
0.416372
0.338997
0.259708
0.176184
0.0852807
0.0216149
0.00376142
0.00119852
0.000949533
0.000937028
0.000935371
0.000934581
0.000934769
0.000933916
0.000934741
0.000934547
0.000933046
0.000934038
0.000932729
0.00093212
0.000933242
0.000932396
0.000932639
0.000931186
0.000930256
0.000930901
0.000929956
0.541747
0.464503
0.39099
0.318058
0.24299
0.163501
0.0774134
0.0198491
0.00373599
0.0012265
0.000959064
0.000942722
0.000940802
0.00094105
0.000940287
0.000940594
0.000939717
0.000939477
0.000940709
0.000938786
0.000938956
0.000939092
0.000937973
0.000938314
0.000936695
0.000937191
0.000936583
0.000934705
0.000935024
0.505172
0.433497
0.364873
0.296419
0.225603
0.14992
0.0692938
0.0180578
0.00367116
0.00126079
0.000974357
0.000947566
0.000947911
0.000949016
0.000948685
0.000946221
0.000947252
0.000947438
0.000945951
0.000947979
0.000946413
0.000944318
0.000944591
0.000944285
0.000944767
0.000942548
0.000943131
0.000942353
0.000939778
0.468015
0.401876
0.338113
0.27412
0.207586
0.135975
0.061124
0.0161419
0.00355938
0.00128676
0.000981041
0.000959766
0.000956766
0.0009549
0.000955161
0.00095747
0.000954849
0.000954672
0.000956551
0.000954155
0.000955583
0.000954376
0.000951372
0.000950409
0.000950424
0.000952769
0.000950478
0.000950139
0.000949238
0.430469
0.369793
0.310834
0.251284
0.189053
0.121231
0.0527962
0.0142593
0.00340004
0.00130629
0.000998557
0.000967185
0.000964433
0.000966073
0.00096666
0.000964332
0.000965883
0.000966542
0.000963575
0.000964458
0.000962757
0.000964705
0.000963628
0.00096225
0.000960517
0.000958393
0.000960167
0.000958288
0.000957987
0.392752
0.33742
0.283169
0.227974
0.169904
0.106239
0.0447933
0.0123247
0.00319631
0.0013146
0.00100707
0.000979073
0.000980137
0.000975694
0.000973987
0.000977094
0.000975664
0.000974438
0.000976669
0.000975664
0.000975993
0.000973297
0.000974238
0.000972835
0.000970319
0.000969899
0.000967312
0.000968597
0.000966386
0.355107
0.304963
0.255287
0.204377
0.150523
0.090923
0.0369136
0.0104799
0.00296574
0.00131156
0.00102652
0.000988572
0.000987142
0.000986909
0.000990097
0.000986798
0.00098994
0.000989376
0.00098669
0.000987011
0.00098602
0.000988012
0.000985731
0.000987148
0.000985645
0.000980715
0.00098058
0.00097847
0.000980168
0.317798
0.272652
0.227405
0.180676
0.130648
0.0756545
0.0297653
0.00874321
0.00271535
0.00130413
0.00103386
0.00100327
0.00100331
0.00100625
0.00100058
0.00100236
0.00100023
0.0010023
0.00100241
0.00100168
0.00100213
0.00100071
0.00100118
0.000997869
0.00100099
0.000999703
0.00099455
0.000992376
0.000989133
0.28111
0.240743
0.199729
0.157017
0.110936
0.0611268
0.0233111
0.00718421
0.00245415
0.00128686
0.00105314
0.00101556
0.00101448
0.00101527
0.00101783
0.00101777
0.00102042
0.00101795
0.0010188
0.00101885
0.00101846
0.00101779
0.00101619
0.00101734
0.0010129
0.00101489
0.00101356
0.00101205
0.0010091
0.24535
0.209526
0.172569
0.133834
0.0913226
0.0474531
0.0177977
0.00580251
0.00221423
0.00126852
0.00105986
0.0010304
0.00103405
0.00103764
0.00103548
0.00103729
0.00103354
0.00103807
0.00103695
0.0010374
0.00103628
0.00103537
0.00103579
0.00103517
0.00103716
0.00103238
0.00103373
0.00103198
0.0010294
0.210842
0.179322
0.146224
0.11114
0.0725857
0.0356527
0.0133148
0.00468422
0.00198023
0.00124203
0.00107643
0.00104842
0.00104687
0.00104865
0.00105197
0.00105318
0.00105723
0.00105323
0.00105707
0.0010558
0.00105904
0.00105987
0.00105947
0.00105869
0.00105603
0.00105804
0.00105192
0.00105339
0.00105104
0.17793
0.150467
0.121026
0.0896293
0.05529
0.0257496
0.00981447
0.00374224
0.00179995
0.00122132
0.00108157
0.00106727
0.00106942
0.0010731
0.00107143
0.00107152
0.00107341
0.00108183
0.00108091
0.00108658
0.00108083
0.00108212
0.00108079
0.00108139
0.00108118
0.00108015
0.00108218
0.00107642
0.00107747
0.14697
0.123343
0.0974369
0.0694151
0.0402594
0.018166
0.00719006
0.00305958
0.0016289
0.00120348
0.00110222
0.00107924
0.00108216
0.00108621
0.00109253
0.00109846
0.00109872
0.0011
0.00110481
0.00110475
0.00111315
0.00110911
0.00111188
0.00111069
0.00111041
0.00110985
0.00110818
0.00111025
0.0011048
0.118336
0.098347
0.0757476
0.0515223
0.0281315
0.0125527
0.00533745
0.00250642
0.00151767
0.00119443
0.00110949
0.00110081
0.00110503
0.00111388
0.00111804
0.00111946
0.00112196
0.00112832
0.00113132
0.00113338
0.00113418
0.00114554
0.00114318
0.00114977
0.00114965
0.0011498
0.00114854
0.00114363
0.0011417
0.092405
0.0758676
0.0565854
0.0363594
0.0190556
0.00873536
0.00401148
0.00214058
0.00142308
0.00119348
0.00112788
0.0011148
0.00112316
0.00113083
0.00113765
0.00114203
0.00115181
0.00115324
0.00115819
0.0011618
0.00116997
0.0011745
0.0011886
0.00118261
0.00118766
0.00118616
0.00118902
0.0011877
0.00118182
0.069565
0.0563192
0.0403249
0.0246952
0.0127394
0.00615273
0.00314835
0.00186401
0.00137689
0.00119567
0.00114587
0.00113966
0.00115017
0.00115634
0.00115917
0.00116234
0.00117344
0.00118223
0.00118887
0.00119975
0.00120565
0.00120957
0.00121619
0.00123499
0.00122942
0.00123352
0.00122995
0.00123448
0.00123264
0.0501735
0.0400167
0.0275257
0.0163048
0.00860723
0.00448621
0.00254863
0.00170793
0.00134131
0.00120709
0.00116803
0.00116796
0.00117316
0.00117894
0.00118119
0.00119211
0.00119891
0.00121192
0.00121617
0.00122871
0.00123956
0.00125419
0.00125738
0.00126334
0.00128712
0.00128582
0.0012927
0.00128769
0.00129126
0.0345155
0.0272182
0.0181713
0.0107496
0.00596609
0.00342374
0.00217612
0.00158712
0.00133526
0.0012266
0.00119511
0.00118964
0.00119795
0.00120106
0.00120733
0.00122038
0.00122965
0.00123571
0.00124841
0.00125727
0.0012718
0.00128298
0.00130564
0.00131265
0.00132362
0.0013565
0.00135845
0.0013683
0.0013611
0.0226641
0.0178648
0.0118375
0.00722335
0.00431516
0.00273227
0.00192912
0.00153027
0.00133519
0.00125944
0.00122649
0.00122497
0.00122667
0.0012306
0.00123388
0.00124632
0.00125101
0.00126742
0.00127601
0.00129528
0.00130699
0.00132707
0.00134254
0.00137006
0.00139277
0.00140818
0.00144861
0.00144956
0.00146062
0.0143526
0.0115068
0.00779192
0.0050059
0.0032853
0.00229434
0.00176657
0.00148457
0.00135334
0.00127973
0.00126524
0.00125111
0.0012548
0.00125611
0.00126333
0.0012704
0.0012847
0.00129083
0.00130961
0.00131983
0.00134484
0.00135882
0.00139175
0.00140898
0.00143638
0.00149628
0.00151274
0.00155629
0.00154676
0.00893993
0.00743017
0.0052519
0.00364907
0.0026026
0.00200334
0.00165666
0.00146771
0.00136474
0.00132072
0.00128779
0.00128273
0.00128614
0.00128811
0.00129643
0.00130084
0.00131494
0.00132925
0.00134081
0.00136617
0.0013785
0.0014101
0.0014216
0.00146857
0.00149415
0.00154056
0.00161314
0.00165112
0.00173415
0.00561658
0.00489381
0.00368862
0.00276565
0.00216998
0.00180471
0.00157556
0.00145817
0.00137586
0.00133134
0.00132317
0.00131229
0.00131253
0.00131242
0.00131915
0.00132075
0.00133366
0.0013455
0.00137202
0.00138904
0.00142642
0.00144718
0.00149718
0.00151611
0.00155995
0.00159266
0.00167864
0.00172165
0.0017779
0.00364091
0.0033361
0.00270114
0.00220249
0.0018718
0.00163378
0.00152301
0.00143762
0.00138143
0.00134834
0.00134036
0.00133549
0.00133284
0.00133602
0.00134166
0.00136186
0.0013674
0.00137529
0.00139444
0.00140559
0.0014346
0.00144155
0.0014685
0.00146055
0.00148072
0.00145556
0.00147674
0.00153854
0.00161388
0.00248693
0.00238233
0.00207891
0.00181167
0.00167199
0.00151282
0.00147249
0.00139873
0.00138125
0.00134712
0.00134389
0.00133807
0.00134032
0.0013398
0.00134454
0.00133087
0.00130206
0.00120258
0.00113132
0.0011314
0.0013809
0.00175445
0.00242288
0.00314388
0.00396725
0.00454481
0.00509809
0.00438424
0.00377199
0.00181037
0.00179383
0.00168296
0.00155959
0.00151437
0.00140719
0.0013887
0.00136046
0.00136138
0.00134712
0.001323
0.00126352
0.00116161
0.00115324
0.00154996
0.00216129
0.00378976
0.0054038
0.00902843
0.0120606
0.0173652
0.0224621
0.0279894
0.0342612
0.0385705
0.0449429
0.0460758
0.0483091
0.0422446
0.00142981
0.00144574
0.00141045
0.00139286
0.00137357
0.00136392
0.00134884
0.00130494
0.0012456
0.00136891
0.00201747
0.00327893
0.00627834
0.00921168
0.0152637
0.0206298
0.0287071
0.0363698
0.0463528
0.0560579
0.0670259
0.0788992
0.0897935
0.104137
0.113244
0.13113
0.136642
0.159951
0.14235
0.00121905
0.00126315
0.00132982
0.00138565
0.00170556
0.00162926
0.0023994
0.00313228
0.00581825
0.00921804
0.0149589
0.0210784
0.029293
0.0378226
0.0478617
0.0579725
0.0694501
0.0814912
0.0945311
0.108802
0.123215
0.140244
0.155583
0.176819
0.191921
0.221019
0.232763
0.280539
0.269618
0.00117441
0.00135403
0.00173155
0.00243362
0.00538728
0.00621059
0.0107129
0.0136299
0.0207102
0.028929
0.0369173
0.0464546
0.0569419
0.0684457
0.0806847
0.0936573
0.107375
0.122408
0.138168
0.155903
0.173767
0.195035
0.214933
0.241713
0.263308
0.300596
0.322734
0.381459
0.381915
5.80603e-005
5.80604e-005
5.80604e-005
5.80604e-005
5.80604e-005
5.80604e-005
5.80604e-005
5.80605e-005
5.80605e-005
5.80605e-005
5.80605e-005
5.80605e-005
5.80606e-005
5.80606e-005
5.80606e-005
5.80606e-005
5.80606e-005
5.80606e-005
5.80607e-005
5.80607e-005
5.80607e-005
5.80607e-005
5.80607e-005
5.80608e-005
5.80608e-005
5.80608e-005
5.80608e-005
5.80608e-005
5.80609e-005
5.80609e-005
5.80609e-005
5.80609e-005
5.80609e-005
5.8061e-005
5.8061e-005
5.8061e-005
5.8061e-005
5.80611e-005
5.80611e-005
5.80611e-005
5.80611e-005
5.80611e-005
5.80612e-005
5.80612e-005
5.80612e-005
5.80612e-005
5.80613e-005
5.80613e-005
5.80613e-005
5.80613e-005
5.80613e-005
5.80614e-005
5.80614e-005
5.80614e-005
5.80614e-005
5.80614e-005
5.80615e-005
5.80615e-005
5.80615e-005
5.80615e-005
5.80615e-005
5.80616e-005
5.80616e-005
5.80616e-005
5.80616e-005
5.80616e-005
5.80616e-005
5.80616e-005
5.80616e-005
5.80617e-005
5.80617e-005
5.80617e-005
5.80617e-005
5.80617e-005
5.80617e-005
5.80617e-005
5.80617e-005
5.80617e-005
5.80617e-005
5.80617e-005
5.80617e-005
5.80617e-005
5.80617e-005
5.80617e-005
5.80617e-005
5.80617e-005
5.80617e-005
5.80617e-005
5.80617e-005
5.80617e-005
5.80617e-005
5.80617e-005
5.80617e-005
5.80617e-005
5.80617e-005
5.80617e-005
5.80617e-005
5.80616e-005
5.80616e-005
5.80616e-005
5.80616e-005
5.80616e-005
5.80615e-005
5.80615e-005
5.80615e-005
5.80615e-005
5.80615e-005
5.80614e-005
5.80614e-005
5.80614e-005
5.80614e-005
5.80613e-005
5.80613e-005
5.80613e-005
5.80613e-005
5.80613e-005
5.80613e-005
5.80613e-005
5.80614e-005
5.80614e-005
5.80614e-005
5.80614e-005
5.80615e-005
5.80615e-005
5.80616e-005
5.80616e-005
5.80616e-005
5.80617e-005
5.80617e-005
5.80617e-005
5.80618e-005
5.80618e-005
5.80618e-005
5.8062e-005
5.8062e-005
5.80622e-005
5.80621e-005
5.80658e-005
5.93276e-005
4.60735e-006
4.60743e-006
4.60749e-006
4.60754e-006
4.60759e-006
4.60765e-006
4.6077e-006
4.60775e-006
4.6078e-006
4.60785e-006
4.6079e-006
4.60795e-006
4.608e-006
4.60805e-006
4.6081e-006
4.60815e-006
4.6082e-006
4.60825e-006
4.6083e-006
4.60835e-006
4.6084e-006
4.60845e-006
4.6085e-006
4.60855e-006
4.6086e-006
4.60865e-006
4.6087e-006
4.60876e-006
4.60881e-006
4.60886e-006
4.60891e-006
4.60896e-006
4.60901e-006
4.60907e-006
4.60912e-006
4.60917e-006
4.60923e-006
4.60928e-006
4.60933e-006
4.60939e-006
4.60944e-006
4.60949e-006
4.60955e-006
4.6096e-006
4.60965e-006
4.60971e-006
4.60976e-006
4.60981e-006
4.60986e-006
4.60992e-006
4.60997e-006
4.61002e-006
4.61007e-006
4.61012e-006
4.61017e-006
4.61022e-006
4.61027e-006
4.61032e-006
4.61037e-006
4.61041e-006
4.61045e-006
4.61048e-006
4.61052e-006
4.61055e-006
4.61059e-006
4.61062e-006
4.61065e-006
4.61069e-006
4.61072e-006
4.61074e-006
4.61077e-006
4.6108e-006
4.61082e-006
4.61084e-006
4.61087e-006
4.61089e-006
4.6109e-006
4.61092e-006
4.61094e-006
4.61095e-006
4.61096e-006
4.61097e-006
4.61098e-006
4.61099e-006
4.611e-006
4.611e-006
4.611e-006
4.611e-006
4.611e-006
4.61099e-006
4.61099e-006
4.61098e-006
4.61097e-006
4.61095e-006
4.61094e-006
4.61092e-006
4.6109e-006
4.61087e-006
4.61084e-006
4.61081e-006
4.61077e-006
4.61072e-006
4.61068e-006
4.61064e-006
4.61059e-006
4.61055e-006
4.6105e-006
4.61046e-006
4.61041e-006
4.61036e-006
4.61031e-006
4.61026e-006
4.61024e-006
4.61023e-006
4.61022e-006
4.61022e-006
4.61022e-006
4.61023e-006
4.61025e-006
4.61029e-006
4.61034e-006
4.61041e-006
4.61049e-006
4.61057e-006
4.61066e-006
4.61073e-006
4.61079e-006
4.61084e-006
4.61088e-006
4.61093e-006
4.61098e-006
4.6111e-006
4.61112e-006
4.61144e-006
4.61131e-006
4.61189e-006
4.61634e-006
4.46207e-006
4.72855e-006
7.25963e-007
7.26018e-007
7.26066e-007
7.2611e-007
7.26153e-007
7.26194e-007
7.26233e-007
7.26271e-007
7.26308e-007
7.26343e-007
7.26377e-007
7.26411e-007
7.26444e-007
7.26476e-007
7.26507e-007
7.26539e-007
7.26569e-007
7.266e-007
7.2663e-007
7.2666e-007
7.2669e-007
7.2672e-007
7.2675e-007
7.2678e-007
7.2681e-007
7.2684e-007
7.2687e-007
7.269e-007
7.26929e-007
7.26959e-007
7.26989e-007
7.27019e-007
7.27048e-007
7.27078e-007
7.27108e-007
7.27137e-007
7.27167e-007
7.27196e-007
7.27226e-007
7.27255e-007
7.27285e-007
7.27314e-007
7.27343e-007
7.27373e-007
7.27402e-007
7.27431e-007
7.2746e-007
7.27488e-007
7.27517e-007
7.27545e-007
7.27573e-007
7.276e-007
7.27627e-007
7.27654e-007
7.27681e-007
7.27706e-007
7.27732e-007
7.27756e-007
7.27781e-007
7.27805e-007
7.27829e-007
7.27853e-007
7.27877e-007
7.27901e-007
7.27924e-007
7.27947e-007
7.2797e-007
7.27992e-007
7.28014e-007
7.28036e-007
7.28057e-007
7.28078e-007
7.28098e-007
7.28118e-007
7.28138e-007
7.28156e-007
7.28175e-007
7.28192e-007
7.2821e-007
7.28226e-007
7.28243e-007
7.28258e-007
7.28274e-007
7.28288e-007
7.28302e-007
7.28315e-007
7.28328e-007
7.2834e-007
7.28351e-007
7.28362e-007
7.28372e-007
7.28381e-007
7.2839e-007
7.28398e-007
7.28406e-007
7.28413e-007
7.2842e-007
7.28426e-007
7.28432e-007
7.28437e-007
7.2844e-007
7.28443e-007
7.28444e-007
7.28445e-007
7.28444e-007
7.28442e-007
7.28439e-007
7.28434e-007
7.28428e-007
7.28421e-007
7.28412e-007
7.28403e-007
7.28395e-007
7.28386e-007
7.28377e-007
7.28368e-007
7.28359e-007
7.28351e-007
7.28344e-007
7.28338e-007
7.28332e-007
7.28325e-007
7.28317e-007
7.28308e-007
7.28295e-007
7.28277e-007
7.28251e-007
7.28232e-007
7.28183e-007
7.28179e-007
7.28108e-007
7.28111e-007
7.28053e-007
7.28064e-007
7.28678e-007
7.25569e-007
6.23407e-007
5.63156e-006
0.00151929
1.82496e-007
1.82524e-007
1.8255e-007
1.82576e-007
1.826e-007
1.82624e-007
1.82647e-007
1.82671e-007
1.82693e-007
1.82716e-007
1.82739e-007
1.82762e-007
1.82785e-007
1.82809e-007
1.82833e-007
1.82857e-007
1.82881e-007
1.82905e-007
1.8293e-007
1.82956e-007
1.82982e-007
1.83008e-007
1.83034e-007
1.83061e-007
1.83088e-007
1.83115e-007
1.83142e-007
1.83169e-007
1.83197e-007
1.83225e-007
1.83253e-007
1.83281e-007
1.83309e-007
1.83338e-007
1.83367e-007
1.83396e-007
1.83425e-007
1.83454e-007
1.83483e-007
1.83512e-007
1.83541e-007
1.8357e-007
1.83598e-007
1.83627e-007
1.83655e-007
1.83683e-007
1.83711e-007
1.83739e-007
1.83768e-007
1.83795e-007
1.83823e-007
1.8385e-007
1.83877e-007
1.83904e-007
1.83931e-007
1.83957e-007
1.83984e-007
1.8401e-007
1.84036e-007
1.84062e-007
1.84088e-007
1.84113e-007
1.84138e-007
1.84163e-007
1.84188e-007
1.84212e-007
1.84236e-007
1.8426e-007
1.84283e-007
1.84306e-007
1.84328e-007
1.84351e-007
1.84373e-007
1.84394e-007
1.84415e-007
1.84436e-007
1.84457e-007
1.84477e-007
1.84496e-007
1.84516e-007
1.84535e-007
1.84554e-007
1.84572e-007
1.8459e-007
1.84608e-007
1.84625e-007
1.84641e-007
1.84657e-007
1.84673e-007
1.84688e-007
1.84703e-007
1.84718e-007
1.84732e-007
1.84745e-007
1.84758e-007
1.8477e-007
1.84782e-007
1.84793e-007
1.84804e-007
1.84815e-007
1.84825e-007
1.84834e-007
1.84843e-007
1.84852e-007
1.8486e-007
1.84867e-007
1.84874e-007
1.84879e-007
1.84885e-007
1.84888e-007
1.84892e-007
1.84893e-007
1.84893e-007
1.84891e-007
1.84888e-007
1.84883e-007
1.84877e-007
1.8487e-007
1.84862e-007
1.84853e-007
1.84843e-007
1.84832e-007
1.8482e-007
1.84806e-007
1.84789e-007
1.84772e-007
1.84746e-007
1.84727e-007
1.84688e-007
1.84665e-007
1.84639e-007
1.84569e-007
1.84641e-007
1.84304e-007
1.72636e-007
2.0456e-007
7.4813e-006
0.00142625
0.0330011
2.48996e-007
2.48882e-007
2.48821e-007
2.48756e-007
2.487e-007
2.48631e-007
2.4856e-007
2.48486e-007
2.48404e-007
2.48322e-007
2.48233e-007
2.48144e-007
2.4805e-007
2.47956e-007
2.47856e-007
2.47755e-007
2.4765e-007
2.47547e-007
2.47438e-007
2.47326e-007
2.47204e-007
2.47088e-007
2.46969e-007
2.46849e-007
2.46728e-007
2.46608e-007
2.46485e-007
2.46364e-007
2.4624e-007
2.46115e-007
2.45988e-007
2.45863e-007
2.45736e-007
2.45608e-007
2.45473e-007
2.45343e-007
2.45217e-007
2.45084e-007
2.44956e-007
2.44826e-007
2.44695e-007
2.44567e-007
2.44439e-007
2.44311e-007
2.44185e-007
2.44062e-007
2.43936e-007
2.43812e-007
2.43678e-007
2.43554e-007
2.4343e-007
2.43308e-007
2.43188e-007
2.43068e-007
2.4295e-007
2.42836e-007
2.42721e-007
2.42606e-007
2.42494e-007
2.42384e-007
2.42274e-007
2.42166e-007
2.42063e-007
2.41959e-007
2.41846e-007
2.41746e-007
2.41644e-007
2.41543e-007
2.41444e-007
2.41347e-007
2.41251e-007
2.41153e-007
2.4106e-007
2.4097e-007
2.4088e-007
2.40792e-007
2.40706e-007
2.40623e-007
2.40543e-007
2.40461e-007
2.40381e-007
2.40303e-007
2.40227e-007
2.40143e-007
2.40068e-007
2.39996e-007
2.39927e-007
2.39857e-007
2.3979e-007
2.39724e-007
2.39659e-007
2.39597e-007
2.39535e-007
2.39475e-007
2.3942e-007
2.39363e-007
2.39309e-007
2.39255e-007
2.39203e-007
2.39154e-007
2.39106e-007
2.39059e-007
2.39014e-007
2.38971e-007
2.3893e-007
2.38889e-007
2.38851e-007
2.38815e-007
2.38781e-007
2.38749e-007
2.38718e-007
2.38691e-007
2.38665e-007
2.3864e-007
2.38617e-007
2.38593e-007
2.3857e-007
2.38547e-007
2.38523e-007
2.38501e-007
2.38483e-007
2.38468e-007
2.38446e-007
2.38435e-007
2.38431e-007
2.3844e-007
2.38436e-007
2.38469e-007
2.38425e-007
2.38549e-007
2.38362e-007
2.3869e-007
2.38244e-007
2.41002e-007
4.30218e-007
1.79868e-005
0.00145317
0.032166
0.167279
1.01075e-006
1.00937e-006
1.00861e-006
1.00785e-006
1.00706e-006
1.00619e-006
1.00525e-006
1.00427e-006
1.00322e-006
1.00211e-006
1.00094e-006
9.99728e-007
9.98445e-007
9.97138e-007
9.95767e-007
9.94358e-007
9.92888e-007
9.91429e-007
9.89901e-007
9.88329e-007
9.86726e-007
9.85123e-007
9.83473e-007
9.81802e-007
9.80115e-007
9.78423e-007
9.76703e-007
9.75002e-007
9.7327e-007
9.71523e-007
9.69756e-007
9.68013e-007
9.66247e-007
9.64474e-007
9.62694e-007
9.60908e-007
9.59164e-007
9.57388e-007
9.55648e-007
9.53893e-007
9.52129e-007
9.50405e-007
9.48685e-007
9.46967e-007
9.45277e-007
9.43606e-007
9.41932e-007
9.4028e-007
9.38615e-007
9.36997e-007
9.35384e-007
9.33786e-007
9.32216e-007
9.3066e-007
9.2912e-007
9.27624e-007
9.26122e-007
9.24649e-007
9.23194e-007
9.21765e-007
9.20353e-007
9.18951e-007
9.17599e-007
9.16245e-007
9.14895e-007
9.13606e-007
9.12308e-007
9.1104e-007
9.09789e-007
9.08568e-007
9.07367e-007
9.06175e-007
9.05e-007
9.03866e-007
9.02743e-007
9.01633e-007
9.00554e-007
8.995e-007
8.9848e-007
8.9746e-007
8.96459e-007
8.9547e-007
8.94512e-007
8.93556e-007
8.92623e-007