/*--------------------------------*- C++ -*----------------------------------*\
| =========                 |                                                 |
| \\      /  F ield         | OpenFOAM: The Open Source CFD Toolbox           |
|  \\    /   O peration     | Version:  5.x                                   |
|   \\  /    A nd           | Web:      www.OpenFOAM.org                      |
|    \\/     M anipulation  |                                                 |
\*---------------------------------------------------------------------------*/
/*   Windows 32 and 64 bit porting by blueCAPE: http://www.bluecape.com.pt   *\
|  Based on Windows porting (2.0.x v4) by Symscape: http://www.symscape.com   |
\*---------------------------------------------------------------------------*/
FoamFile
{
    version     2.0;
    format      ascii;
    class       volScalarField;
    location    "90";
    object      p;
}
// * * * * * * * * * * * * * * * * * * * * * * * * * * * * * * * * * * * * * //

dimensions      [0 2 -2 0 0 0 0];

internalField   nonuniform List<scalar> 
43900
(
0.450156
0.450025
0.449884
0.449741
0.449602
0.449349
0.449198
0.448929
0.448681
0.448416
0.448128
0.447833
0.447528
0.447212
0.446886
0.446553
0.446211
0.445862
0.445506
0.445145
0.444777
0.444404
0.444026
0.443642
0.443254
0.442862
0.442465
0.442063
0.441658
0.449077
0.455151
0.45067
0.452959
0.451267
0.451722
0.45113
0.450898
0.450564
0.450161
0.449821
0.449459
0.449092
0.448723
0.448351
0.447975
0.447597
0.447214
0.446829
0.446439
0.446046
0.44565
0.44525
0.444847
0.44444
0.444031
0.443618
0.443203
0.442784
0.444407
0.462296
0.451819
0.458258
0.452893
0.455469
0.453122
0.453422
0.452565
0.452137
0.451636
0.451138
0.450656
0.450182
0.449716
0.449255
0.448798
0.448345
0.447895
0.447446
0.446998
0.446551
0.446103
0.445656
0.445207
0.444758
0.444307
0.443854
0.4434
0.437308
0.462078
0.455602
0.456198
0.455152
0.45513
0.453811
0.453888
0.452995
0.452689
0.452143
0.451645
0.451155
0.450668
0.450184
0.449701
0.449221
0.448742
0.448265
0.447789
0.447314
0.446839
0.446365
0.44589
0.445414
0.444937
0.44446
0.443981
0.4435
0.437871
0.460559
0.45577
0.45493
0.455071
0.454764
0.454359
0.454177
0.453724
0.453449
0.453065
0.452693
0.452316
0.451931
0.451537
0.451136
0.450728
0.450313
0.449893
0.449466
0.449034
0.448597
0.448154
0.447707
0.447254
0.446797
0.446334
0.445867
0.445396
0.44436
0.459462
0.456692
0.456519
0.456567
0.456163
0.455966
0.45574
0.455452
0.455276
0.45504
0.454817
0.454583
0.45433
0.454059
0.453773
0.453471
0.453153
0.45282
0.452473
0.452113
0.451739
0.451353
0.450954
0.450544
0.450122
0.449689
0.449246
0.448792
0.450944
0.460069
0.458639
0.458367
0.458343
0.45818
0.45812
0.457922
0.457758
0.45764
0.457442
0.457237
0.457012
0.456771
0.456513
0.45624
0.455952
0.455648
0.455328
0.454994
0.454644
0.454279
0.453899
0.453505
0.453097
0.452675
0.452239
0.451789
0.451327
0.45864
0.462788
0.462234
0.461905
0.461717
0.461523
0.46132
0.460987
0.460754
0.460557
0.460316
0.460069
0.459809
0.459533
0.459242
0.458934
0.458611
0.458272
0.457917
0.457547
0.45716
0.456758
0.45634
0.455907
0.455459
0.454995
0.454517
0.454024
0.453516
0.466415
0.467924
0.467656
0.467316
0.467021
0.466725
0.466414
0.466065
0.465784
0.465558
0.46531
0.465047
0.464762
0.464455
0.464129
0.463782
0.463416
0.463031
0.462627
0.462204
0.461763
0.461304
0.460827
0.460332
0.45982
0.459291
0.458744
0.458182
0.457603
0.474339
0.475184
0.47495
0.474615
0.474294
0.473961
0.473606
0.473257
0.472982
0.47276
0.472522
0.472258
0.471965
0.471643
0.471295
0.47092
0.470519
0.470093
0.469643
0.469168
0.468671
0.46815
0.467607
0.467043
0.466457
0.465849
0.465222
0.464574
0.463908
0.483166
0.483276
0.48302
0.4827
0.482367
0.482002
0.481603
0.481218
0.480913
0.480662
0.480397
0.480103
0.479777
0.479418
0.479029
0.47861
0.47816
0.477681
0.477172
0.476636
0.476071
0.475479
0.47486
0.474215
0.473545
0.472849
0.472129
0.471386
0.470619
0.492704
0.492427
0.492068
0.491705
0.491317
0.490884
0.490404
0.489933
0.489542
0.489211
0.488869
0.488495
0.488087
0.487646
0.487171
0.486663
0.486123
0.485551
0.484946
0.48431
0.483643
0.482946
0.482219
0.481462
0.480677
0.479864
0.479023
0.478155
0.47726
0.503301
0.502846
0.502414
0.501994
0.501536
0.501021
0.500452
0.499893
0.499421
0.499012
0.49859
0.49813
0.497631
0.497093
0.496517
0.495903
0.495251
0.494562
0.493837
0.493076
0.49228
0.491449
0.490584
0.489686
0.488755
0.487792
0.486798
0.485773
0.484719
0.515067
0.514528
0.514037
0.513561
0.513038
0.512446
0.511791
0.511149
0.510607
0.51013
0.509635
0.509094
0.508505
0.507869
0.507188
0.506462
0.505691
0.504877
0.50402
0.503121
0.50218
0.501199
0.500178
0.499119
0.498022
0.496888
0.495719
0.494514
0.493276
0.527994
0.527393
0.526837
0.526295
0.525698
0.525021
0.52427
0.523533
0.522907
0.52235
0.521768
0.521131
0.520439
0.519692
0.518891
0.518038
0.517132
0.516175
0.515168
0.514111
0.513006
0.511855
0.510657
0.509414
0.508128
0.506799
0.505428
0.504018
0.502568
0.542094
0.541431
0.540801
0.540178
0.539492
0.538711
0.537844
0.536992
0.53626
0.535601
0.534911
0.534157
0.533338
0.532455
0.531511
0.530504
0.529437
0.528311
0.527127
0.525886
0.524588
0.523237
0.521833
0.520377
0.518871
0.517316
0.515714
0.514067
0.512376
0.557391
0.55666
0.555945
0.555232
0.554441
0.553541
0.552541
0.551555
0.550701
0.549923
0.549106
0.548214
0.547247
0.546207
0.545092
0.543908
0.542652
0.541328
0.539937
0.538479
0.536958
0.535374
0.53373
0.532026
0.530265
0.528449
0.526578
0.524656
0.522684
0.573883
0.573077
0.572269
0.571453
0.570546
0.569512
0.568361
0.567226
0.566233
0.565322
0.564361
0.563312
0.562176
0.560952
0.559647
0.558255
0.556784
0.555233
0.553602
0.551899
0.550117
0.548268
0.546346
0.544357
0.542305
0.540184
0.538009
0.535771
0.533477
0.591544
0.590656
0.589744
0.588815
0.587778
0.586594
0.585275
0.583971
0.582826
0.58176
0.580636
0.579409
0.578078
0.576652
0.57512
0.5735
0.57178
0.569969
0.568074
0.56608
0.564015
0.561855
0.559622
0.557316
0.554923
0.552475
0.549946
0.547354
0.544708
0.610336
0.609358
0.608333
0.607278
0.606098
0.604746
0.603239
0.601751
0.600424
0.599191
0.597879
0.596448
0.594905
0.593234
0.591465
0.589567
0.587575
0.585474
0.58326
0.580967
0.578544
0.576054
0.573469
0.570774
0.568035
0.565176
0.562256
0.559278
0.556198
0.630202
0.629127
0.627979
0.626787
0.625448
0.623911
0.6222
0.620493
0.618992
0.617549
0.616033
0.614377
0.612577
0.610657
0.608587
0.606413
0.604092
0.601654
0.599119
0.596413
0.593656
0.590765
0.587748
0.584701
0.581474
0.5782
0.574867
0.571385
0.567891
0.651072
0.649894
0.648614
0.647274
0.645763
0.644023
0.642078
0.640167
0.638409
0.636783
0.635023
0.633107
0.631046
0.628829
0.62647
0.623905
0.621239
0.618469
0.615484
0.612438
0.609235
0.605882
0.602501
0.598882
0.595239
0.591533
0.587612
0.583713
0.579689
0.672851
0.671561
0.670141
0.668642
0.666943
0.664986
0.662806
0.660606
0.65869
0.656778
0.65477
0.652587
0.650204
0.647663
0.644889
0.642011
0.639005
0.635736
0.632388
0.628828
0.625132
0.621437
0.617396
0.613356
0.609256
0.604841
0.600503
0.59602
0.591337
0.695433
0.694026
0.69246
0.690795
0.688901
0.686708
0.684249
0.681845
0.679575
0.677459
0.675164
0.672633
0.669987
0.667037
0.663906
0.660628
0.657094
0.653485
0.649571
0.645526
0.641484
0.637009
0.63256
0.628058
0.623107
0.618314
0.613354
0.60808
0.602988
0.718677
0.717146
0.715428
0.713586
0.71148
0.709041
0.706317
0.703565
0.701119
0.698679
0.69607
0.693311
0.690186
0.686846
0.683331
0.679557
0.675679
0.671406
0.667019
0.662662
0.657741
0.652854
0.647946
0.642444
0.637194
0.631744
0.62584
0.620243
0.614323
0.742438
0.740777
0.738906
0.736889
0.734573
0.73188
0.728862
0.725867
0.723056
0.720355
0.717437
0.714195
0.71077
0.707004
0.70301
0.698881
0.694286
0.68957
0.684915
0.679523
0.674143
0.668883
0.662843
0.657081
0.651105
0.644526
0.638406
0.631928
0.625073
0.766553
0.764756
0.762733
0.76054
0.758008
0.755056
0.751742
0.74842
0.745372
0.742306
0.739029
0.735475
0.731551
0.727373
0.722987
0.71812
0.713107
0.708054
0.702241
0.696478
0.690909
0.684303
0.677917
0.671391
0.664169
0.657534
0.650392
0.642763
0.635568
0.790804
0.788865
0.786691
0.784319
0.781563
0.778344
0.77475
0.771154
0.767736
0.764445
0.760884
0.756861
0.752463
0.747867
0.742827
0.737555
0.732134
0.725915
0.719879
0.713823
0.706662
0.69973
0.692668
0.684963
0.677609
0.669679
0.661391
0.65353
0.645184
0.815036
0.812951
0.810638
0.808105
0.805152
0.801689
0.797795
0.793848
0.790281
0.786582
0.782548
0.778171
0.773416
0.768226
0.762732
0.756988
0.750547
0.744174
0.737459
0.729956
0.722598
0.714824
0.706669
0.698587
0.689856
0.681025
0.672346
0.663155
0.653637
0.839016
0.836779
0.834335
0.831644
0.828481
0.824758
0.82058
0.816482
0.812447
0.80847
0.804193
0.799321
0.794045
0.788478
0.782437
0.775937
0.769133
0.761837
0.754151
0.746297
0.737973
0.729318
0.720357
0.71108
0.701603
0.692057
0.682
0.671658
0.661656
0.862546
0.860153
0.857592
0.854761
0.85142
0.847482
0.843103
0.838591
0.834446
0.830254
0.825353
0.820236
0.814709
0.80833
0.801758
0.794678
0.787029
0.779156
0.770665
0.761964
0.752925
0.743168
0.733322
0.723131
0.712644
0.701815
0.690687
0.679743
0.668338
0.885448
0.882897
0.880245
0.877303
0.873806
0.869655
0.864967
0.860405
0.856022
0.851208
0.846365
0.84084
0.834295
0.8277
0.820658
0.812912
0.804634
0.795832
0.786716
0.777196
0.766907
0.756466
0.745549
0.734192
0.722698
0.710656
0.698666
0.686344
0.673457
0.907515
0.904803
0.902074
0.89903
0.895388
0.891072
0.886279
0.881493
0.876618
0.871929
0.866574
0.860306
0.853941
0.846786
0.838803
0.830485
0.821529
0.812158
0.802005
0.79133
0.78062
0.768864
0.756837
0.744562
0.731541
0.71859
0.705254
0.691354
0.677574
0.928598
0.925725
0.922952
0.919847
0.916106
0.91165
0.906666
0.901634
0.897148
0.891869
0.885816
0.879793
0.872683
0.864752
0.856652
0.847639
0.837934
0.82737
0.816659
0.805372
0.793036
0.78048
0.767264
0.753445
0.739641
0.725182
0.710342
0.695347
0.680279
0.94855
0.945519
0.942728
0.93958
0.935756
0.931167
0.926169
0.921322
0.91618
0.910827
0.90525
0.898153
0.890473
0.882593
0.873616
0.863694
0.853326
0.84249
0.830429
0.81783
0.805007
0.790977
0.776547
0.761709
0.746255
0.730394
0.714304
0.697875
0.680835
0.967254
0.964068
0.961291
0.958133
0.954275
0.949729
0.944635
0.939518
0.934688
0.92939
0.922735
0.915641
0.908028
0.899084
0.889372
0.879362
0.868249
0.855855
0.843253
0.829979
0.815494
0.800623
0.78486
0.768523
0.751668
0.734402
0.716634
0.698388
0.67993
0.984626
0.981295
0.978571
0.975443
0.97159
0.96689
0.961939
0.957211
0.952046
0.946101
0.93987
0.932618
0.923989
0.914728
0.904958
0.893822
0.881571
0.869381
0.85559
0.840437
0.825154
0.809025
0.79209
0.774218
0.755737
0.736806
0.71726
0.697421
0.677132
1.0006
0.997137
0.994496
0.991403
0.987541
0.983083
0.978259
0.973309
0.96828
0.962671
0.955789
0.947846
0.939255
0.929877
0.919001
0.907199
0.8952
0.881173
0.866121
0.850618
0.834108
0.816495
0.797755
0.77862
0.75861
0.737697
0.716179
0.69442
0.672547
1.01516
1.01157
1.00905
1.00605
1.00232
0.997831
0.99317
0.988696
0.983539
0.97739
0.97056
0.962672
0.953648
0.94335
0.932252
0.920282
0.906777
0.892097
0.876344
0.859584
0.841681
0.822533
0.80269
0.781769
0.759717
0.736757
0.71359
0.689947
0.665388
1.02828
1.02461
1.02225
1.01934
1.01562
1.01144
1.00714
1.00254
0.997355
0.991473
0.984331
0.9759
0.966554
0.956169
0.944579
0.931691
0.91749
0.902125
0.885754
0.867671
0.847998
0.827663
0.806308
0.783346
0.759384
0.734804
0.709167
0.682788
0.655835
1.04
1.03626
1.03408
1.03128
1.02781
1.02379
1.0197
1.01537
1.01017
1.004
0.996713
0.98829
0.978686
0.967697
0.95562
0.942188
0.92747
0.911458
0.893496
0.874368
0.853988
0.831939
0.808363
0.783634
0.757899
0.730585
0.702521
0.673618
0.644287
1.05035
1.0466
1.04464
1.04199
1.03857
1.035
1.03118
1.02683
1.02163
1.01545
1.00806
0.999287
0.989339
0.978429
0.9659
0.951766
0.936348
0.919213
0.900831
0.880462
0.858579
0.834833
0.809373
0.78268
0.754581
0.724941
0.694031
0.662481
0.630106
1.05939
1.05567
1.05395
1.0514
1.04835
1.04497
1.0414
1.03718
1.03192
1.02556
1.01809
1.00934
0.999183
0.987619
0.974713
0.960326
0.944258
0.926468
0.906969
0.885473
0.862006
0.836835
0.809861
0.780688
0.749619
0.717319
0.683885
0.64873
0.61319
1.06719
1.06357
1.06209
1.05974
1.05685
1.05391
1.05051
1.04621
1.04097
1.03474
1.02705
1.01797
1.00768
0.996214
0.982977
0.967811
0.951086
0.932715
0.912027
0.889663
0.865169
0.837975
0.808735
0.777322
0.74372
0.708138
0.671337
0.632867
0.593395
1.07382
1.07039
1.06917
1.06691
1.06445
1.06172
1.05836
1.05427
1.04894
1.04247
1.03487
1.02585
1.01548
1.00346
0.989778
0.974608
0.957389
0.938152
0.916744
0.893104
0.866811
0.838326
0.806904
0.772948
0.736593
0.697713
0.656785
0.614175
0.570873
1.07937
1.07624
1.07519
1.07321
1.07097
1.06848
1.06532
1.06101
1.05581
1.04949
1.04164
1.03249
1.02191
1.00989
0.996031
0.980406
0.96266
0.942815
0.920708
0.895786
0.868001
0.837688
0.804579
0.767737
0.728087
0.685527
0.6404
0.593234
0.544724
1.08394
1.08117
1.08031
1.07853
1.07663
1.07431
1.07108
1.06702
1.06175
1.05517
1.04749
1.03833
1.02769
1.01527
1.00129
0.985187
0.967202
0.946791
0.923772
0.89795
0.869064
0.836594
0.800984
0.761644
0.718563
0.671887
0.621965
0.569543
0.515414
1.08765
1.08529
1.0846
1.08306
1.08141
1.07915
1.07612
1.07192
1.06667
1.06031
1.05246
1.04318
1.03243
1.01997
1.00576
0.989461
0.971039
0.950095
0.926336
0.899792
0.869537
0.83536
0.797067
0.7546
0.70818
0.656987
0.60182
0.542901
0.482261
1.0906
1.08869
1.08814
1.08687
1.08536
1.08327
1.08018
1.07615
1.07092
1.06439
1.05659
1.04736
1.03645
1.02394
1.00956
0.993061
0.974259
0.952927
0.92854
0.901023
0.869428
0.833852
0.793335
0.74755
0.696807
0.640894
0.579551
0.513855
0.44481
1.09292
1.09143
1.09106
1.08997
1.08866
1.08659
1.08363
1.07958
1.07433
1.06792
1.06005
1.05077
1.03979
1.02726
1.01264
0.996072
0.976875
0.955223
0.930229
0.901926
0.869208
0.832129
0.789411
0.740642
0.685315
0.623651
0.555738
0.481517
0.403439
1.09473
1.09364
1.0934
1.09253
1.09131
1.08933
1.08639
1.08237
1.07725
1.07068
1.06292
1.05355
1.04261
1.02995
1.01521
0.998473
0.979067
0.956961
0.931617
0.902524
0.868918
0.830445
0.785562
0.733849
0.67423
0.606201
0.53014
0.446471
0.356298
1.09613
1.09538
1.09527
1.09454
1.09346
1.0915
1.08861
1.08466
1.07948
1.07296
1.06527
1.05574
1.04492
1.03201
1.01742
1.00029
0.980855
0.958366
0.932601
0.902926
0.868509
0.828647
0.781989
0.727501
0.663602
0.589115
0.503593
0.407773
0.304007
1.09719
1.09673
1.09674
1.09612
1.09517
1.09318
1.09038
1.08646
1.08126
1.07482
1.06702
1.05758
1.04668
1.03371
1.01908
1.00172
0.982195
0.959443
0.933352
0.903006
0.868112
0.826757
0.778735
0.721535
0.653631
0.57235
0.476769
0.366362
0.24438
1.098
1.09777
1.09786
1.09734
1.09649
1.09445
1.0918
1.0878
1.08264
1.07628
1.0684
1.05899
1.04798
1.03512
1.02022
1.0029
0.983183
0.96019
0.933839
0.902946
0.867547
0.825121
0.77573
0.715947
0.644333
0.556254
0.450066
0.322879
0.177171
1.0986
1.09855
1.09869
1.09824
1.09745
1.09541
1.09285
1.08876
1.08372
1.07731
1.06943
1.05998
1.04901
1.03608
1.02104
1.00376
0.983793
0.96064
0.93404
0.902772
0.866758
0.823526
0.772787
0.710647
0.635698
0.540887
0.423569
0.276005
0.101392
1.09904
1.09911
1.09925
1.09894
1.09806
1.09617
1.09355
1.08946
1.08454
1.07806
1.07012
1.0608
1.04966
1.03671
1.02148
1.00418
0.983769
0.960619
0.933307
0.90188
0.864633
0.820898
0.767959
0.704344
0.624929
0.524929
0.394745
0.223428
0.00418792
1.09933
1.09948
1.09962
1.09944
1.09837
1.09679
1.09387
1.09002
1.08486
1.07851
1.07036
1.06112
1.04969
1.03681
1.02116
1.00377
0.982778
0.959393
0.931199
0.899335
0.860746
0.816114
0.76099
0.695309
0.611636
0.505815
0.363639
0.16505
-0.12058
1.09949
1.0997
1.09981
1.0998
1.09848
1.09728
1.09396
1.09043
1.08498
1.07865
1.07018
1.06074
1.04901
1.03575
1.01973
1.00188
0.980447
0.956497
0.927689
0.895048
0.855486
0.809616
0.752845
0.684666
0.59767
0.485632
0.335295
0.116517
-0.238152
1.09958
1.09981
1.0999
1.09984
1.0984
1.09716
1.09352
1.08967
1.08359
1.077
1.06816
1.05828
1.04612
1.0325
1.01611
0.997932
0.975996
0.951602
0.922091
0.888961
0.848367
0.802013
0.743434
0.674883
0.583898
0.471511
0.313091
0.102722
-0.14862
0.441176
0.440614
0.440045
0.439471
0.43889
0.438304
0.437712
0.437116
0.436514
0.435907
0.435296
0.434681
0.434062
0.433439
0.432812
0.432181
0.431548
0.430911
0.430271
0.429629
0.428983
0.428336
0.427686
0.427035
0.426381
0.425726
0.42507
0.424412
0.423753
0.423093
0.422433
0.421772
0.421111
0.42045
0.41979
0.419129
0.418469
0.41781
0.417151
0.416494
0.415839
0.415184
0.414532
0.413882
0.413233
0.412588
0.411944
0.411304
0.410667
0.410033
0.409402
0.408775
0.408152
0.407533
0.406918
0.406308
0.405702
0.405101
0.404505
0.403914
0.403329
0.402749
0.402175
0.401607
0.401044
0.400488
0.399939
0.399396
0.398859
0.39833
0.397808
0.397293
0.396785
0.396285
0.395792
0.395308
0.394831
0.394362
0.393902
0.39345
0.393006
0.392571
0.392145
0.391728
0.391319
0.39092
0.39053
0.390149
0.389778
0.389416
0.389063
0.38872
0.388387
0.388064
0.387751
0.387448
0.387154
0.386871
0.386598
0.386335
0.386082
0.38584
0.385611
0.385393
0.385187
0.384993
0.384809
0.384636
0.384474
0.384322
0.384179
0.384046
0.383922
0.383808
0.383704
0.38361
0.383527
0.383454
0.383391
0.383338
0.383294
0.38326
0.383233
0.383215
0.383203
0.383199
0.3832
0.383208
0.383222
0.383242
0.383269
0.3833
0.383339
0.383381
0.383434
0.383475
0.383565
0.38358
0.383764
0.442287
0.44171
0.441128
0.44054
0.439947
0.439349
0.438746
0.438139
0.437526
0.436909
0.436287
0.43566
0.435029
0.434394
0.433755
0.433111
0.432464
0.431813
0.431159
0.430501
0.429841
0.429177
0.428511
0.427842
0.427171
0.426498
0.425823
0.425146
0.424468
0.423788
0.423108
0.422427
0.421745
0.421063
0.42038
0.419698
0.419017
0.418335
0.417655
0.416976
0.416298
0.415622
0.414947
0.414275
0.413604
0.412936
0.412271
0.411608
0.410948
0.410292
0.409639
0.408989
0.408344
0.407703
0.407065
0.406433
0.405804
0.405181
0.404563
0.40395
0.403343
0.402741
0.402146
0.401556
0.400973
0.400396
0.399826
0.399263
0.398707
0.398158
0.397617
0.397083
0.396557
0.396038
0.395528
0.395026
0.394532
0.394046
0.393569
0.393101
0.392641
0.392191
0.39175
0.391318
0.390895
0.390482
0.390078
0.389684
0.3893
0.388925
0.388561
0.388206
0.387861
0.387527
0.387204
0.386891
0.386589
0.386299
0.38602
0.385752
0.385496
0.385251
0.385015
0.384789
0.384573
0.384367
0.384173
0.383989
0.383816
0.383655
0.383505
0.383367
0.383241
0.383127
0.383027
0.382938
0.38286
0.382792
0.382734
0.382686
0.382647
0.382617
0.382596
0.382583
0.382579
0.382582
0.382593
0.38261
0.382634
0.382662
0.382694
0.382731
0.382771
0.382803
0.382856
0.382872
0.382907
0.382914
0.382854
0.442863
0.442241
0.441615
0.440985
0.440351
0.439713
0.439071
0.438424
0.437773
0.437118
0.436459
0.435795
0.435128
0.434457
0.433781
0.433103
0.43242
0.431734
0.431044
0.430352
0.429656
0.428957
0.428256
0.427552
0.426845
0.426137
0.425427
0.424715
0.424001
0.423286
0.42257
0.421854
0.421136
0.420419
0.419701
0.418983
0.418265
0.417548
0.416832
0.416116
0.415402
0.414689
0.413978
0.413269
0.412562
0.411857
0.411156
0.410457
0.409761
0.409069
0.408381
0.407696
0.407016
0.406341
0.40567
0.405004
0.404343
0.403688
0.403038
0.402394
0.401757
0.401125
0.4005
0.399882
0.399271
0.398666
0.398069
0.39748
0.396898
0.396324
0.395758
0.3952
0.394651
0.39411
0.393579
0.393056
0.392543
0.392039
0.391544
0.391059
0.390584
0.390119
0.389663
0.389218
0.388784
0.388359
0.387946
0.387543
0.387151
0.386769
0.386399
0.38604
0.385695
0.385365
0.385047
0.384742
0.38445
0.384169
0.383901
0.383644
0.383399
0.383165
0.382943
0.382733
0.382535
0.382348
0.382174
0.382012
0.381863
0.381726
0.381602
0.38149
0.38139
0.381303
0.381226
0.381161
0.381106
0.381064
0.381033
0.381013
0.381006
0.381011
0.381029
0.38106
0.381102
0.381159
0.381217
0.381302
0.381385
0.381483
0.38159
0.381697
0.381817
0.381989
0.381954
0.382461
0.381996
0.38325
0.381851
0.442931
0.442273
0.441609
0.440941
0.440269
0.439591
0.438908
0.43822
0.437526
0.436827
0.436123
0.435413
0.434698
0.433978
0.433253
0.432523
0.431789
0.431051
0.430308
0.429561
0.428811
0.428057
0.4273
0.42654
0.425778
0.425012
0.424245
0.423476
0.422705
0.421932
0.421159
0.420384
0.419609
0.418834
0.418059
0.417284
0.41651
0.415737
0.414965
0.414195
0.413427
0.41266
0.411897
0.411135
0.410377
0.409622
0.408871
0.408123
0.407379
0.406639
0.405904
0.405174
0.404449
0.403729
0.403014
0.402305
0.401602
0.400905
0.400214
0.39953
0.398853
0.398183
0.397521
0.396866
0.396219
0.395579
0.394948
0.394325
0.393711
0.393105
0.392509
0.391921
0.391343
0.390774
0.390215
0.389665
0.389126
0.388597
0.388078
0.38757
0.387073
0.386586
0.386111
0.385648
0.385196
0.384756
0.384329
0.383914
0.383511
0.383122
0.382746
0.382384
0.382032
0.381692
0.381362
0.381044
0.380739
0.380447
0.380168
0.379902
0.379649
0.379411
0.379186
0.378975
0.378779
0.378596
0.378429
0.378276
0.378138
0.378015
0.377907
0.377815
0.377738
0.377676
0.377631
0.377601
0.377588
0.377592
0.377612
0.377651
0.377708
0.377784
0.377878
0.377992
0.378158
0.378305
0.378518
0.378685
0.378973
0.379213
0.379441
0.379935
0.379691
0.381043
0.37965
0.382813
0.379151
0.385769
0.377327
0.444834
0.444177
0.443513
0.44284
0.442158
0.441468
0.440769
0.440062
0.439347
0.438624
0.437893
0.437155
0.436409
0.435656
0.434896
0.434129
0.433356
0.432576
0.431791
0.431
0.430203
0.429401
0.428595
0.427784
0.426969
0.42615
0.425328
0.424502
0.423674
0.422843
0.422011
0.421177
0.420341
0.419505
0.418668
0.417831
0.416993
0.416156
0.415319
0.414483
0.413649
0.412816
0.411986
0.411157
0.410331
0.409509
0.408689
0.407873
0.407061
0.406254
0.40545
0.404652
0.403858
0.40307
0.402288
0.401511
0.400741
0.399978
0.399221
0.398471
0.397729
0.396994
0.396267
0.395549
0.394838
0.394137
0.393444
0.39276
0.392085
0.391419
0.390764
0.390118
0.389482
0.388856
0.388241
0.387636
0.387042
0.38646
0.385888
0.385328
0.384779
0.384241
0.383716
0.383202
0.3827
0.38221
0.381733
0.381268
0.380816
0.380376
0.379949
0.379535
0.379133
0.378744
0.378369
0.378008
0.37766
0.377327
0.377007
0.376703
0.376414
0.376139
0.37588
0.375636
0.375409
0.375197
0.375001
0.374822
0.374659
0.374514
0.374386
0.374276
0.374184
0.374112
0.374058
0.374025
0.374012
0.374021
0.374052
0.374106
0.374183
0.374283
0.37442
0.374567
0.374754
0.374955
0.37519
0.375487
0.375666
0.376301
0.376043
0.377721
0.376161
0.380025
0.375634
0.383474
0.373653
0.388716
0.364039
0.448246
0.447601
0.44694
0.446263
0.44557
0.444863
0.444142
0.443407
0.44266
0.441901
0.441131
0.440349
0.439557
0.438755
0.437943
0.437122
0.436292
0.435454
0.434608
0.433755
0.432894
0.432027
0.431154
0.430274
0.42939
0.4285
0.427606
0.426708
0.425805
0.4249
0.423991
0.42308
0.422166
0.421251
0.420334
0.419416
0.418497
0.417578
0.416659
0.415741
0.414824
0.413908
0.412995
0.412083
0.411174
0.410268
0.409366
0.408467
0.407573
0.406683
0.405798
0.404918
0.404044
0.403175
0.402313
0.401458
0.400609
0.399767
0.398933
0.398107
0.397288
0.396478
0.395676
0.394883
0.394099
0.393324
0.392559
0.391804
0.391059
0.390325
0.389601
0.388888
0.388186
0.387495
0.386815
0.386148
0.385492
0.384848
0.384217
0.383598
0.382991
0.382397
0.381816
0.381248
0.380693
0.380151
0.379622
0.379107
0.378605
0.378116
0.377642
0.377181
0.376735
0.376302
0.375884
0.375481
0.375092
0.374719
0.37436
0.374017
0.373689
0.373377
0.373081
0.372802
0.372539
0.372292
0.372062
0.371849
0.371654
0.371476
0.371316
0.371174
0.37105
0.370946
0.370861
0.370795
0.37075
0.370726
0.370723
0.370742
0.370782
0.370843
0.370935
0.371041
0.371176
0.371367
0.371447
0.371862
0.371715
0.372586
0.37193
0.373575
0.372104
0.374761
0.372438
0.376138
0.372492
0.382794
0.35162
0.450768
0.450103
0.449415
0.448706
0.447977
0.447228
0.44646
0.445674
0.44487
0.444049
0.443212
0.442359
0.441491
0.44061
0.439715
0.438807
0.437888
0.436957
0.436016
0.435065
0.434105
0.433136
0.432159
0.431175
0.430184
0.429188
0.428186
0.427179
0.426167
0.425152
0.424134
0.423114
0.422091
0.421066
0.420041
0.419016
0.417992
0.416968
0.415945
0.414924
0.413906
0.41289
0.411877
0.410868
0.409863
0.408862
0.407866
0.406876
0.405891
0.404912
0.40394
0.402975
0.402016
0.401066
0.400122
0.399187
0.398261
0.397343
0.396434
0.395535
0.394645
0.393764
0.392894
0.392035
0.391185
0.390347
0.38952
0.388703
0.387899
0.387106
0.386325
0.385555
0.384798
0.384054
0.383322
0.382602
0.381896
0.381202
0.380522
0.379854
0.379201
0.378561
0.377935
0.377323
0.376725
0.376142
0.375572
0.375017
0.374476
0.37395
0.373439
0.372942
0.37246
0.371994
0.371542
0.371105
0.370684
0.370278
0.369887
0.369512
0.369153
0.368809
0.368481
0.36817
0.367874
0.367594
0.367331
0.367084
0.366854
0.36664
0.366443
0.366263
0.366099
0.365952
0.365823
0.36571
0.365614
0.365535
0.365473
0.365428
0.365399
0.365389
0.365365
0.365471
0.365367
0.365483
0.365381
0.365705
0.365449
0.366036
0.365553
0.366384
0.365788
0.366605
0.366421
0.36607
0.366584
0.371458
0.346068
0.452901
0.452167
0.451409
0.450626
0.44982
0.448991
0.448141
0.447269
0.446376
0.445463
0.444532
0.443582
0.442614
0.44163
0.440629
0.439614
0.438584
0.437541
0.436485
0.435417
0.434338
0.433249
0.432151
0.431044
0.42993
0.428808
0.427681
0.426548
0.42541
0.424269
0.423125
0.421978
0.42083
0.419682
0.418533
0.417384
0.416237
0.415091
0.413947
0.412806
0.411668
0.410534
0.409405
0.40828
0.407161
0.406047
0.40494
0.40384
0.402746
0.401661
0.400583
0.399514
0.398453
0.397402
0.396361
0.39533
0.394309
0.393299
0.392299
0.391311
0.390335
0.38937
0.388417
0.387476
0.386548
0.385632
0.384729
0.383838
0.382961
0.382097
0.381247
0.38041
0.379587
0.378778
0.377982
0.377201
0.376435
0.375682
0.374945
0.374222
0.373514
0.372821
0.372143
0.371479
0.370831
0.370198
0.36958
0.368977
0.36839
0.367818
0.367261
0.36672
0.366195
0.365685
0.36519
0.364712
0.364248
0.363801
0.363369
0.362953
0.362552
0.362167
0.361798
0.361444
0.361106
0.360784
0.360477
0.360186
0.35991
0.359649
0.359404
0.359174
0.358959
0.358759
0.358574
0.358403
0.358246
0.358103
0.357974
0.357857
0.357754
0.357664
0.357573
0.357569
0.357363
0.357569
0.357185
0.35756
0.357262
0.357561
0.357236
0.357579
0.357377
0.357466
0.35806
0.35722
0.356926
0.360737
0.3448
0.456902
0.456065
0.455201
0.45431
0.453392
0.452449
0.451482
0.450491
0.449477
0.448441
0.447385
0.446309
0.445213
0.444099
0.442968
0.441821
0.440658
0.439481
0.43829
0.437087
0.435871
0.434645
0.433409
0.432164
0.43091
0.42965
0.428383
0.427111
0.425834
0.424553
0.42327
0.421984
0.420697
0.419409
0.418121
0.416835
0.415549
0.414266
0.412986
0.41171
0.410438
0.409171
0.407909
0.406654
0.405405
0.404164
0.40293
0.401705
0.400488
0.399281
0.398084
0.396897
0.39572
0.394554
0.3934
0.392257
0.391127
0.390008
0.388903
0.38781
0.386731
0.385666
0.384614
0.383576
0.382553
0.381544
0.38055
0.379571
0.378607
0.377659
0.376726
0.375808
0.374907
0.374021
0.373151
0.372297
0.37146
0.370638
0.369833
0.369045
0.368273
0.367517
0.366777
0.366053
0.365346
0.364656
0.363982
0.363324
0.362683
0.362058
0.36145
0.360857
0.360282
0.359722
0.359179
0.358653
0.358142
0.357648
0.35717
0.356708
0.356262
0.355832
0.355418
0.355019
0.354637
0.35427
0.353919
0.353583
0.353262
0.352957
0.352667
0.352391
0.352131
0.351885
0.351653
0.351436
0.351233
0.351045
0.35087
0.350709
0.350562
0.35043
0.350306
0.350216
0.350082
0.350092
0.349885
0.350038
0.349733
0.350071
0.349619
0.349803
0.349793
0.349534
0.350221
0.34961
0.348884
0.351547
0.342415
0.4631
0.462136
0.461139
0.460111
0.459051
0.457962
0.456845
0.455701
0.45453
0.453335
0.452116
0.450875
0.449613
0.44833
0.447028
0.445709
0.444373
0.443021
0.441655
0.440276
0.438884
0.437482
0.436069
0.434648
0.433218
0.431782
0.430341
0.428894
0.427444
0.425991
0.424536
0.42308
0.421625
0.42017
0.418717
0.417267
0.41582
0.414377
0.41294
0.411508
0.410084
0.408666
0.407256
0.405855
0.404464
0.403082
0.401711
0.40035
0.399002
0.397665
0.39634
0.395029
0.393731
0.392446
0.391176
0.38992
0.388678
0.387452
0.386241
0.385046
0.383867
0.382703
0.381557
0.380427
0.379313
0.378217
0.377138
0.376076
0.375032
0.374006
0.372997
0.372006
0.371033
0.370078
0.36914
0.368221
0.36732
0.366436
0.365571
0.364723
0.363893
0.363081
0.362287
0.361511
0.360752
0.360012
0.359289
0.358584
0.357896
0.357226
0.356574
0.355939
0.355321
0.354721
0.354138
0.353571
0.353022
0.35249
0.351974
0.351475
0.350993
0.350527
0.350077
0.349644
0.349227
0.348825
0.348439
0.348069
0.347715
0.347375
0.347051
0.346742
0.346448
0.346168
0.345903
0.345653
0.345416
0.345194
0.344985
0.34479
0.344608
0.34444
0.344282
0.344144
0.344001
0.343903
0.343753
0.343715
0.343541
0.343551
0.343406
0.343344
0.343564
0.34284
0.343344
0.342737
0.342128
0.343825
0.338822
0.469689
0.468579
0.467429
0.466243
0.46502
0.463763
0.462472
0.46115
0.459798
0.458418
0.45701
0.455577
0.454119
0.452639
0.451137
0.449616
0.448076
0.44652
0.444948
0.443362
0.441764
0.440154
0.438535
0.436907
0.435272
0.433632
0.431987
0.430338
0.428688
0.427036
0.425385
0.423736
0.422088
0.420445
0.418806
0.417172
0.415545
0.413925
0.412313
0.410711
0.409119
0.407537
0.405966
0.404408
0.402862
0.40133
0.399811
0.398307
0.396819
0.395345
0.393888
0.392447
0.391023
0.389616
0.388227
0.386855
0.385502
0.384168
0.382852
0.381555
0.380277
0.379019
0.37778
0.376561
0.375362
0.374182
0.373023
0.371883
0.370763
0.369664
0.368584
0.367525
0.366485
0.365465
0.364466
0.363486
0.362526
0.361586
0.360665
0.359764
0.358883
0.358021
0.357179
0.356356
0.355552
0.354767
0.354002
0.353256
0.352528
0.351819
0.351129
0.350457
0.349804
0.349168
0.348551
0.347952
0.34737
0.346807
0.34626
0.345731
0.345219
0.344724
0.344246
0.343784
0.343339
0.34291
0.342497
0.3421
0.341718
0.341352
0.341002
0.340666
0.340346
0.34004
0.339749
0.339471
0.339208
0.338958
0.338722
0.338499
0.338288
0.33809
0.337904
0.337731
0.337564
0.337417
0.337262
0.337147
0.336994
0.336912
0.336769
0.336683
0.336601
0.33637
0.336432
0.336008
0.335865
0.336131
0.333803
0.476177
0.474884
0.473547
0.472167
0.470748
0.469289
0.467793
0.466263
0.464698
0.463102
0.461475
0.45982
0.458139
0.456433
0.454704
0.452954
0.451184
0.449397
0.447594
0.445778
0.443949
0.442109
0.440261
0.438405
0.436544
0.434679
0.432812
0.430943
0.429075
0.427209
0.425345
0.423487
0.421633
0.419787
0.417948
0.416119
0.414299
0.412491
0.410695
0.408911
0.407141
0.405386
0.403645