/*--------------------------------*- C++ -*----------------------------------*\
| =========                 |                                                 |
| \\      /  F ield         | OpenFOAM: The Open Source CFD Toolbox           |
|  \\    /   O peration     | Version:  5.x                                   |
|   \\  /    A nd           | Web:      www.OpenFOAM.org                      |
|    \\/     M anipulation  |                                                 |
\*---------------------------------------------------------------------------*/
/*   Windows 32 and 64 bit porting by blueCAPE: http://www.bluecape.com.pt   *\
|  Based on Windows porting (2.0.x v4) by Symscape: http://www.symscape.com   |
\*---------------------------------------------------------------------------*/
FoamFile
{
    version     2.0;
    format      ascii;
    class       surfaceScalarField;
    location    "90";
    object      phi;
}
// * * * * * * * * * * * * * * * * * * * * * * * * * * * * * * * * * * * * * //

dimensions      [0 3 -1 0 0 0 0];

internalField   nonuniform List<scalar> 
87341
(
0.336311
39.5867
0.444943
39.8144
0.475104
39.8929
0.550018
39.8481
0.594574
39.8785
0.630788
39.8868
0.677268
39.8766
0.707645
39.8927
0.738007
39.8927
0.763814
39.8972
0.787264
39.8996
0.808771
39.9015
0.82854
39.9033
0.84682
39.9048
0.863821
39.906
0.879742
39.9071
0.894764
39.908
0.909066
39.9087
0.922813
39.9093
0.936166
39.9097
0.949264
39.9099
0.962182
39.9101
0.974886
39.9103
0.987364
39.9106
0.999608
39.9108
1.01162
39.911
1.0234
39.9113
1.03496
39.9115
39.9114
1.04655
0.804908
38.7818
1.13653
39.4828
1.1708
39.8586
1.34797
39.671
1.39214
39.8343
1.55065
39.7283
1.62884
39.7984
1.74868
39.7728
1.84821
39.7931
1.94451
39.8009
2.03414
39.81
2.11695
39.8187
2.19394
39.8263
2.26588
39.8328
2.33334
39.8386
2.39679
39.8437
2.45662
39.8482
2.51313
39.8522
2.56655
39.8559
2.61699
39.8592
2.66447
39.8625
2.70913
39.8655
2.75126
39.8682
2.79114
39.8707
2.82891
39.873
2.86473
39.8752
2.89873
39.8773
2.93102
39.8792
39.8808
2.96167
1.83964
36.9422
2.87291
38.4495
3.34573
39.3858
3.28412
39.7326
3.3894
39.729
3.3516
39.7661
3.37456
39.7754
3.38887
39.7585
3.41165
39.7704
3.44249
39.7701
3.47989
39.7726
3.52378
39.7748
3.57018
39.7799
3.61791
39.7851
3.66623
39.7903
3.71455
39.7953
3.76239
39.8003
3.80939
39.8052
3.85525
39.81
3.89998
39.8145
3.94367
39.8188
3.9864
39.8227
4.02822
39.8264
4.06912
39.8298
4.10921
39.8329
4.14856
39.8358
4.18727
39.8385
4.22545
39.841
39.8442
4.26207
1.75278
35.1894
3.47189
36.7304
4.67222
38.1854
5.20849
39.1963
5.30888
39.6286
5.32089
39.7541
5.35188
39.7444
5.34842
39.762
5.35588
39.7629
5.35925
39.7667
5.36408
39.7677
5.37078
39.7681
5.38223
39.7684
5.39847
39.7688
5.41918
39.7695
5.444
39.7705
5.47259
39.7718
5.50475
39.7731
5.54068
39.7741
5.57998
39.7752
5.62226
39.7765
5.66707
39.7779
5.71397
39.7795
5.76255
39.7812
5.8125
39.783
5.86328
39.7851
5.91452
39.7873
5.96597
39.7896
39.7921
6.01802
1.09575
34.0937
2.48959
35.3366
4.03498
36.6401
5.2774
37.9539
5.93096
38.9751
6.12376
39.5613
6.16664
39.7015
6.21437
39.7143
6.25929
39.718
6.30209
39.7239
6.33678
39.733
6.36536
39.7395
6.39441
39.7394
6.42453
39.7387
6.45646
39.7376
6.49075
39.7362
6.5279
39.7346
6.56821
39.7327
6.61176
39.7305
6.65831
39.7287
6.70776
39.727
6.75949
39.7262
6.81347
39.7255
6.86957
39.7251
6.92756
39.725
6.98738
39.7252
7.04892
39.7258
7.11194
39.7265
39.7261
7.17792
0.761934
33.3317
1.69119
34.4073
2.78433
35.5469
4.00128
36.7369
5.04056
37.9358
5.64223
38.9596
5.79383
39.5499
5.83528
39.6728
5.88114
39.6721
5.93346
39.6716
5.99357
39.6729
6.06036
39.6728
6.1313
39.6685
6.20583
39.6642
6.28344
39.66
6.36368
39.656
6.44607
39.6522
6.53004
39.6488
6.6145
39.6461
6.69936
39.6438
6.78467
39.6417
6.8705
39.6403
6.9569
39.6391
7.04393
39.6381
7.13159
39.6373
7.21996
39.6369
7.30901
39.6367
7.39865
39.6369
39.6363
7.48851
0.524992
32.8067
1.13188
33.8004
1.82537
34.8534
2.60487
35.9574
3.45596
37.0847
4.22625
38.1894
4.64655
39.1296
4.78683
39.5325
4.89848
39.5605
5.02059
39.5495
5.15434
39.5392
5.29703
39.5301
5.44144
39.524
5.5868
39.5188
5.7325
39.5143
5.87805
39.5104
6.02302
39.5072
6.16709
39.5047
6.31032
39.5029
6.45268
39.5014
6.59407
39.5004
6.73467
39.4997
6.87434
39.4994
7.01298
39.4994
7.15054
39.4998
7.28693
39.5005
7.42209
39.5016
7.55601
39.503
39.5054
7.68686
0.39874
32.408
0.843678
33.3555
1.33282
34.3643
1.86842
35.4218
2.44679
36.5063
3.05268
37.5835
3.58997
38.5923
3.87699
39.2455
4.08837
39.3491
4.29554
39.3423
4.50086
39.3339
4.7046
39.3263
4.90792
39.3207
5.11062
39.3161
5.31247
39.3124
5.51326
39.3097
5.71285
39.3077
5.91115
39.3064
6.10821
39.3058
6.30386
39.3058
6.49783
39.3064
6.69024
39.3073
6.88082
39.3088
7.06934
39.3109
7.25567
39.3135
7.4397
39.3165
7.62137
39.3199
7.80063
39.3237
39.3288
7.97725
0.364515
32.0435
0.755908
32.9641
1.17162
33.9486
1.61191
34.9815
2.07533
36.0429
2.55507
37.1037
3.02767
38.1197
3.37494
38.8982
3.63823
39.0858
3.89187
39.0887
4.14154
39.0842
4.38743
39.0804
4.63065
39.0775
4.87136
39.0754
5.10969
39.0741
5.34573
39.0736
5.57957
39.0738
5.81126
39.0747
6.04083
39.0762
6.26826
39.0784
6.49329
39.0814
6.71638
39.0842
6.93727
39.088
7.15572
39.0925
7.37161
39.0976
7.58485
39.1032
7.79537
39.1094
8.00313
39.116
39.1221
8.20983
0.330536
31.7129
0.675622
32.619
1.03707
33.5871
1.41398
34.6046
1.80386
35.653
2.20191
36.7057
2.59844
37.7232
2.94791
38.5488
3.25233
38.7814
3.54882
38.7922
3.84085
38.7922
4.1285
38.7928
4.41194
38.7941
4.69131
38.796
4.96681
38.7986
5.23855
38.8019
5.50664
38.8057
5.77113
38.8102
6.03202
38.8153
6.28937
38.821
6.54303
38.8277
6.79345
38.8338
7.04049
38.8409
7.28401
38.8489
7.52398
38.8576
7.76037
38.8668
7.99316
38.8766
8.22236
38.8868
38.8959
8.44856
0.302519
31.4104
0.615884
32.3056
0.939329
33.2637
1.27303
34.2709
1.61613
35.3099
1.9661
36.3557
2.31955
37.3697
2.66412
38.2042
2.99457
38.4509
3.32002
38.4667
3.6412
38.471
3.95822
38.4758
4.27112
38.4812
4.57991
38.4872
4.88464
38.4939
5.1853
38.5012
5.48189
38.5091
5.77441
38.5177
6.06283
38.5269
6.34717
38.5367
6.62738
38.5475
6.90343
38.5578
7.17534
38.569
7.44307
38.5812
7.70657
38.5941
7.96582
38.6076
8.22076
38.6216
8.47133
38.6362
38.65
8.71723
0.310294
31.1001
0.627985
31.988
0.952194
32.9395
1.2822
33.9409
1.6178
34.9743
1.95873
36.0148
2.3044
37.0241
2.65166
37.857
2.99476
38.1078
3.33477
38.1267
3.67182
38.1339
4.00582
38.1418
4.33661
38.1504
4.66407
38.1598
4.98805
38.1699
5.30843
38.1808
5.62508
38.1925
5.93789
38.2049
6.24675
38.218
6.55156
38.2319
6.85229
38.2468
7.1486
38.2614
7.4405
38.2771
7.72796
38.2938
8.01096
38.3111
8.28936
38.3292
8.5631
38.3479
8.83209
38.3672
38.3861
9.09601
0.33421
30.7659
0.675203
31.647
1.02184
32.5928
1.37268
33.5901
1.72638
34.6206
2.08211
35.6591
2.43875
36.6674
2.79877
37.4969
3.1589
37.7477
3.51634
37.7693
3.87123
37.779
4.22342
37.7896
4.57274
37.8011
4.919
37.8135
5.26198
37.8269
5.60154
37.8413
5.93746
37.8566
6.26962
37.8727
6.59783
37.8898
6.92188
37.9078
7.24185
37.9268
7.55714
37.9462
7.86781
37.9665
8.17388
37.9877
8.47504
38.0099
8.77141
38.0328
9.06279
38.0565
9.34892
38.0811
38.1048
9.63026
0.360234
30.4057
0.727205
31.28
1.09958
32.2204
1.47594
33.2137
1.85473
34.2418
2.23417
35.2796
2.61147
36.2901
2.99283
37.1156
3.37806
37.3625
3.76071
37.3866
4.14057
37.3992
4.51748
37.4127
4.8912
37.4273
5.26152
37.4432
5.6283
37.4602
5.99118
37.4784
6.35019
37.4976
6.70493
37.518
7.05526
37.5395
7.4012
37.5619
7.74219
37.5858
8.07831
37.61
8.40932
37.6355
8.7347
37.6623
9.05512
37.6895
9.3698
37.7181
9.67858
37.7477
9.98199
37.7777
37.8073
10.2795
0.388314
30.0174
0.783585
30.8847
1.18423
31.8198
1.58863
32.8093
1.99515
33.8353
2.40205
34.8727
2.80652
35.8857
3.21599
36.7061
3.63025
36.9482
4.04181
36.9751
4.45034
36.9907
4.85553
37.0075
5.25715
37.0257
5.65504
37.0453
6.04864
37.0666
6.43832
37.0887
6.82305
37.1128
7.20323
37.1378
7.57871
37.164
7.94822
37.1923
8.31335
37.2207
8.67236
37.251
9.02504
37.2828
9.37312
37.3142
9.71387
37.3488
10.0486
37.3834
10.3781
37.4183
10.6996
37.4562
37.4912
11.0156
0.420174
29.5972
0.847744
30.4571
1.28094
31.3866
1.71792
32.3723
2.15688
33.3964
2.59594
34.4336
3.03234
35.4493
3.47395
36.2645
3.91938
36.5028
4.36181
36.5327
4.8007
36.5518
5.23602
36.5722
5.66734
36.5944
6.09402
36.6186
6.51694
36.6436
6.93369
36.672
7.34651
36.7
7.75356
36.7308
8.15371
36.7639
8.55045
36.7956
8.93856
36.8325
9.32076
36.8688
9.69854
36.905
10.0656
36.9472
10.4283
36.9861
10.7844
37.0273
11.1293
37.0733
11.4704
37.1151
37.1589
11.8028
0.455366
29.1418
0.918732
29.9938
1.38811
30.9172
1.86146
31.899
2.33672
32.9211
2.81182
33.9585
3.28367
34.9774
3.7602
35.788
4.23939
36.0236
4.71461
36.0574
5.18635
36.08
5.6535
36.105
6.11595
36.1319
6.5747
36.1599
7.02548
36.1929
7.47435
36.2231
7.91436
36.26
8.348
36.2971
8.77947
36.3324
9.19731
36.3778
9.61312
36.4167
10.0225
36.4595
10.417
36.5105
10.8127
36.5516
11.1965
36.6022
11.5676
36.6562
11.9398
36.701
12.2966
36.7583
36.811
12.6444
0.493002
28.6488
0.994674
29.4921
1.50279
30.4091
2.01506
31.3867
2.52916
32.407
3.04277
33.4449
3.55246
34.4677
4.06646
35.274
4.5814
35.5086
5.09281
35.546
5.59847
35.5744
6.10023
35.6033
6.59743
35.6347
7.08504
35.6723
7.57404
35.7039
8.04785
35.7493
8.52009
35.7877
8.98851
35.8287
9.43747
35.8835
9.89286
35.9224
10.3337
35.9759
10.7588
36.0343
11.1925
36.0767
11.6028
36.1413
12.0044
36.2006
12.4111
36.2495
12.7905
36.3217
13.1676
36.3811
36.4362
13.5424
0.532678
28.1161
1.07472
28.9501
1.62364
29.8602
2.17689
30.8335
2.73187
31.852
3.28597
32.8908
3.83539
33.9183
4.38843
34.7209
4.9427
34.9544
5.48939
34.9993
6.03417
35.0296
6.57133
35.0661
7.09949
35.1066
7.63176
35.14
8.14008
35.1955
8.65747
35.2319
9.16175
35.2835
9.64499
35.3455
10.1446
35.3839
10.6146
35.4524
11.0759
35.5146
11.5492
35.5611
11.9844
35.6415
12.4214
35.7043
12.8613
35.7607
13.2623
35.8485
13.6719
35.9121
14.0729
35.9802
36.068
14.4411
0.574146
27.542
1.15837
28.3658
1.74992
29.2686
2.34596
30.2374
2.94358
31.2544
3.53982
32.2946
4.13081
33.3273
4.72577
34.126
5.31675
34.3634
5.90788
34.4082
6.48561
34.4518
7.05987
34.4918
7.63647
34.53
8.18188
34.5946
8.74945
34.628
9.28732
34.694
9.8125
34.7583
10.3585
34.7995
10.8599
34.8824
11.3634
34.9489
11.8763
35.0017
12.3412
35.0962
12.8172
35.1655
13.2937
35.2277
13.7223
35.3321
14.1682
35.4027
14.6032
35.477
14.9983
35.5851
35.6553
15.4109
0.617131
26.9249
1.24506
27.7379
1.8808
28.6329
2.5212
29.597
3.16307
30.6125
3.8032
31.6545
4.43692
32.6936
5.07215
33.4907
5.71176
33.7238
6.33132
33.7886
6.9581
33.8251
7.5761
33.8738
8.16338
33.9427
8.78267
33.9753
9.35843
34.0522
9.93195
34.1205
10.5233
34.167
11.0603
34.2625
11.6057
34.337
12.1639
34.3907
12.6618
34.5038
13.1765
34.5815
13.6981
34.644
14.1523
34.7735
14.6355
34.8489
15.1076
34.9306
15.525
35.0595
15.972
35.1382
35.238
16.3893
0.661122
26.2637
1.3338
27.0652
2.01472
27.952
2.70044
28.9113
3.38732
29.9257
4.07167
30.9701
4.74963
32.0156
5.43343
32.8069
6.09969
33.0575
6.78265
33.1057
7.43731
33.1704
8.07717
33.234
8.74965
33.2702
9.36573
33.3592
9.98411
33.4338
10.626
33.4786
11.2012
33.5917
11.7891
33.6746
12.4003
33.7258
12.9256
33.8654
13.4841
33.9453
14.049
34.0166
14.5273
34.1657
15.0554
34.2455
15.5636
34.3407
16.0019
34.4922
16.4841
34.5774
16.9317
34.6906
34.8417
17.328
0.705749
25.558
1.4238
26.3472
2.15059
27.2252
2.88239
28.1795
3.61541
29.1926
4.34593
30.2396
5.06819
31.2934
5.78533
32.0898
6.52248
32.3204
7.21448
32.4137
7.91769
32.4672
8.63657
32.5151
9.29226
32.6145
9.96198
32.6895
10.6658
32.73
11.2687
32.8758
11.9051
32.9554
12.5725
33.0071
13.1297
33.1686
13.7417
33.2534
14.3509
33.3361
14.8612
33.5063
15.4344
33.5925
15.982
33.6979
16.4539
33.8688
16.9772
33.969
17.4644
34.0901
17.8927
34.2623
34.3628
18.3716
0.750291
24.8077
1.5136
25.5839
2.28609
26.4527
3.06362
27.402
3.84173
28.4145
4.61557
29.4658
5.38146
30.5275
6.16346
31.3078
6.90154
31.5823
7.6705
31.6447
8.42988
31.7078
9.13013
31.8148
9.86312
31.8815
10.6132
31.9394
11.242
32.1012
11.9531
32.1647
12.6831
32.2254
13.266
32.4241
13.9169
32.5178
14.5774
32.5928
15.1333
32.7803
15.7523
32.8873
16.3407
33.0041
16.845
33.1935
17.4058
33.308
17.9338
33.4411
18.3902
33.6337
18.8996
33.7529
33.9245
19.3379
0.794223
24.0135
1.60222
24.7759
2.4199
25.635
3.24295
26.5789
4.06709
27.5904
4.88875
28.6441
5.70374
29.7125
6.49596
30.5155
7.32911
30.7491
8.12282
30.851
8.87204
30.9586
9.67497
31.0119
10.457
31.0995
11.1382
31.2582
11.9258
31.3136
12.6864
31.404
13.292
31.6198
14.0041
31.7121
14.746
31.7759
15.3397
31.999
15.9811
32.1389
16.6079
32.2604
17.1556
32.4565
17.7671
32.5819
18.3354
32.7397
18.819
32.9574
19.3533
33.0994
19.8251
33.2811
33.4872
20.2624
0.836859
23.1766
1.68809
23.9247
2.54948
24.7736
3.41634
25.7121
4.28347
26.7232
5.14402
27.7836
5.98986
28.8667
6.87388
29.6315
7.7009
29.9221
8.51508
30.0368
9.39355
30.0801
10.2023
30.2031
10.9439
30.3579
11.7962
30.4059
12.5687
30.5412
13.2363
30.7363
14.0281
30.828
14.8198
30.9204
15.425
31.1708
16.1037
31.3203
16.8099
31.4328
17.4233
31.647
18.0795
31.8002
18.6521
32.0094
19.1803
32.2115
19.7658
32.3719
20.2798
32.5853
20.7721
32.7888
32.9956
21.2637
0.876667
22.3
1.76845
23.0329
2.67061
23.8715
3.57814
24.8045
4.48585
25.8155
5.3906
26.8788
6.29973
27.9575
7.17222
28.759
8.06658
29.0278
8.9958
29.1076
9.81828
29.2576
10.6359
29.3855
11.5612
29.4326
12.3524
29.6148
13.0915
29.802
13.9515
29.8764
14.7537
30.0258
15.4123
30.2618
16.16
30.4231
16.9239
30.5564
17.5829
30.7738
18.2718
30.9581
18.8684
31.2036
19.48
31.3978
20.1069
31.5846
20.6278
31.8511
21.1757
32.0374
21.6803
32.2842
32.5322
22.1437
0.91474
21.3852
1.84505
22.1026
2.78656
22.93
3.73446
23.8566
4.6838
24.8662
5.62738
25.9352
6.54453
27.0404
7.49907
27.8045
8.44349
28.0833
9.30641
28.2447
10.2247
28.3393
11.1996
28.4106
11.9978
28.6344
12.8308
28.7819
13.7709
28.8619
14.5789
29.0684
15.3046
29.3001
16.1276
29.4388
16.8991
29.6516
17.6309
29.8246
18.3488
30.0558
18.9923
30.3146
19.6844
30.5115
20.3215
30.7606
20.8975
31.0087
21.51
31.2385
22.0115
31.5359
22.5188
31.7768
32.0641
22.9869
0.947542
20.4377
1.91117
21.1389
2.88584
21.9553
3.86578
22.8767
4.84404
23.8879
5.81416
24.9651
6.79988
26.0547
7.78483
26.8195
8.7152
27.153
9.71178
27.2481
10.6996
27.3515
11.5296
27.5806
12.4769
27.6871
13.4496
27.8091
14.2508
28.0607
15.0849
28.2343
15.9804
28.4046
16.775
28.6442
17.584
28.8426
18.3058
29.1028
19.0189
29.3427
19.795
29.5385
20.4473
29.8592
21.1128
30.0951
21.7261
30.3954
22.2722
30.6924
22.8347
30.9735
23.3692
31.2423
31.5687
23.8646
0.976675
19.461
1.96981
20.1458
2.97461
20.9505
3.98599
21.8653
4.9999
22.874
6.01376
23.9513
7.00544
25.063
8.00168
25.8233
9.04898
26.1057
10.0398
26.2573
10.9263
26.4651
11.9745
26.5324
12.9503
26.7113
13.8052
26.9542
14.7511
27.1148
15.6579
27.3275
16.5156
27.5468
17.3941
27.7658
18.1439
28.0928
18.9435
28.3032
19.7514
28.5349
20.4319
28.858
21.1734
29.1177
21.8116
29.4569
22.437
29.7699
23.062
30.0674
23.6236
30.4119
24.1366
30.7292
31.0946
24.6108
1.00084
18.4602
2.01835
19.1283
3.04789
19.9209
4.08377
20.8294
5.11871
21.8391
6.14013
22.9298
7.17084
24.0323
8.23758
24.7566
9.24824
25.095
10.2363
25.2693
11.3559
25.3455
12.3118
25.5765
13.2469
25.7762
14.2708
25.9303
15.2137
26.1719
16.1432
26.3981
17.0282
26.6617
17.8635
26.9305
18.77
27.1863
19.5735
27.4998
20.3163
27.792
21.1067
28.0676
21.784
28.4404
22.4798
28.7612
23.1552
29.0945
23.7421
29.4805
24.3198
29.8342
24.8259
30.2231
30.6114
25.309
1.01799
17.4422
2.05271
18.0936
3.09904
18.8746
4.151
19.7775
5.20361
20.7865
6.25965
21.8738
7.32329
22.9686
8.36902
23.7108
9.45932
24.0047
10.5601
24.1685
11.5306
24.375
12.5688
24.5382
13.6411
24.7039
14.6026
24.9688
15.5754
25.1992
16.5181
25.4554
17.4462
25.7336
18.4153
25.9614
19.2393
26.3623
20.0954
26.6436
20.9024
26.9851
21.6206
27.3494
22.4292
27.6317
23.1139
28.0765
23.7617
28.4467
24.3991
28.8431
24.9267
29.3067
25.4848
29.665
30.1305
25.9658
1.02997
16.4122
2.07666
17.0469
3.13562
17.8157
4.20165
18.7114
5.26966
19.7185
6.32458
20.8189
7.38064
21.9126
8.50336
22.5881
9.58464
22.9234
10.6637
23.0894
11.7419
23.2968
12.815
23.465
13.83
23.6889
14.8835
23.9153
15.9031
24.1795
16.8788
24.4797
17.8865
24.7258
18.736
25.112
19.7041
25.3942
20.5449
25.8028
21.3552
26.1748
22.2084
26.4963
22.9018
26.9382
23.6569
27.3214
24.3206
27.783
24.9408
28.2229
25.5572
28.6903
26.0453
29.1769
29.6164
26.5594
1.03489
15.3773
2.08615
15.9956
3.14904
16.7528
4.21689
17.6436
5.2825
18.6529
6.34888
19.7525
7.46047
20.801
8.54139
21.5072
9.6781
21.7867
10.776
21.9915
11.9245
22.1483
12.9747
22.4148
14.0678
22.5959
15.1152
22.8679
16.1606
23.1342
17.1693
23.471
18.1244
23.7707
19.1178
24.1186
19.9752
24.5368
20.9536
24.8244
21.8442
25.2842
22.5982
25.7423
23.4004
26.136
24.0866
26.6352
24.8186
27.051
25.447
27.5945
26.0569
28.0804
26.605
28.6288
29.2032
27.0182
1.03302
14.3443
2.082
14.9466
3.14258
15.6922
4.2094
16.5768
5.28022
17.582
6.35294
18.6798
7.41174
19.7422
8.57202
20.3469
9.72535
20.6334
10.8476
20.8693
11.9353
21.0606
13.1015
21.2486
14.1473
21.55
15.252
21.7633
16.2869
22.0993
17.3809
22.377
18.3748
22.7768
19.3142
23.1792
20.3754
23.4755
21.2342
23.9657
22.1462
24.3721
23.0036
24.8849
23.7368
25.4028
24.5149
25.8571
25.1912
26.3748
25.9058
26.8799
26.4778
27.5084
27.0296
28.077
28.6902
27.5425
1.02479
13.3195
2.06494
13.9065
3.11648
14.6406
4.17301
15.5203
5.22734
16.5277
6.25885
17.6483
7.3989
18.6021
8.55727
19.1885
9.64485
19.5458
10.8367
19.6775
12.0027
19.8946
13.0775
20.1738
14.2445
20.383
15.3074
20.7004
16.4278
20.9788
17.4678
21.337
18.494
21.7506
19.6067
22.0665
20.5032
22.5791
21.4834
22.9855
22.3391
23.5164
23.2336
23.9904
24.1044
24.532
24.8514
25.1102
25.5826
25.6436
26.1925
26.27
26.8656
26.8353
27.3959
27.5468
28.2347
27.8514
1.00949
12.31
2.03332
12.8827
3.06746
13.6065
4.1047
14.483
5.13504
15.4974
6.2178
16.5655
7.29859
17.5213
8.39424
18.0929
9.64485
18.2952
10.765
18.5573
11.8819
18.7777
13.082
18.9738
14.1962
19.2687
15.3426
19.554
16.4003
19.9211
17.5136
20.2237
18.6035
20.6607
19.5671
21.1029
20.6499
21.4962
21.5754
22.06
22.5761
22.5157
23.4215
23.1451
24.2877
23.6658
25.1346
24.2632
25.8165
24.9617
26.5023
25.5841
27.0455
26.2921
27.6769
26.9154
27.7281
28.1836
0.988077
11.3219
1.98956
11.8812
3.0008
12.5953
4.01564
13.4682
5.04599
14.467
6.03227
15.5792
7.12404
16.4296
8.3625
16.8544
9.46534
17.1924
10.6317
17.3909
11.8443
17.5652
12.9637
17.8543
14.1094
18.1231
15.2136
18.4498
16.4015
18.7331
17.4278
19.1975
18.572
19.5165
19.6708
20.0041
20.6117
20.5553
21.6502
21.0215
22.5647
21.6012
23.5832
22.1265
24.4217
22.8273
25.2453
23.4396
26.0322
24.1747
26.6699
24.9464
27.3482
25.6138
27.8297
26.4339
27.1693
28.3885
0.960956
10.361
1.93427
10.9079
2.91702
11.6125
3.90241
12.4828
4.85067
13.5188
5.89895
14.5309
7.02984
15.2987
8.10794
15.7763
9.33427
15.966
10.5087
16.2165
11.5994
16.4745
12.7808
16.6728
13.9348
16.9691
15.1354
17.2492
16.2118
17.6567
17.387
18.0223
18.435
18.4686
19.498
18.9411
20.6198
19.4335
21.6115
20.0298
22.6307
20.5819
23.5175
21.2397
24.4934
21.8514
25.2603
22.6727
26.0998
23.3353
26.8755
24.1707
27.4465
25.0429
28.0527
25.8276
26.8087
28.4133
0.928212
9.43277
1.86731
9.96876
2.81383
10.666
3.75045
11.5462
4.73498
12.5342
5.71666
13.5492
6.76693
14.2484
7.9859
14.5573
9.07331
14.8786
10.2294
15.0604
11.4537
15.2501
12.5886
15.5379
13.7488
15.8089
14.8262
16.1718
16.0176
16.4653
17.1127
16.9272
18.2921
17.2891
19.3708
17.8624
20.3991
18.4052
21.508
18.9209
22.5128
19.5771
23.5163
20.2363
24.3899
20.9778
25.349
21.7136
26.0603
22.624
26.8043
23.4266
27.5438
24.3034
28.0921
25.2793
26.2765
28.6243
0.891082
8.54169
1.79279
9.06705
2.70056
9.75823
3.61956
10.6272
4.4874
11.6664
5.48761
12.549
6.62366
13.1124
7.67571
13.5053
8.89304
13.6613
10.0456
13.9079
11.1349
14.1608
12.2613
14.4116
13.3928
14.6774
14.6096
14.955
15.6933
15.3816
16.8888
15.7317
17.9311
16.2469
19.1183
16.6752
20.2503
17.2731
21.2628
17.9085
22.3236
18.5162
23.3007
19.2593
24.2861
19.9923
25.1365
20.8632
26.1063
21.6542
26.808
22.725
27.5104
23.6011
28.135
24.6547
25.8282
28.5833
0.850084
7.6916
1.7099
8.20723
2.57925
8.88888
3.41312
9.79329
4.34147
10.738
5.31751
11.573
6.34177
12.0881
7.52415
12.3229
8.55618
12.6293
9.67063
12.7934
10.8442
12.9871
11.9903
13.2655
13.1302
13.5375
14.1803
13.905
15.3439
14.218
16.4676
14.608
17.6814
15.033
18.6968
15.6598
19.8867
16.0833
20.99
16.8052
22.0293
17.4769
23.099
18.1896
24.0626
19.0286
25.0365
19.8893
25.8292
20.8615
26.7635
21.7906
27.4006
22.964
28.035
24.0203
25.274
28.5892
0.805681
6.88592
1.62364
7.38928
2.43623
8.07629
3.27998
8.94954
4.09554
9.92247
5.07014
10.5984
6.16441
10.9938
7.15186
11.3354
8.33604
11.4451
9.43138
11.6981
10.4406
11.978
11.5636
12.1424
12.6834
12.4177
13.8469
12.7415
14.939
13.1259
16.0589
13.4881
17.1291
13.9628
18.3642
14.4247
19.3871
15.0604
20.6408
15.5515
21.7203
16.3973
22.7472
17.1628
23.7803
17.9955
24.7377
18.9319
25.6965
19.9027
26.4621
21.0251
27.3147
22.1114
27.8611
23.4739
24.696
28.4391
0.759775
6.12615
1.53171
6.61734
2.31537
7.29263
3.05075
8.21416
3.94306
9.03017
4.9036
9.63786
5.8464
10.051
6.98301
10.1988
7.94145
10.4867
8.98253
10.657
10.1357
10.8248
11.1962
11.0819
12.2503
11.3636
13.3055
11.6863
14.456
11.9755
15.5856
12.3585
16.709
12.8394
17.8228
13.3109
19.0135
13.8696
20.0297
14.5352
21.2561
15.1709
22.3342
16.0848
23.4007
16.929
24.4282
17.9044
25.3625
18.9685
26.2752
20.1123
27.0041
21.3826
27.7295
22.7484
24.2281
28.1974
0.712869
5.41328
1.4458
5.88441
2.1538
6.58463
2.93314
7.43483
3.72551
8.2378
4.63456
8.7288
5.68334
9.00227
6.58863
9.29355
7.65306
9.42225
8.68058
9.6295
9.6586
9.84677
10.6958
10.0447
11.7614
10.298
12.8738
10.5739
13.9356
10.9137
15.0291
11.265
16.1185
11.75
17.2691
12.1603
18.4134
12.7254
19.5817
13.3669
20.6312
14.1214
21.8658
14.8502
22.9216
15.8732
24.0181
16.8079
25.0282
17.9583
25.919
19.2215
26.7854
20.5162
27.4281
22.1057
23.6296
28.0267
0.668076
4.7452
1.35271
5.19977
2.04139
5.89596
2.71692
6.7593
3.57298
7.38174
4.47008
7.83169
5.33939
8.13296
6.35355
8.2794
7.26034
8.51546
8.24407
8.64577
9.26753
8.82331
10.2618
9.05047
11.2623
9.29748
12.2861
9.55015
13.3631
9.83665
14.4145
10.2135
15.5653
10.5993
16.634
11.0916
17.7982
11.5612
18.9177
12.2474
20.0958
12.9432
21.1919
13.7541
22.4293
14.6358
23.4915
15.7456
24.5951
16.8547
25.5531
18.2635
26.395
19.6743
27.1834
21.3173
23.1101
27.7029
0.624749
4.12045
1.27183
4.55269
1.88515
5.28264
2.60596
6.03849
3.35848
6.62922
4.21833
6.97185
5.14109
7.2102
5.96889
7.45159
6.94028
7.54407
7.8661
7.71994
8.78733
7.90209
9.73192
8.10588
10.7484
8.28104
11.7495
8.54906
12.7761
8.80997
13.7949
9.19478
14.8709
9.52323
15.9903
9.97216
17.0791
10.4724
18.2672
11.0593
19.3984
11.812
20.6047
12.5479
21.7416
13.499
22.9617
14.5255
24.0258
15.7907
25.1067
17.1827
26.0131
18.7679
26.7978
20.5325
22.4562
27.4517
0.584416
3.53604
1.17959
3.95751
1.76997
4.69226
2.42146
5.387
3.20039
5.85028
3.99506
6.17718
4.8025
6.40276
5.72187
6.53222
6.54733
6.71862
7.42318
6.84409
8.32735
6.99792
9.275
7.15823
10.2027
7.35331
11.1686
7.58317
12.1362
7.84238
13.1504
8.1806
14.1973
8.47635
15.2747
8.89475
16.3534
9.39365
17.489
9.9237
18.6816
10.6195
19.8874
11.342
21.1048
12.2815
22.2762
13.3541
23.4665
14.6004
24.5327
16.1164
25.5777
17.7229
26.4212
19.6891
21.8014
27.076
0.542661
2.99338
1.08788
3.4123
1.63591
4.14423
2.28339
4.73953
2.98846
5.14521
3.7605
5.40514
4.56873
5.59452
5.33607
5.76489
6.18634
5.86835
7.03063
5.99979
7.87813
6.15043
8.75309
6.28327
9.64193
6.46447
10.5656
6.65947
11.4951
6.91287
12.5037
7.172
13.4856
7.49452
14.5413
7.83901
15.5901
8.34489
16.742
8.77173
17.8636
9.49794
19.0963
10.1093
20.317
11.0609
21.5769
12.0942
22.7688
13.4085
23.9758
14.9094
25.0224
16.6764
26.0041
18.7073
21.0956
26.71
0.496989
2.49639
0.989859
2.91943
1.50803
3.62606
2.12865
4.1189
2.80712
4.46674
3.52105
4.69121
4.25518
4.8604
5.05032
4.96974
5.81162
5.10704
6.59857
5.21285
7.42159
5.32741
8.2511
5.45376
9.0974
5.61817
9.98035
5.77652
10.8677
6.02549
11.8201
6.21967
12.766
6.54858
13.7681
6.83685
14.8255
7.28754
15.8904
7.7068
17.0571
8.33128
18.2314
8.93491
19.4838
9.80847
20.7719
10.8061
22.0747
12.1057
23.3149
13.6692
24.5136
15.4777
25.5162
17.7047
20.2802
26.3316
0.446872
2.04951
0.886022
2.48028
1.39548
3.1166
1.96444
3.54994
2.61864
3.81253
3.29158
4.01828
3.99524
4.15674
4.69503
4.26995
5.45588
4.34619
6.18084
4.48789
6.98755
4.5207
7.73473
4.70658
8.56788
4.78502
9.36822
4.97617
10.2498
5.14387
11.1234
5.34612
12.0698
5.6022
13.0001
5.90655
14.0227
6.26488
15.0735
6.656
16.1645
7.24029
17.3653
7.73419
18.5778
8.59591
19.9032
9.48071
21.2548
10.7542
22.6302
12.2938
23.8904
14.2174
25.0716
16.5235
19.4254
25.9264
0.392838
1.65668
0.794547
2.07857
1.27185
2.6393
1.82845
2.99334
2.43295
3.20804
3.06522
3.386
3.71811
3.50385
4.39752
3.59055
5.08264
3.66107
5.79902
3.77151
6.51802
3.8017
7.24713
3.97747
8.03243
3.99973
8.78823
4.22036
9.63826
4.29384
10.4373
4.54709
11.3568
4.68264
12.2384
5.02497
13.2278
5.27554
14.2225
5.66123
15.3159
6.1469
16.4023
6.64781
17.6797
7.31853
18.9417
8.21869
20.3774
9.31844
21.8376
10.8336
23.2556
12.7994
24.5339
15.2453
18.3809
25.5784
0.342038
1.31464
0.706165
1.71444
1.17398
2.17148
1.67343
2.49389
2.27494
2.60653
2.83411
2.82683
3.47139
2.86657
4.0975
2.96444
4.7492
3.00937
5.39539
3.12532
6.08561
3.11148
6.76584
3.29724
7.50977
3.2558
8.219
3.51113
9.02248
3.49036
9.7693
3.80028
10.6392
3.81273
11.4713
4.19289
12.4216
4.32519
13.3606
4.72227
14.4427
5.06479
15.5043
5.58619
16.7068
6.11609
17.9874
6.93811
19.4097
7.89611
20.91
9.3333
22.5388
11.1707
23.9947
13.7894
17.1264
25.2491
0.295157
1.01948
0.634365
1.37523
1.07441
1.73144
1.54034
2.02795
2.11487
2.032
2.61599
2.32571
3.23604
2.24651
3.79682
2.40366
4.4252
2.381
5.02247
2.52805
5.67631
2.45764
6.32771
2.64583
7.00191
2.58161
7.67944
2.8336
8.40634
2.76346
9.14714
3.05948
9.92985
3.03001
10.7495
3.37321
11.6286
3.4461
12.5281
3.82278
13.5555
4.03737
14.5799
4.56184
15.7785
4.91744
16.9647
5.75193
18.4609
6.39987
19.9027
7.89159
21.7976
9.27571
23.3383
12.2487
15.5174
24.9473
0.25439
0.765091
0.571917
1.05771
0.983211
1.32014
1.41823
1.59293
1.95138
1.49885
2.41549
1.8616
3.00642
1.65559
3.50426
1.90581
4.11801
1.76725
4.66025
1.98581
5.28301
1.83488
5.86802
2.06082
6.51478
1.93484
7.1379
2.21047
7.83529
2.06608
8.51222
2.38255
9.26687
2.27537
10.005
2.63511
10.869
2.5821
11.6806
3.01109
12.6884
3.02964
13.6403
3.60988
14.8498
3.70794
15.997
4.60473
17.5003
4.89666
19.0066
6.38523
20.9684
7.31392
22.8072
10.4099
13.5879
24.7366
0.222084
0.543006
0.519515
0.760276
0.895839
0.943819
1.30618
1.18259
1.80517
0.999867
2.2386
1.42817
2.77172
1.12246
3.26051
1.41703
3.80704
1.22072
4.32576
1.46709
4.89552
1.26512
5.45771
1.49864
6.0235
1.36906
6.65835
1.57562
7.26194
1.46248
7.95944
1.68506
8.61474
1.62006
9.38626
1.8636
10.1241
1.84427
10.9961
2.13905
11.8526
2.17317
12.878
2.58448
13.9076
2.67839
15.1801
3.33221
16.4966
3.58012
18.2039
4.67797
20.0419
5.47589
22.5567
7.89516
11.041
25.1036
0.197663
0.345344
0.47678
0.481159
0.809623
0.610976
1.23198
0.76023
1.62661
0.605239
2.10965
0.945132
2.53408
0.698035
3.04668
0.904432
3.50386
0.763531
4.0456
0.925347
4.51578
0.794945
5.08927
0.925145
5.58856
0.869771
6.19673
0.967448
6.72744
0.931773
7.36543
1.04707
7.95148
1.03402
8.64707
1.16801
9.31453
1.17681
10.1051
1.34853
10.8919
1.3863
11.8389
1.63748
12.8036
1.71367
14.0105
2.12534
15.2856
2.30507
16.9504
3.01313
18.8615
3.56483
21.8305
4.92615
7.67687
25.1946
0.18008
0.165264
0.434416
0.226823
0.748216
0.297176
1.15066
0.357783
1.47232
0.283583
1.96077
0.456683
2.33105
0.327753
2.80986
0.425619
3.22641
0.346982
3.71771
0.434053
4.14107
0.371578
4.63075
0.435468
5.09228
0.408238
5.60231
0.457419
6.09461
0.439472
6.64383
0.497852
7.19007
0.487769
7.80128
0.556797
8.42316
0.554933
9.12755
0.644136
9.86042
0.65343
10.7134
0.784507
11.6203
0.806742
12.7218
1.02385
13.9423
1.08463
15.493
1.46239
17.3463
1.71156
20.3616
1.9108
4.17427
23.8642
0.165264
0.392087
0.689263
1.04705
1.33063
1.78731
2.11506
2.54068
2.88767
3.32172
3.6933
4.12876
4.537
4.99442
5.43389
5.93175
6.41952
6.97631
7.53124
8.17538
8.82881
9.61332
10.4201
11.4439
12.5285
13.9909
15.7025
17.6133
21.7876
1.06177
54.125
1.07631
54.1257
1.09043
54.1261
1.10415
54.1265
1.11745
54.1269
1.13033
54.1274
1.14279
54.1278
1.15484
54.1282
1.16647
54.1286
1.17766
54.129
1.18843
54.1295
1.19876
54.1299
1.20865
54.1303
1.2181
54.1308
1.2271
54.1312
1.23564
54.1317
1.24372
54.1322
1.25132
54.1326
1.25846
54.1331
1.26511
54.1336
1.27128
54.1341
1.27695
54.1346
1.28212
54.1351
1.28678
54.1356
1.29094
54.1361
1.29457
54.1366
1.29769
54.1371
1.30029
54.1376
1.30236
54.1382
1.30389
54.1387
1.3049
54.1392
1.30538
54.1398
1.30533
54.1403
1.30474
54.1408
1.3036
54.1414
1.30189
54.1419
1.29962
54.1425
1.29677
54.1431
1.29336
54.1437
1.28937
54.1442
1.28482
54.1448
1.2797
54.1454
1.27402
54.1459
1.26777
54.1465
1.26096
54.147
1.25358
54.1476
1.24564
54.1482
1.23713
54.1487
1.22807
54.1493
1.21844
54.1499
1.20825
54.1504
1.19749
54.151
1.18616
54.1516
1.17428
54.1521
1.16183
54.1527
1.14883
54.1532
1.13529
54.1538
1.12123
54.1543
1.10665
54.1548
1.09162
54.1553
1.07619
54.1557
1.06038
54.156
1.0442
54.1564
1.02765
54.1568
1.01076
54.1571
0.993521
54.1575
0.975958
54.1578
0.958086
54.1581
0.93991
54.1584
0.921455
54.1587
0.90273
54.159
0.883757
54.1592
0.864546
54.1594
0.845123
54.1597
0.8255
54.1599
0.805692
54.16
0.785724
54.1602
0.765609
54.1603
0.745372
54.1605
0.725026
54.1606
0.704586
54.1607
0.684068
54.1608
0.663499
54.1608
0.642893
54.1608
0.622274
54.1609
0.60166
54.1608
0.581079
54.1608
0.560549
54.1608
0.540093
54.1607
0.519734
54.1606
0.499501
54.1605
0.479413
54.1603
0.459503
54.1601
0.439802
54.1599
0.420356
54.1597
0.401204
54.1594
0.382404
54.159
0.364004
54.1586
0.346071
54.1582
0.328668
54.1576
0.311858
54.157
0.295652
54.1564
0.280022
54.1559
0.264964
54.1553
0.250462
54.1547
0.236513
54.1542
0.223113
54.1536
0.210275
54.1531
0.198003
54.1525
0.186302
54.1519
0.17515
54.1514
0.164495
54.1509
0.154128
54.1506
0.143832
54.1505
0.133561
54.1505
0.12326
54.1505
0.112857
54.1506
0.102353
54.1507
0.0915712
54.151
0.0802838
54.1515
0.0682908
54.1522
0.0554496
54.1531