/*--------------------------------*- C++ -*----------------------------------*\
| =========                 |                                                 |
| \\      /  F ield         | OpenFOAM: The Open Source CFD Toolbox           |
|  \\    /   O peration     | Version:  5.x                                   |
|   \\  /    A nd           | Web:      www.OpenFOAM.org                      |
|    \\/     M anipulation  |                                                 |
\*---------------------------------------------------------------------------*/
/*   Windows 32 and 64 bit porting by blueCAPE: http://www.bluecape.com.pt   *\
|  Based on Windows porting (2.0.x v4) by Symscape: http://www.symscape.com   |
\*---------------------------------------------------------------------------*/
FoamFile
{
    version     2.0;
    format      ascii;
    class       volVectorField;
    location    "90";
    object      U;
}
// * * * * * * * * * * * * * * * * * * * * * * * * * * * * * * * * * * * * * //

dimensions      [0 1 -1 0 0 0 0];

internalField   nonuniform List<vector> 
43900
(
(1.1606 -0.000107266 -2.14269e-027)
(1.16801 0.00153472 -5.75026e-027)
(1.16968 0.000463687 2.41986e-030)
(1.16937 0.0016282 2.40677e-030)
(1.17002 0.000926952 3.34836e-030)
(1.17008 0.00159195 3.4482e-030)
(1.17015 0.00136995 7.67493e-027)
(1.17028 0.00153989 -1.53408e-026)
(1.17031 0.00168151 8.75659e-030)
(1.17038 0.0016346 -1.53144e-026)
(1.17044 0.00174438 1.53363e-026)
(1.17049 0.00178177 1.02666e-029)
(1.17053 0.00182756 -1.52864e-026)
(1.17057 0.00187022 2.19261e-029)
(1.17061 0.00190981 2.25345e-029)
(1.17064 0.00194659 2.30992e-029)
(1.17067 0.00198121 -3.04808e-026)
(1.1707 0.00201388 4.81703e-029)
(1.17072 0.002045 3.05048e-026)
(1.17073 0.00207297 2.49417e-029)
(1.17074 0.00210426 2.53282e-029)
(1.17074 0.0021344 2.56928e-029)
(1.17073 0.00216332 2.60428e-029)
(1.17073 0.0021915 2.6378e-029)
(1.17073 0.00221913 2.66987e-029)
(1.17073 0.00224625 -3.02467e-026)
(1.17073 0.00227282 5.46017e-029)
(1.17073 0.00229885 5.51658e-029)
(1.17073 0.00232496 1.20818e-025)
(1.16038 0.00787731 0)
(1.16573 -0.00258283 0)
(1.16861 0.00611865 0)
(1.16574 0.000854502 0)
(1.16759 0.0043226 0)
(1.16709 0.00310077 0)
(1.16728 0.00360819 0)
(1.16753 0.00441207 0)
(1.16768 0.00385578 0)
(1.16773 0.00465605 0)
(1.16777 0.00466322 0)
(1.16781 0.00488593 0)
(1.16785 0.00508058 0)
(1.16787 0.00525661 0)
(1.16789 0.00542049 0)
(1.16791 0.00557464 0)
(1.16792 0.00571965 0)
(1.16793 0.00585693 0)
(1.16793 0.00598696 0)
(1.16794 0.00611142 0)
(1.16795 0.00622477 0)
(1.16797 0.00633229 0)
(1.16799 0.00643399 0)
(1.168 0.00653061 0)
(1.16802 0.00662187 0)
(1.16803 0.00670869 0)
(1.16805 0.00679116 0)
(1.16806 0.00686894 0)
(1.16808 0.00694276 0)
(1.11379 0.0279339 0)
(1.15248 -0.0149091 0)
(1.16587 0.0244034 0)
(1.16381 -0.00365442 0)
(1.1664 0.0165935 0)
(1.16449 0.00303244 0)
(1.166 0.0115204 0)
(1.16507 0.00675972 0)
(1.16542 0.00911832 0)
(1.16556 0.00838715 0)
(1.16576 0.00853139 0)
(1.16595 0.00871442 0)
(1.16613 0.00882812 0)
(1.16628 0.00894324 0)
(1.16643 0.00906157 0)
(1.16655 0.00918125 0)
(1.16667 0.0093003 0)
(1.16677 0.00941758 0)
(1.16687 0.00953227 0)
(1.16697 0.0096451 0)
(1.16705 0.00975384 0)
(1.16714 0.00986082 0)
(1.16722 0.00996511 0)
(1.16729 0.0100673 0)
(1.16736 0.0101677 0)
(1.16742 0.0102665 0)
(1.16748 0.010363 0)
(1.16753 0.0104575 0)
(1.16758 0.0105507 2.11573e-027)
(1.05038 0.022821 0)
(1.10152 -0.00940202 0)
(1.14502 0.0227636 0)
(1.16265 0.00439162 0)
(1.16418 0.0213726 0)
(1.16507 0.00795713 0)
(1.16555 0.0183313 0)
(1.16584 0.0112782 0)
(1.16622 0.0155341 0)
(1.16626 0.0134572 0)
(1.16633 0.0141391 0)
(1.16642 0.0141002 0)
(1.1665 0.0141053 0)
(1.16659 0.0141372 0)
(1.16669 0.0141855 0)
(1.1668 0.0142454 0)
(1.16691 0.0143158 0)
(1.16704 0.0143957 0)
(1.16717 0.0144848 0)
(1.16729 0.0145834 0)
(1.16741 0.0146906 0)
(1.16751 0.0148048 0)
(1.16762 0.0149254 0)
(1.16771 0.0150502 0)
(1.16781 0.0151791 0)
(1.1679 0.0153099 0)
(1.16799 0.0154453 0)
(1.16807 0.0155826 0)
(1.16815 0.0157184 2.24236e-027)
(1.01333 0.0110962 4.54116e-027)
(1.05253 -0.00183588 0)
(1.09405 0.0119467 0)
(1.13502 0.0116542 0)
(1.1579 0.0185785 0)
(1.1644 0.0137749 0)
(1.16392 0.0194884 0)
(1.16422 0.0154044 0)
(1.16429 0.0182649 0)
(1.1645 0.016951 0)
(1.16473 0.0175666 0)
(1.16494 0.0176129 0)
(1.16511 0.0176592 0)
(1.16526 0.0177337 0)
(1.16539 0.017819 0)
(1.16551 0.01791 0)
(1.16561 0.0180081 0)
(1.1657 0.0181133 0)
(1.16574 0.0182305 0)
(1.16578 0.0183557 0)
(1.16582 0.0184893 0)
(1.16587 0.0186299 0)
(1.16592 0.0187773 0)
(1.16597 0.0189316 0)
(1.16603 0.0190922 0)
(1.16608 0.0192552 0)
(1.16614 0.0194193 0)
(1.16621 0.0195894 0)
(1.16627 0.0197653 -9.47086e-027)
(0.986244 0.00629109 -4.74442e-027)
(1.01944 0.000339913 0)
(1.05453 0.00713717 0)
(1.091 0.00998001 0)
(1.1274 0.0138859 0)
(1.1543 0.0149179 0)
(1.16255 0.0184361 0)
(1.16293 0.0156809 0)
(1.16288 0.0179379 0)
(1.16291 0.0168569 0)
(1.16291 0.0175047 0)
(1.16282 0.0176296 0)
(1.16266 0.0177867 0)
(1.16251 0.0180025 0)
(1.16237 0.0182281 0)
(1.16222 0.0184599 0)
(1.16209 0.0186979 0)
(1.16196 0.0189431 0)
(1.16188 0.0191891 0)
(1.16181 0.0194362 0)
(1.16175 0.0196852 0)
(1.16171 0.0199343 0)
(1.16168 0.0201851 0)
(1.16166 0.0204379 0)
(1.16165 0.020693 0)
(1.16165 0.0209525 0)
(1.16166 0.0212111 0)
(1.16168 0.0214708 0)
(1.16171 0.0217336 5.01247e-027)
(0.967832 0.00381898 0)
(0.997817 0.00083077 0)
(1.0296 0.00468237 0)
(1.06289 0.00692402 0)
(1.09675 0.00936978 0)
(1.1296 0.0116927 0)
(1.15498 0.0146839 0)
(1.16127 0.0137646 0)
(1.16098 0.0155819 0)
(1.16059 0.0149532 0)
(1.1602 0.015734 0)
(1.15986 0.0161154 0)
(1.15963 0.0165411 0)
(1.15942 0.0169943 0)
(1.15924 0.0174439 0)
(1.15907 0.017893 0)
(1.15893 0.0183407 0)
(1.1588 0.0187866 0)
(1.1587 0.0192292 0)
(1.15862 0.0196687 0)
(1.15854 0.0201069 0)
(1.15848 0.0205402 0)
(1.15843 0.0209724 0)
(1.15839 0.0214007 0)
(1.15837 0.0218244 0)
(1.15835 0.0222474 0)
(1.15835 0.0226677 0)
(1.15835 0.023082 0)
(1.15837 0.0234916 0)
(0.955459 0.00218479 0)
(0.983674 0.00123212 0)
(1.01366 0.00348059 0)
(1.04513 0.00523231 0)
(1.07735 0.00701301 0)
(1.10921 0.00890637 0)
(1.13879 0.0111038 0)
(1.15578 0.0119588 0)
(1.15751 0.0134029 0)
(1.15717 0.0134406 0)
(1.15685 0.0143614 0)
(1.15656 0.0149813 0)
(1.15635 0.0156349 0)
(1.15617 0.0163004 0)
(1.15601 0.0169583 0)
(1.15589 0.0176134 0)
(1.15578 0.0182648 0)
(1.15571 0.0189121 0)
(1.15565 0.0195555 0)
(1.15561 0.0201937 0)
(1.15559 0.0208287 0)
(1.15558 0.021456 0)
(1.15559 0.0220802 0)
(1.15561 0.0226973 0)
(1.15565 0.0233063 0)
(1.1557 0.0239083 0)
(1.15576 0.0245049 0)
(1.15583 0.0250927 0)
(1.15591 0.0256718 0)
(0.944346 0.00137138 0)
(0.971707 0.00159299 0)
(1.00085 0.00322321 0)
(1.0314 0.00477474 0)
(1.06276 0.00632854 0)
(1.09405 0.00793263 0)
(1.12386 0.00966556 0)
(1.1457 0.0109827 0)
(1.15036 0.012351 0)
(1.1504 0.0128427 0)
(1.15027 0.0138349 0)
(1.15015 0.0146479 0)
(1.15005 0.0154892 0)
(1.14998 0.0163226 0)
(1.14993 0.017145 0)
(1.1499 0.0179599 0)
(1.14989 0.0187672 0)
(1.1499 0.0195666 0)
(1.14992 0.0203594 0)
(1.14995 0.0211441 0)
(1.15001 0.0219221 0)
(1.15007 0.0226908 0)
(1.15014 0.0234545 0)
(1.15024 0.0242093 0)
(1.15035 0.0249556 0)
(1.15047 0.0256919 0)
(1.15061 0.0264205 0)
(1.15076 0.0271392 0)
(1.15093 0.0278517 0)
(0.934026 0.00110643 0)
(0.960756 0.00161879 0)
(0.98933 0.00303607 0)
(1.01935 0.00444004 0)
(1.05024 0.00583708 0)
(1.08118 0.00724923 0)
(1.11084 0.00869978 0)
(1.13428 0.0100886 0)
(1.14045 0.0114565 0)
(1.14064 0.0123098 0)
(1.14058 0.0134233 0)
(1.14054 0.0144546 0)
(1.14053 0.0154932 0)
(1.14054 0.0165144 0)
(1.14058 0.0175206 0)
(1.14063 0.0185132 0)
(1.14071 0.0194926 0)
(1.1408 0.0204586 0)
(1.14091 0.0214116 0)
(1.14104 0.0223519 0)
(1.1412 0.0232788 0)
(1.14134 0.0241927 0)
(1.14152 0.0250957 0)
(1.14171 0.0259854 0)
(1.14193 0.0268629 0)
(1.14216 0.0277266 0)
(1.14241 0.0285779 0)
(1.14267 0.029415 0)
(1.14294 0.0302419 -1.3019e-026)
(0.924999 0.000762349 0)
(0.951369 0.00168038 0)
(0.979546 0.00294619 0)
(1.00917 0.00423503 0)
(1.03973 0.00553477 0)
(1.07046 0.0068452 0)
(1.10008 0.00816441 0)
(1.12405 0.00957567 0)
(1.13084 0.0110003 0)
(1.13117 0.012105 0)
(1.13121 0.0133485 0)
(1.13128 0.0145615 0)
(1.13137 0.01577 0)
(1.13147 0.0169608 0)
(1.1316 0.0181361 0)
(1.13175 0.0192958 0)
(1.13192 0.0204401 0)
(1.13211 0.0215688 0)
(1.13232 0.0226817 0)
(1.13254 0.0237792 0)
(1.1328 0.0248607 0)
(1.13304 0.0259264 0)
(1.13331 0.0269765 0)
(1.13361 0.0280103 0)
(1.13393 0.0290283 0)
(1.13427 0.0300298 0)
(1.13463 0.0310152 0)
(1.135 0.0319834 0)
(1.13539 0.0329348 1.37513e-026)
(0.916242 0.00056653 0)
(0.942377 0.00186608 0)
(0.970348 0.00319729 0)
(0.999756 0.00452731 0)
(1.03008 0.00587002 0)
(1.0606 0.00722098 0)
(1.09013 0.00856622 0)
(1.11432 0.0100618 0)
(1.12145 0.0115716 0)
(1.12193 0.0128333 0)
(1.1221 0.0141879 0)
(1.12229 0.0155416 0)
(1.1225 0.0168881 0)
(1.12273 0.0182203 0)
(1.12298 0.0195389 0)
(1.12325 0.020843 0)
(1.12354 0.0221324 0)
(1.12385 0.0234065 0)
(1.12418 0.0246647 0)
(1.12453 0.0259069 0)
(1.12491 0.0271326 0)
(1.12528 0.0283412 0)
(1.12568 0.0295319 0)
(1.12611 0.0307044 0)
(1.12656 0.0318591 0)
(1.12703 0.0329957 0)
(1.12751 0.034113 0)
(1.12802 0.0352123 0)
(1.12854 0.036291 1.49546e-026)
(0.906846 0.000567404 0)
(0.932776 0.00214641 0)
(0.960578 0.00364193 0)
(0.989867 0.00512919 0)
(1.02011 0.0066298 0)
(1.05054 0.00812842 0)
(1.07996 0.00959959 0)
(1.10405 0.0112439 0)
(1.11128 0.0128871 0)
(1.11187 0.0143056 0)
(1.11213 0.0158023 0)
(1.11242 0.0173125 0)
(1.11273 0.0188134 0)
(1.11307 0.0203012 0)
(1.11343 0.0217753 0)
(1.11381 0.0232352 0)
(1.11422 0.0246799 0)
(1.11465 0.0261087 0)
(1.11511 0.0275214 0)
(1.11559 0.0289162 0)
(1.1161 0.0302938 0)
(1.11662 0.0316531 0)
(1.11716 0.0329912 0)
(1.11773 0.0343107 0)
(1.11832 0.0356095 0)
(1.11894 0.0368872 0)
(1.11958 0.0381447 0)
(1.12023 0.0393801 0)
(1.12091 0.040594 -1.58019e-026)
(0.896683 0.000633935 0)
(0.922415 0.0024492 0)
(0.950055 0.00414607 0)
(0.979221 0.00583185 0)
(1.00938 0.00753138 0)
(1.03979 0.0092239 0)
(1.06922 0.0108752 0)
(1.09311 0.0127239 0)
(1.1002 0.0145554 0)
(1.10085 0.0161694 0)
(1.10119 0.0178602 0)
(1.10155 0.0195695 0)
(1.10195 0.0212668 0)
(1.10237 0.0229483 0)
(1.10283 0.0246147 0)
(1.10332 0.0262639 0)
(1.10384 0.0278955 0)
(1.10439 0.0295095 0)
(1.10497 0.0311026 0)
(1.10559 0.0326768 0)
(1.10622 0.0342302 0)
(1.10689 0.0357596 0)
(1.10758 0.0372691 0)
(1.10829 0.0387522 0)
(1.10904 0.040211 0)
(1.10981 0.0416494 0)
(1.11061 0.0430559 0)
(1.11144 0.0444406 0)
(1.11228 0.0458012 -1.72891e-026)
(0.885749 0.000727234 0)
(0.911283 0.00278955 0)
(0.938767 0.00472099 0)
(0.96782 0.00663767 0)
(0.997912 0.00856707 0)
(1.02829 0.0104854 0)
(1.05776 0.012357 0)
(1.08148 0.0144596 0)
(1.0884 0.0165286 0)
(1.08911 0.0183674 0)
(1.08952 0.0202902 0)
(1.08997 0.0222341 0)
(1.09046 0.0241614 0)
(1.09099 0.0260728 0)
(1.09156 0.0279628 0)
(1.09217 0.0298348 0)
(1.0928 0.0316861 0)
(1.09349 0.0335115 0)
(1.0942 0.0353196 0)
(1.09494 0.0370989 0)
(1.09575 0.0388518 0)
(1.09655 0.0405876 0)
(1.09739 0.0422831 0)
(1.0983 0.0439583 0)
(1.09919 0.0456097 0)
(1.10015 0.0472149 0)
(1.10113 0.0488091 0)
(1.10211 0.0503636 0)
(1.10316 0.0518824 1.8276e-026)
(0.873944 0.000843274 0)
(0.89927 0.00318827 0)
(0.926594 0.00539834 0)
(0.955537 0.00759042 0)
(0.985571 0.00979402 0)
(1.01594 0.0119818 0)
(1.04547 0.0141198 0)
(1.06901 0.0165238 0)
(1.0758 0.0188665 0)
(1.0766 0.0209593 0)
(1.07711 0.0231454 0)
(1.07766 0.0253525 0)
(1.07827 0.0275445 0)
(1.07891 0.0297084 0)
(1.07962 0.0318579 0)
(1.08033 0.0339783 0)
(1.08114 0.0360707 0)
(1.08196 0.0381485 0)
(1.08282 0.0401822 0)
(1.08378 0.042194 0)
(1.08468 0.0441877 0)
(1.0857 0.0461179 0)
(1.08676 0.0480483 0)
(1.08775 0.0499355 0)
(1.08894 0.051757 0)
(1.09007 0.0536004 0)
(1.09119 0.0553562 0)
(1.09249 0.0570827 0)
(1.09368 0.058809 0)
(0.86115 0.000979702 0)
(0.886251 0.00365066 0)
(0.913405 0.00618511 0)
(0.942235 0.00869847 0)
(0.972213 0.0112223 0)
(1.00258 0.013725 0)
(1.03218 0.0161751 0)
(1.05556 0.0189263 0)
(1.06226 0.0215833 0)
(1.06316 0.0239614 0)
(1.06378 0.0264481 0)
(1.06445 0.0289585 0)
(1.06518 0.0314356 0)
(1.06599 0.033906 0)
(1.06678 0.0363279 0)
(1.06775 0.0387317 0)
(1.06862 0.0411162 0)
(1.06965 0.0434354 0)
(1.07078 0.0457533 0)
(1.07172 0.0480364 0)
(1.07304 0.050229 0)
(1.07419 0.0524698 0)
(1.07531 0.0546093 0)
(1.07684 0.0566835 0)
(1.078 0.0588359 0)
(1.07935 0.0607888 0)
(1.08098 0.0627944 0)
(1.0822 0.0647761 0)
(1.08377 0.066599 0)
(0.847284 0.00113533 0)
(0.872142 0.00417747 0)
(0.899114 0.00708143 0)
(0.927825 0.00996085 0)
(0.957747 0.0128495 0)
(0.988118 0.0157104 0)
(1.0178 0.0185156 0)
(1.04104 0.0216665 0)
(1.04767 0.0246684 0)
(1.04871 0.0273851 0)
(1.04943 0.030207 0)
(1.05026 0.03305 0)
(1.05114 0.0358876 0)
(1.052 0.03865 0)
(1.05319 0.0414242 0)
(1.05403 0.0441474 0)
(1.05536 0.0468011 0)
(1.05655 0.0494764 0)
(1.05755 0.0520837 0)
(1.05931 0.0545783 0)
(1.06034 0.0571941 0)
(1.06176 0.0595934 0)
(1.06368 0.0619778 0)
(1.06465 0.0645007 0)
(1.06652 0.0666259 0)
(1.0684 0.0690167 0)
(1.0695 0.0712547 0)
(1.0717 0.0732712 0)
(1.07346 0.0755424 0)
(0.832286 0.00131132 5.25664e-026)
(0.85688 0.0047725 0)
(0.883657 0.00809341 0)
(0.912243 0.0113859 0)
(0.942112 0.0146858 0)
(0.972498 0.0179501 0)
(1.00229 0.0211603 0)
(1.02538 0.0247435 0)
(1.03203 0.028168 0)
(1.03313 0.0312223 0)
(1.0341 0.0344531 0)
(1.035 0.0376871 0)
(1.03599 0.0408526 0)
(1.03737 0.0440499 0)
(1.03809 0.0471475 0)
(1.03995 0.0502034 0)
(1.04093 0.0532716 0)
(1.04219 0.0562561 0)
(1.04444 0.0590783 0)
(1.04505 0.0621513 0)
(1.04722 0.0648046 0)
(1.04927 0.0675672 0)
(1.04996 0.0705245 0)
(1.05282 0.0727696 0)
(1.05451 0.0756923 0)
(1.05564 0.0781281 0)
(1.0588 0.0803851 0)
(1.06023 0.083098 0)
(1.06197 0.085166 0)
(0.816097 0.00150943 1.79101e-027)
(0.840407 0.00544096 0)
(0.866976 0.00922992 0)
(0.895434 0.012986 0)
(0.925252 0.0167477 0)
(0.955666 0.0204643 0)
(0.985584 0.0241188 0)
(1.0086 0.0282387 0)
(1.01515 0.0320253 0)
(1.01664 0.0356008 0)
(1.01747 0.0391751 0)
(1.01874 0.0428594 0)
(1.02016 0.0464897 0)
(1.02079 0.0500504 0)
(1.02336 0.0535458 0)
(1.0237 0.0570536 0)
(1.02579 0.060499 0)
(1.0282 0.0636365 0)
(1.02831 0.0673424 0)
(1.03176 0.0701752 0)
(1.03328 0.0734416 0)
(1.03412 0.0769219 0)
(1.03813 0.0791857 0)
(1.03907 0.0828973 0)
(1.04086 0.0854387 0)
(1.04484 0.0880181 0)
(1.04563 0.0913363 0)
(1.04829 0.0934191 0)
(1.05189 0.0962655 0)
(0.79867 0.00173123 -6.08501e-026)
(0.822675 0.00618809 0)
(0.849022 0.0104998 0)
(0.877346 0.0147737 0)
(0.90712 0.0190505 0)
(0.937577 0.0232707 0)
(0.96765 0.0274553 0)
(0.990476 0.0320293 0)
(0.997405 0.0365092 0)
(0.998487 0.0402758 0)
(1.00023 0.0445934 0)
(1.00136 0.0485846 0)
(1.00221 0.0527967 0)
(1.00539 0.0566415 0)
(1.00486 0.0608044 0)
(1.00844 0.0646957 0)
(1.01014 0.0681763 0)
(1.01028 0.0727472 0)
(1.01504 0.0755093 0)
(1.01554 0.0796331 0)
(1.01734 0.0835814 0)
(1.02195 0.0857731 0)
(1.02221 0.0906711 0)
(1.02509 0.0930232 0)
(1.02933 0.0961303 0)
(1.02985 0.100185 0)
(1.03347 0.10207 0)
(1.0372 0.105677 0)
(1.03819 0.108471 0)
(0.779967 0.00197708 0)
(0.803643 0.00701705 0)
(0.829755 0.0119079 0)
(0.85794 0.0167555 0)
(0.887673 0.0216039 0)
(0.918179 0.0263834 0)
(0.948426 0.0310788 0)
(0.971418 0.036495 0)
(0.977645 0.041049 0)
(0.980347 0.0459723 0)
(0.980779 0.0501516 0)
(0.982537 0.0552822 0)
(0.985748 0.0593185 0)
(0.984604 0.0645763 0)
(0.989654 0.0684952 0)
(0.990069 0.0727386 0)
(0.991277 0.0781334 0)
(0.996699 0.0807342 0)
(0.996443 0.0861295 0)
(0.999329 0.0901812 0)
(1.00394 0.0926171 0)
(1.00425 0.0988275 0)
(1.00779 0.100635 0)
(1.0123 0.104739 0)
(1.01304 0.10939 0)
(1.01725 0.111045 0)
(1.02127 0.115666 0)
(1.0226 0.118516 0)
(1.02749 0.121225 0)
(0.759962 0.00224787 -7.53582e-026)
(0.783288 0.00793205 0)
(0.809152 0.0134613 0)
(0.837195 0.0189414 0)
(0.866898 0.0244183 0)
(0.89749 0.0298099 0)
(0.92796 0.0352407 0)
(0.950326 0.0408738 0)
(0.958471 0.0469033 0)
(0.958526 0.051169 0)
(0.961903 0.0573542 0)
(0.963916 0.0615189 0)
(0.962924 0.0680244 0)
(0.969245 0.0717791 0)
(0.968639 0.0774357 0)
(0.971096 0.0831534 0)
(0.976371 0.0858775 0)
(0.97601 0.0927494 0)
(0.979472 0.09658 0)
(0.984398 0.0998793 0)
(0.985047 0.107054 0)
(0.988966 0.108596 0)
(0.99392 0.113834 0)
(0.994833 0.118911 0)
(0.999407 0.12063 0)
(1.00423 0.126307 0)
(1.00577 0.129345 0)
(1.01092 0.132363 0)
(1.01522 0.136498 6.88946e-026)
(0.738646 0.00254256 -2.67558e-027)
(0.761601 0.00893311 0)
(0.787202 0.0151588 0)
(0.815095 0.0213291 0)
(0.844761 0.0274949 0)
(0.87541 0.0335614 0)
(0.906045 0.0394839 0)
(0.929608 0.0465804 0)
(0.934427 0.0518755 0)
(0.939827 0.058706 0)
(0.939626 0.0631583 0)
(0.94047 0.0707922 0)
(0.947378 0.0748179 0)
(0.945665 0.0817811 0)
(0.948751 0.0874418 0)
(0.954412 0.0909408 0)
(0.954193 0.0994177 0)
(0.957867 0.10291 0)
(0.963455 0.10727 0)
(0.964207 0.114909 0)
(0.968209 0.116955 0)
(0.974098 0.123087 0)
(0.975122 0.128737 0)
(0.979935 0.130614 0)
(0.985647 0.137147 0)
(0.987406 0.140795 0)
(0.992719 0.143765 0)
(0.998071 0.148927 0)
(1.00003 0.152224 1.40266e-027)
(0.716031 0.00286012 8.7551e-026)
(0.738592 0.0100221 0)
(0.763919 0.0170042 0)
(0.791664 0.023924 0)
(0.821324 0.0308352 0)
(0.852147 0.0376263 0)
(0.88321 0.044585 0)
(0.904316 0.0515237 0)
(0.915379 0.0591295 0)
(0.913648 0.0644772 0)
(0.917616 0.0726411 0)
(0.923065 0.0770758 0)
(0.920191 0.0856443 0)
(0.925381 0.0911374 0)
(0.931415 0.096048 0)
(0.930158 0.105505 0)
(0.933925 0.108642 0)
(0.941327 0.114522 0)
(0.942126 0.122602 0)
(0.945454 0.12577 0)
(0.952408 0.132136 0)
(0.953756 0.138696 0)
(0.958987 0.140621 0)
(0.965602 0.14819 0)
(0.967424 0.152826 0)
(0.973057 0.15527 0)
(0.979478 0.162093 0)
(0.981772 0.165155 0)
(0.989241 0.168133 -7.87256e-026)
(0.692141 0.00319941 0)
(0.714287 0.0111964 0)
(0.739322 0.01899 0)
(0.766903 0.0267152 0)
(0.796514 0.0344321 0)
(0.827323 0.0420137 0)
(0.858184 0.0494567 0)
(0.883569 0.0581274 0)
(0.885805 0.0651937 0)
(0.893475 0.0733261 0)
(0.895634 0.0785864 0)
(0.893442 0.0889012 0)
(0.901827 0.0942785 0)
(0.905729 0.100607 0)
(0.903465 0.110567 0)
(0.909557 0.114089 0)
(0.918113 0.121715 0)
(0.917393 0.130271 0)
(0.919879 0.134274 0)
(0.929336 0.140453 0)
(0.931425 0.148844 0)
(0.936778 0.151026 0)
(0.943462 0.159723 0)
(0.945137 0.165174 0)
(0.951894 0.166923 0)
(0.95952 0.175888 0)
(0.962281 0.178794 0)
(0.970056 0.182359 0)
(0.974983 0.189333 0)
(0.667038 0.00355029 0)
(0.68875 0.012444 0)
(0.713485 0.0210958 0)
(0.740912 0.0296697 0)
(0.770556 0.0382293 0)
(0.801737 0.0466234 0)
(0.833888 0.0552463 0)
(0.852432 0.0642886 0)
(0.866892 0.0728421 0)
(0.8659 0.080072 0)
(0.866701 0.0906135 0)
(0.876151 0.0958923 0)
(0.876513 0.104936 0)
(0.875947 0.114544 0)
(0.88577 0.119565 0)
(0.89124 0.127975 0)
(0.888912 0.137355 0)
(0.894306 0.142054 0)
(0.906192 0.148871 0)
(0.906858 0.159167 0)
(0.911104 0.161197 0)
(0.918223 0.171014 0)
(0.921494 0.177145 0)
(0.931188 0.179042 0)
(0.937155 0.190195 0)
(0.940056 0.192655 0)
(0.948852 0.196723 0)
(0.953819 0.204972 0)
(0.960898 0.206606 9.31796e-026)
(0.640789 0.00392296 0)
(0.662051 0.01378 0)
(0.686474 0.0233473 0)
(0.713734 0.0328357 0)
(0.743323 0.0423191 0)
(0.77432 0.0516347 0)
(0.804777 0.0610312 0)
(0.83268 0.0711029 0)
(0.833907 0.080296 0)
(0.839862 0.0905111 0)
(0.84714 0.0961371 0)
(0.845263 0.109004 0)
(0.848472 0.116848 0)
(0.859098 0.123943 0)
(0.860433 0.133555 0)
(0.859802 0.143781 0)
(0.87044 0.149212 0)
(0.878918 0.157383 0)
(0.878027 0.168666 0)
(0.884234 0.170502 0)
(0.892286 0.182753 0)
(0.897666 0.188434 0)
(0.907646 0.191625 0)
(0.910626 0.204433 0)
(0.91636 0.20572 0)
(0.927527 0.21236 0)
(0.931078 0.221027 0)
(0.941089 0.222386 0)
(0.947315 0.228699 1.39126e-027)
(0.613488 0.00429008 0)
(0.634278 0.0151612 0)
(0.658365 0.0256625 0)
(0.685434 0.0360709 0)
(0.715026 0.0464631 0)
(0.74657 0.0566342 0)
(0.780483 0.0670086 0)
(0.79679 0.0782624 0)
(0.81172 0.0893358 0)
(0.814574 0.0961868 0)
(0.813709 0.111427 0)
(0.819926 0.117055 0)
(0.828928 0.128223 0)
(0.827651 0.138031 0)
(0.831258 0.148938 0)
(0.843528 0.154906 0)
(0.846459 0.165877 0)
(0.847501 0.176635 0)
(0.85943 0.17997 0)
(0.863985 0.194741 0)
(0.871232 0.19808 0)
(0.879028 0.205359 0)
(0.882613 0.218013 0)
(0.893974 0.218642 0)
(0.901643 0.229679 0)
(0.906458 0.235809 0)
(0.919693 0.238909 0)
(0.92322 0.246797 0)
(0.934166 0.252469 -2.13967e-025)
(0.585285 0.00466325 0)
(0.605602 0.0166062 0)
(0.629374 0.0280799 0)
(0.656316 0.0394635 0)
(0.685967 0.0508477 0)
(0.717401 0.0620457 0)
(0.746903 0.0735772 0)
(0.775162 0.0859758 0)
(0.779333 0.0955027 0)
(0.783078 0.110652 0)
(0.789162 0.11634 0)
(0.795952 0.13057 0)
(0.794236 0.14096 0)
(0.802365 0.152168 0)
(0.813028 0.159947 0)
(0.811422 0.173439 0)
(0.819399 0.182216 0)
(0.830541 0.190027 0)
(0.83223 0.204535 0)
(0.843062 0.206972 0)
(0.848455 0.220466 0)
(0.854832 0.228386 0)
(0.868221 0.232821 0)
(0.871535 0.246356 0)
(0.88325 0.249009 0)
(0.893911 0.257537 0)
(0.89811 0.264751 0)
(0.911266 0.270253 0)
(0.918727 0.276352 -1.27343e-027)
(0.556283 0.00502974 0)
(0.576105 0.0180948 0)
(0.599509 0.0305552 0)
(0.626198 0.0429216 0)
(0.655675 0.0552912 0)
(0.687333 0.0673945 0)
(0.722832 0.0800041 0)
(0.738559 0.0924691 0)
(0.751571 0.10737 0)
(0.755645 0.11475 0)
(0.761994 0.131079 0)
(0.759911 0.142444 0)
(0.771535 0.153418 0)
(0.777333 0.164118 0)
(0.776797 0.179282 0)
(0.790634 0.186326 0)
(0.794724 0.200419 0)
(0.798981 0.210506 0)
(0.814372 0.217101 0)
(0.816783 0.234791 0)
(0.826209 0.23654 0)
(0.8366 0.249794 0)
(0.84163 0.25956 0)
(0.857232 0.26289 0)
(0.86315 0.276779 0)
(0.871752 0.280343 0)
(0.887275 0.289704 0)
(0.893396 0.295692 0)
(0.905767 0.299368 1.22633e-025)
(0.526673 0.00536801 0)
(0.546005 0.0195868 0)
(0.569081 0.033014 0)
(0.595665 0.046344 0)
(0.625386 0.0596781 0)
(0.657597 0.0728258 0)
(0.686321 0.0862307 0)
(0.713542 0.102043 0)
(0.719532 0.112287 0)
(0.726089 0.129033 0)
(0.724713 0.141775 0)
(0.739356 0.15229 0)
(0.739085 0.167482 0)
(0.743555 0.181982 0)
(0.757509 0.189909 0)
(0.757271 0.207638 0)
(0.769243 0.214353 0)
(0.778635 0.229232 0)
(0.781477 0.242871 0)
(0.795814 0.246753 0)
(0.803545 0.266052 0)
(0.81191 0.269484 0)
(0.82574 0.280029 0)
(0.831365 0.293888 0)
(0.845399 0.295612 0)
(0.858625 0.309835 0)
(0.865144 0.314093 0)
(0.880939 0.320702 0)
(0.89117 0.330068 1.32282e-025)
(0.496635 0.00568956 0)
(0.515474 0.021104 0)
(0.538191 0.0355005 0)
(0.564531 0.0498141 0)
(0.593943 0.0641581 0)
(0.625495 0.0782878 0)
(0.661432 0.0932797 0)
(0.676938 0.107577 0)
(0.688346 0.123888 0)
(0.692107 0.137716 0)
(0.704355 0.150351 0)
(0.699731 0.168263 0)
(0.711048 0.180997 0)
(0.719971 0.192169 0)
(0.720183 0.212205 0)
(0.73541 0.219139 0)
(0.739795 0.237929 0)
(0.745785 0.248035 0)
(0.763034 0.258179 0)
(0.768032 0.277365 0)
(0.780427 0.280154 0)
(0.791621 0.297242 0)
(0.797716 0.306746 0)
(0.816274 0.313005 0)
(0.824713 0.328509 0)
(0.835996 0.331664 0)
(0.855307 0.343101 0)
(0.861682 0.349932 0)
(0.877758 0.356417 -1.40483e-025)
(0.466336 0.00597046 0)
(0.484684 0.022601 0)
(0.507048 0.037916 0)
(0.533247 0.0531558 0)
(0.562951 0.0684029 0)
(0.596087 0.0834859 0)
(0.623905 0.0991384 0)
(0.648687 0.116752 0)
(0.657759 0.13199 0)
(0.661392 0.145271 0)
(0.662414 0.166084 0)
(0.677683 0.179329 0)
(0.677167 0.192827 0)
(0.683572 0.213636 0)
(0.698363 0.222082 0)
(0.700658 0.243453 0)
(0.7108 0.251591 0)
(0.725761 0.269015 0)
(0.729116 0.284303 0)
(0.745216 0.28984 0)
(0.75517 0.313598 0)
(0.764993 0.317851 0)
(0.782224 0.331087 0)
(0.788683 0.344324 0)
(0.807387 0.349937 0)
(0.821089 0.363952 0)
(0.830754 0.369875 0)
(0.852478 0.380361 0)
(0.860921 0.385906 1.50432e-025)
(0.435997 0.00620526 0)
(0.453872 0.0240684 0)
(0.475907 0.0402519 0)
(0.501947 0.0563914 0)
(0.531433 0.0726025 0)
(0.562809 0.0886099 0)
(0.59744 0.106247 0)
(0.614218 0.122622 0)
(0.619434 0.139154 0)
(0.630862 0.16122 0)
(0.638166 0.171361 0)
(0.635931 0.192395 0)
(0.649752 0.211325 0)
(0.658 0.221917 0)
(0.658979 0.245133 0)
(0.675966 0.254065 0)
(0.683729 0.278161 0)
(0.691138 0.286304 0)
(0.70816 0.302909 0)
(0.712741 0.323467 0)
(0.729519 0.327095 0)
(0.745 0.349653 0)
(0.753961 0.357303 0)
(0.774897 0.368132 0)
(0.781329 0.382936 0)
(0.800852 0.389354 0)
(0.81908 0.403313 0)
(0.830151 0.407964 0)
(0.853066 0.41839 -3.19625e-025)
(0.405798 0.00638968 0)
(0.423206 0.0254969 0)
(0.444889 0.0424787 0)
(0.470729 0.059465 0)
(0.50029 0.0764009 0)
(0.533993 0.0938494 0)
(0.561449 0.11031 0)
(0.579773 0.131461 0)
(0.594179 0.150443 0)
(0.593213 0.163062 0)
(0.59711 0.189602 0)
(0.613217 0.20401 0)
(0.614721 0.221423 0)
(0.619261 0.24289 0)
(0.637599 0.256476 0)
(0.638469 0.280126 0)
(0.652763 0.288168 0)
(0.667127 0.31344 0)
(0.672166 0.328473 0)
(0.692697 0.33763 0)
(0.701011 0.362918 0)
(0.717364 0.36678 0)
(0.736295 0.387942 0)
(0.744718 0.399159 0)
(0.768253 0.409341 0)
(0.778455 0.424213 0)
(0.797956 0.42912 0)
(0.81984 0.444954 0)
(0.832598 0.448074 4.69757e-028)
(0.375941 0.00650636 0)
(0.392913 0.0268504 0)
(0.41429 0.044517 0)
(0.440073 0.0622341 0)
(0.469847 0.0801692 0)
(0.501476 0.0970963 0)
(0.531244 0.119272 0)
(0.548959 0.136278 0)
(0.551757 0.15388 0)
(0.562865 0.181733 0)
(0.572784 0.193956 0)
(0.570156 0.216771 0)
(0.581813 0.237276 0)
(0.596083 0.256395 0)
(0.595091 0.276614 0)
(0.612367 0.290725 0)
(0.624168 0.317888 0)
(0.630557 0.32922 0)
(0.650665 0.346868 0)
(0.657138 0.370532 0)
(0.679426 0.377933 0)
(0.690929 0.404329 0)
(0.706355 0.409579 0)
(0.729368 0.430302 0)
(0.738836 0.442307 0)
(0.765366 0.451855 0)
(0.779395 0.466442 0)
(0.800459 0.471156 0)
(0.825161 0.486757 9.89447e-028)
(0.346624 0.00655303 0)
(0.363189 0.0281311 0)
(0.384269 0.0463809 0)
(0.409917 0.0648363 0)
(0.439438 0.0829291 0)
(0.472066 0.103776 0)
(0.498466 0.119848 0)
(0.512194 0.143359 0)
(0.524938 0.168185 0)
(0.527282 0.181304 0)
(0.528494 0.210748 0)
(0.5444 0.228163 0)
(0.550386 0.250859 0)
(0.553018 0.271034 0)
(0.573071 0.290074 0)
(0.576389 0.31727 0)
(0.589105 0.327132 0)
(0.605758 0.356844 0)
(0.61331 0.372253 0)
(0.637793 0.387696 0)
(0.643231 0.411784 0)
(0.668075 0.421145 0)
(0.682287 0.448433 0)
(0.698129 0.45525 0)
(0.727915 0.474254 0)
(0.738784 0.486835 0)
(0.766239 0.496717 0)
(0.782271 0.511983 0)
(0.804821 0.515389 1.91061e-025)
(0.318017 0.00652433 0)
(0.3342 0.0293248 0)
(0.354994 0.0480055 0)
(0.380565 0.0669301 0)
(0.410526 0.0866456 0)
(0.442108 0.103482 0)
(0.466384 0.129591 0)
(0.480672 0.149846 0)
(0.483589 0.167937 0)
(0.494021 0.200382 0)
(0.504578 0.214752 0)
(0.50467 0.241306 0)
(0.51367 0.262284 0)
(0.529034 0.285411 0)
(0.528933 0.312515 0)
(0.550115 0.325019 0)
(0.5562 0.358798 0)
(0.57061 0.368966 0)
(0.591074 0.39596 0)
(0.597084 0.41729 0)
(0.624816 0.431497 0)
(0.632354 0.45834 0)
(0.660131 0.467515 0)
(0.677422 0.493024 0)
(0.693965 0.501818 0)
(0.727451 0.522049 0)
(0.741023 0.535176 0)
(0.772694 0.541968 0)
(0.790633 0.558638 -1.99176e-025)
(0.29029 0.00640458 0)
(0.30613 0.0304103 0)
(0.326694 0.0493511 0)
(0.352391 0.0689328 0)
(0.382292 0.0873961 0)
(0.412348 0.11187 0)
(0.434 0.129403 0)
(0.44423 0.153975 0)
(0.456121 0.182986 0)
(0.459649 0.197881 0)
(0.462463 0.230973 0)
(0.474367 0.250466 0)
(0.483597 0.278004 0)
(0.486142 0.299963 0)
(0.506325 0.321272 0)
(0.508747 0.352169 0)
(0.528125 0.365648 0)
(0.540306 0.401505 0)
(0.552341 0.413415 0)
(0.576845 0.43947 0)
(0.583981 0.463516 0)
(0.61486 0.479562 0)
(0.623785 0.505596 0)
(0.656347 0.5165 0)
(0.677109 0.543486 0)
(0.695624 0.549883 0)
(0.730775 0.570377 0)
(0.746859 0.582957 0)
(0.784868 0.592629 2.12021e-025)
(0.263591 0.00619409 0)
(0.279121 0.0314058 0)
(0.299487 0.0504608 0)
(0.325162 0.0700181 0)
(0.354942 0.0919377 0)
(0.38332 0.108854 0)
(0.402405 0.13778 0)
(0.41358 0.160935 0)
(0.416982 0.181257 0)
(0.425172 0.217725 0)
(0.434414 0.232703 0)
(0.439192 0.265683 0)
(0.445416 0.283588 0)
(0.462511 0.315884 0)
(0.462222 0.339298 0)
(0.485065 0.363024 0)
(0.488309 0.394122 0)
(0.508289 0.407702 0)
(0.525396 0.446851 0)
(0.536869 0.461922 0)
(0.565403 0.486929 0)
(0.573796 0.510747 0)
(0.607875 0.529581 0)
(0.620035 0.555592 0)
(0.654381 0.56715 0)
(0.680297 0.59557 0)
(0.700839 0.603323 0)
(0.740524 0.621695 0)
(0.76033 0.634857 0)
(0.23804 0.00587283 0)
(0.253269 0.0323122 0)
(0.273416 0.0511931 0)
(0.299414 0.0717056 0)
(0.328942 0.0900468 0)
(0.354814 0.118509 0)
(0.369889 0.136787 0)
(0.378728 0.165611 0)
(0.387372 0.195261 0)
(0.3921 0.212425 0)
(0.397666 0.250534 0)
(0.407384 0.267894 0)
(0.416902 0.304429 0)
(0.418134 0.324533 0)
(0.44058 0.352485 0)
(0.439539 0.381446 0)
(0.464647 0.405519 0)
(0.471619 0.439538 0)
(0.490619 0.454344 0)
(0.511173 0.492868 0)
(0.523083 0.511377 0)
(0.557167 0.537485 0)
(0.567641 0.563652 0)
(0.605824 0.582452 0)
(0.61906 0.609561 0)
(0.658617 0.62125 0)
(0.686312 0.650005 0)
(0.712639 0.655976 0)
(0.756726 0.676336 2.27071e-025)
(0.213744 0.00542873 0)
(0.228668 0.0331311 0)
(0.248752 0.0517684 0)
(0.274957 0.0713731 0)
(0.303277 0.0962165 0)
(0.325319 0.113202 0)
(0.339945 0.146507 0)
(0.347216 0.169298 0)
(0.35362 0.194325 0)
(0.360381 0.231797 0)
(0.365834 0.24905 0)
(0.373262 0.284517 0)
(0.378936 0.305132 0)
(0.396897 0.341698 0)
(0.396021 0.366485 0)
(0.418547 0.395441 0)
(0.419449 0.424305 0)
(0.447342 0.450372 0)
(0.452914 0.485938 0)
(0.477282 0.504092 0)
(0.499926 0.544842 0)
(0.513322 0.564531 0)
(0.550506 0.591411 0)
(0.563816 0.617747 0)
(0.606552 0.63873 0)
(0.623264 0.667303 0)
(0.667621 0.678226 0)
(0.700081 0.704996 0)
(0.731738 0.713428 -7.17849e-027)
(0.190781 0.00483721 0)
(0.205362 0.0339621 0)
(0.225352 0.0517169 0)
(0.25168 0.0734408 0)
(0.278266 0.0921544 0)
(0.298272 0.124228 0)
(0.307638 0.14397 0)
(0.318319 0.174402 0)
(0.320688 0.207166 0)
(0.326837 0.225118 0)
(0.337857 0.26486 0)
(0.339137 0.287391 0)
(0.351805 0.323776 0)
(0.354208 0.344547 0)
(0.373845 0.380492 0)
(0.373892 0.408333 0)
(0.399553 0.441249 0)
(0.400387 0.470759 0)
(0.430768 0.500179 0)
(0.435851 0.536927 0)
(0.465515 0.554936 0)
(0.49025 0.598733 0)
(0.507724 0.618954 0)
(0.548926 0.650721 0)