/*--------------------------------*- C++ -*----------------------------------*\
| =========                 |                                                 |
| \\      /  F ield         | OpenFOAM: The Open Source CFD Toolbox           |
|  \\    /   O peration     | Version:  5.x                                   |
|   \\  /    A nd           | Web:      www.OpenFOAM.org                      |
|    \\/     M anipulation  |                                                 |
\*---------------------------------------------------------------------------*/
/*   Windows 32 and 64 bit porting by blueCAPE: http://www.bluecape.com.pt   *\
|  Based on Windows porting (2.0.x v4) by Symscape: http://www.symscape.com   |
\*---------------------------------------------------------------------------*/
FoamFile
{
    version     2.0;
    format      ascii;
    class       volScalarField;
    location    "20";
    object      epsilon;
}
// * * * * * * * * * * * * * * * * * * * * * * * * * * * * * * * * * * * * * //

dimensions      [0 2 -3 0 0 0 0];

internalField   nonuniform List<scalar> 
43900
(
0.00152678
0.00151767
0.00151788
0.00151788
0.00151788
0.00151788
0.00151788
0.00151788
0.00151788
0.00151788
0.00151788
0.00151788
0.00151788
0.00151787
0.00151787
0.00151787
0.00151787
0.00151787
0.00151787
0.00151787
0.00151787
0.00151787
0.00151787
0.00151787
0.00151787
0.00151788
0.00151788
0.00151788
0.00151788
0.000437832
4.57376e-005
4.40915e-005
4.40883e-005
4.40882e-005
4.40881e-005
4.40879e-005
4.40878e-005
4.40877e-005
4.40875e-005
4.40874e-005
4.40873e-005
4.40872e-005
4.40872e-005
4.40871e-005
4.4087e-005
4.4087e-005
4.40869e-005
4.40869e-005
4.40868e-005
4.40868e-005
4.40866e-005
4.40865e-005
4.40864e-005
4.40864e-005
4.40864e-005
4.40864e-005
4.40863e-005
4.40862e-005
0.00379557
4.67059e-005
2.32061e-005
2.31791e-005
2.31792e-005
2.31794e-005
2.31794e-005
2.31796e-005
2.31797e-005
2.31797e-005
2.31797e-005
2.31798e-005
2.31797e-005
2.31798e-005
2.31797e-005
2.31796e-005
2.31796e-005
2.31795e-005
2.31794e-005
2.31793e-005
2.31792e-005
2.31789e-005
2.31787e-005
2.31785e-005
2.31783e-005
2.31781e-005
2.31779e-005
2.31776e-005
2.31773e-005
0.00553491
6.97219e-005
2.79364e-005
2.78797e-005
2.78797e-005
2.78798e-005
2.78798e-005
2.78799e-005
2.78799e-005
2.78799e-005
2.78799e-005
2.78799e-005
2.78799e-005
2.78799e-005
2.78798e-005
2.78797e-005
2.78797e-005
2.78796e-005
2.78795e-005
2.78794e-005
2.78793e-005
2.78792e-005
2.78791e-005
2.78789e-005
2.78788e-005
2.78786e-005
2.78785e-005
2.78782e-005
2.78781e-005
0.0060231
7.85052e-005
3.02872e-005
3.02197e-005
3.02196e-005
3.02196e-005
3.02196e-005
3.02196e-005
3.02196e-005
3.02196e-005
3.02195e-005
3.02195e-005
3.02195e-005
3.02195e-005
3.02195e-005
3.02195e-005
3.02195e-005
3.02194e-005
3.02194e-005
3.02194e-005
3.02193e-005
3.02193e-005
3.02193e-005
3.02192e-005
3.02192e-005
3.02191e-005
3.0219e-005
3.0219e-005
3.02189e-005
0.00609482
8.03248e-005
3.07211e-005
3.0649e-005
3.06489e-005
3.06489e-005
3.06489e-005
3.06489e-005
3.06489e-005
3.06489e-005
3.06489e-005
3.06489e-005
3.06489e-005
3.06489e-005
3.06489e-005
3.06488e-005
3.06489e-005
3.06488e-005
3.06489e-005
3.06488e-005
3.06488e-005
3.06488e-005
3.06488e-005
3.06487e-005
3.06488e-005
3.06488e-005
3.06488e-005
3.06487e-005
3.06487e-005
0.0060446
8.01657e-005
3.07877e-005
3.07136e-005
3.07133e-005
3.07134e-005
3.07134e-005
3.07134e-005
3.07134e-005
3.07134e-005
3.07133e-005
3.07134e-005
3.07133e-005
3.07134e-005
3.07133e-005
3.07135e-005
3.07133e-005
3.07133e-005
3.07133e-005
3.07134e-005
3.07133e-005
3.07134e-005
3.07133e-005
3.07134e-005
3.07133e-005
3.07133e-005
3.07133e-005
3.07133e-005
3.07133e-005
0.00591877
7.95355e-005
3.08006e-005
3.07218e-005
3.07215e-005
3.07218e-005
3.07216e-005
3.07218e-005
3.07216e-005
3.07218e-005
3.07215e-005
3.07216e-005
3.07215e-005
3.07218e-005
3.07216e-005
3.07217e-005
3.07216e-005
3.07216e-005
3.07215e-005
3.07216e-005
3.07216e-005
3.07216e-005
3.07216e-005
3.07216e-005
3.07216e-005
3.07216e-005
3.07216e-005
3.07216e-005
3.07216e-005
0.00580988
7.91598e-005
3.08074e-005
3.07227e-005
3.07224e-005
3.07229e-005
3.07226e-005
3.07229e-005
3.07225e-005
3.07229e-005
3.07225e-005
3.07225e-005
3.07224e-005
3.07229e-005
3.07225e-005
3.07226e-005
3.07226e-005
3.07224e-005
3.07224e-005
3.07225e-005
3.07225e-005
3.07224e-005
3.07225e-005
3.07225e-005
3.07225e-005
3.07225e-005
3.07224e-005
3.07225e-005
3.07223e-005
0.00569626
7.88572e-005
3.08144e-005
3.07232e-005
3.0723e-005
3.07232e-005
3.0723e-005
3.07232e-005
3.0723e-005
3.07232e-005
3.0723e-005
3.0723e-005
3.0723e-005
3.07232e-005
3.0723e-005
3.07229e-005
3.07227e-005
3.0723e-005
3.07229e-005
3.0723e-005
3.07229e-005
3.0723e-005
3.0723e-005
3.0723e-005
3.07229e-005
3.07226e-005
3.07226e-005
3.07226e-005
3.07224e-005
0.00557086
7.85647e-005
3.08227e-005
3.07237e-005
3.07234e-005
3.07235e-005
3.07234e-005
3.07235e-005
3.07234e-005
3.07235e-005
3.07234e-005
3.07234e-005
3.07234e-005
3.07235e-005
3.07234e-005
3.07232e-005
3.07229e-005
3.07234e-005
3.07234e-005
3.07234e-005
3.07231e-005
3.07234e-005
3.07234e-005
3.07234e-005
3.07232e-005
3.07228e-005
3.0723e-005
3.07231e-005
3.07227e-005
0.00543451
7.8309e-005
3.08327e-005
3.07241e-005
3.07238e-005
3.07238e-005
3.07238e-005
3.07238e-005
3.07238e-005
3.07238e-005
3.07238e-005
3.07238e-005
3.07238e-005
3.07238e-005
3.07237e-005
3.07237e-005
3.07234e-005
3.07238e-005
3.07238e-005
3.07237e-005
3.07233e-005
3.07238e-005
3.07238e-005
3.07237e-005
3.07235e-005
3.07234e-005
3.07236e-005
3.07235e-005
3.07233e-005
0.00528681
7.81013e-005
3.08448e-005
3.07246e-005
3.07242e-005
3.07242e-005
3.07242e-005
3.07242e-005
3.07242e-005
3.07242e-005
3.07242e-005
3.07242e-005
3.07242e-005
3.07242e-005
3.07241e-005
3.07241e-005
3.0724e-005
3.07242e-005
3.07241e-005
3.07241e-005
3.0724e-005
3.07242e-005
3.07242e-005
3.07241e-005
3.07239e-005
3.07241e-005
3.07241e-005
3.07239e-005
3.07239e-005
0.00512719
7.7947e-005
3.08593e-005
3.07252e-005
3.07247e-005
3.07247e-005
3.07247e-005
3.07247e-005
3.07247e-005
3.07247e-005
3.07246e-005
3.07246e-005
3.07246e-005
3.07246e-005
3.07246e-005
3.07246e-005
3.07246e-005
3.07246e-005
3.07247e-005
3.07247e-005
3.07246e-005
3.07246e-005
3.07246e-005
3.07246e-005
3.07246e-005
3.07246e-005
3.07246e-005
3.07243e-005
3.07245e-005
0.00495526
7.78509e-005
3.08767e-005
3.0726e-005
3.07254e-005
3.07254e-005
3.07254e-005
3.07254e-005
3.07253e-005
3.07253e-005
3.07253e-005
3.07253e-005
3.07253e-005
3.07253e-005
3.07253e-005
3.07253e-005
3.07253e-005
3.07253e-005
3.07253e-005
3.07253e-005
3.07253e-005
3.07252e-005
3.07252e-005
3.07252e-005
3.07252e-005
3.07252e-005
3.07252e-005
3.0725e-005
3.07251e-005
0.00477085
7.78174e-005
3.08977e-005
3.07271e-005
3.07262e-005
3.07262e-005
3.07262e-005
3.07262e-005
3.07262e-005
3.07262e-005
3.07262e-005
3.07262e-005
3.07262e-005
3.07262e-005
3.07262e-005
3.07262e-005
3.07261e-005
3.07261e-005
3.07261e-005
3.07261e-005
3.07261e-005
3.0726e-005
3.07261e-005
3.07261e-005
3.0726e-005
3.07259e-005
3.07259e-005
3.07258e-005
3.07259e-005
0.00457405
7.78477e-005
3.09228e-005
3.07285e-005
3.07274e-005
3.07274e-005
3.07274e-005
3.07273e-005
3.07273e-005
3.07273e-005
3.07273e-005
3.07273e-005
3.07273e-005
3.07273e-005
3.07272e-005
3.07272e-005
3.07272e-005
3.07271e-005
3.07272e-005
3.07272e-005
3.07272e-005
3.07271e-005
3.07271e-005
3.07271e-005
3.07271e-005
3.0727e-005
3.07269e-005
3.07267e-005
3.07269e-005
0.00436521
7.79431e-005
3.09529e-005
3.07303e-005
3.0729e-005
3.07288e-005
3.07288e-005
3.07288e-005
3.07288e-005
3.07288e-005
3.07287e-005
3.07287e-005
3.07287e-005
3.07287e-005
3.07286e-005
3.07286e-005
3.07286e-005
3.07285e-005
3.07287e-005
3.07287e-005
3.07286e-005
3.07285e-005
3.07285e-005
3.07285e-005
3.07285e-005
3.07285e-005
3.07284e-005
3.07281e-005
3.07282e-005
0.00414496
7.80971e-005
3.0989e-005
3.07327e-005
3.07309e-005
3.07308e-005
3.07308e-005
3.07308e-005
3.07308e-005
3.07308e-005
3.07307e-005
3.07307e-005
3.07307e-005
3.07306e-005
3.07306e-005
3.07306e-005
3.07306e-005
3.07305e-005
3.07305e-005
3.07304e-005
3.07304e-005
3.07303e-005
3.07303e-005
3.07303e-005
3.07302e-005
3.073e-005
3.073e-005
3.07299e-005
3.07299e-005
0.00391426
7.82982e-005
3.10319e-005
3.07359e-005
3.07334e-005
3.07334e-005
3.07334e-005
3.07334e-005
3.07334e-005
3.07334e-005
3.07333e-005
3.07333e-005
3.07332e-005
3.07332e-005
3.07331e-005
3.07331e-005
3.0733e-005
3.07329e-005
3.07327e-005
3.07327e-005
3.07327e-005
3.07328e-005
3.07327e-005
3.07327e-005
3.07325e-005
3.0732e-005
3.07321e-005
3.07321e-005
3.0732e-005
0.00367443
7.85294e-005
3.10828e-005
3.07402e-005
3.07369e-005
3.07368e-005
3.07368e-005
3.07368e-005
3.07367e-005
3.07367e-005
3.07366e-005
3.07365e-005
3.07364e-005
3.07364e-005
3.07363e-005
3.07363e-005
3.07361e-005
3.0736e-005
3.07359e-005
3.07359e-005
3.07359e-005
3.07359e-005
3.07358e-005
3.07357e-005
3.07354e-005
3.07347e-005
3.07347e-005
3.07347e-005
3.07347e-005
0.00342713
7.87655e-005
3.11428e-005
3.07457e-005
3.07414e-005
3.07413e-005
3.07413e-005
3.07411e-005
3.0741e-005
3.07409e-005
3.07408e-005
3.07408e-005
3.07408e-005
3.07408e-005
3.07407e-005
3.07405e-005
3.07401e-005
3.07402e-005
3.07401e-005
3.07401e-005
3.074e-005
3.07393e-005
3.07393e-005
3.07392e-005
3.07391e-005
3.07389e-005
3.07389e-005
3.07389e-005
3.07389e-005
0.00317438
7.89734e-005
3.1213e-005
3.07529e-005
3.07472e-005
3.07471e-005
3.07469e-005
3.07468e-005
3.07466e-005
3.07466e-005
3.07465e-005
3.07465e-005
3.07465e-005
3.07464e-005
3.07463e-005
3.0746e-005
3.07453e-005
3.07454e-005
3.07454e-005
3.07454e-005
3.07452e-005
3.07448e-005
3.07448e-005
3.07448e-005
3.07448e-005
3.07447e-005
3.07447e-005
3.07445e-005
3.07441e-005
0.00291854
7.91129e-005
3.12944e-005
3.07623e-005
3.07546e-005
3.07544e-005
3.07543e-005
3.07542e-005
3.07541e-005
3.0754e-005
3.07539e-005
3.07537e-005
3.07536e-005
3.07535e-005
3.07534e-005
3.0753e-005
3.07521e-005
3.07523e-005
3.07523e-005
3.07523e-005
3.07522e-005
3.07522e-005
3.07521e-005
3.07518e-005
3.07516e-005
3.07514e-005
3.07512e-005
3.07509e-005
3.07503e-005
0.00266219
7.91334e-005
3.13877e-005
3.07744e-005
3.07642e-005
3.07639e-005
3.07637e-005
3.07636e-005
3.07636e-005
3.07635e-005
3.07633e-005
3.0763e-005
3.07628e-005
3.07626e-005
3.07621e-005
3.07618e-005
3.07613e-005
3.07613e-005
3.07613e-005
3.07613e-005
3.07612e-005
3.07611e-005
3.07608e-005
3.07604e-005
3.076e-005
3.07597e-005
3.07593e-005
3.07588e-005
3.07579e-005
0.00240816
7.89836e-005
3.1493e-005
3.07898e-005
3.07763e-005
3.07759e-005
3.07756e-005
3.07755e-005
3.07753e-005
3.07752e-005
3.0775e-005
3.07748e-005
3.07747e-005
3.07745e-005
3.07739e-005
3.07737e-005
3.07735e-005
3.07733e-005
3.07731e-005
3.07728e-005
3.07725e-005
3.07721e-005
3.07717e-005
3.07712e-005
3.07706e-005
3.07701e-005
3.07693e-005
3.07686e-005
3.07674e-005
0.00215935
7.86256e-005
3.161e-005
3.08093e-005
3.07915e-005
3.0791e-005
3.07906e-005
3.07903e-005
3.07902e-005
3.07901e-005
3.079e-005
3.07897e-005
3.07893e-005
3.07891e-005
3.07887e-005
3.07885e-005
3.07882e-005
3.07879e-005
3.07876e-005
3.07871e-005
3.07865e-005
3.0786e-005
3.07853e-005
3.07847e-005
3.07839e-005
3.0783e-005
3.0782e-005
3.07811e-005
3.07795e-005
0.00191866
7.79979e-005
3.17378e-005
3.08336e-005
3.08107e-005
3.081e-005
3.08097e-005
3.08094e-005
3.08093e-005
3.08091e-005
3.08088e-005
3.08083e-005
3.08074e-005
3.08071e-005
3.08068e-005
3.08066e-005
3.08063e-005
3.08059e-005
3.08053e-005
3.08046e-005
3.0804e-005
3.08032e-005
3.08023e-005
3.08013e-005
3.08001e-005
3.0799e-005
3.07978e-005
3.07967e-005
3.07947e-005
0.00168883
7.7058e-005
3.18743e-005
3.08635e-005
3.08343e-005
3.08334e-005
3.08331e-005
3.08326e-005
3.08324e-005
3.08321e-005
3.08318e-005
3.08314e-005
3.08308e-005
3.08305e-005
3.08302e-005
3.08298e-005
3.08293e-005
3.08286e-005
3.08277e-005
3.08268e-005
3.08258e-005
3.08247e-005
3.08236e-005
3.08223e-005
3.08206e-005
3.08192e-005
3.08178e-005
3.08163e-005
3.08137e-005
0.00147234
7.57768e-005
3.20169e-005
3.08999e-005
3.08632e-005
3.08617e-005
3.08615e-005
3.0861e-005
3.0861e-005
3.08609e-005
3.08608e-005
3.08606e-005
3.08602e-005
3.08596e-005
3.0859e-005
3.08583e-005
3.08576e-005
3.08567e-005
3.08556e-005
3.08544e-005
3.0853e-005
3.08518e-005
3.08502e-005
3.08486e-005
3.08464e-005
3.08445e-005
3.08426e-005
3.08407e-005
3.08374e-005
0.00127126
7.4143e-005
3.21618e-005
3.09432e-005
3.08979e-005
3.08962e-005
3.08959e-005
3.08958e-005
3.08956e-005
3.08952e-005
3.08947e-005
3.08944e-005
3.08942e-005
3.08937e-005
3.08932e-005
3.08925e-005
3.08915e-005
3.08905e-005
3.08893e-005
3.08881e-005
3.08868e-005
3.0885e-005
3.08832e-005
3.0881e-005
3.08785e-005
3.0876e-005
3.08733e-005
3.0871e-005
3.08668e-005
0.00108718
7.21634e-005
3.23046e-005
3.09942e-005
3.09393e-005
3.09367e-005
3.09365e-005
3.09362e-005
3.09358e-005
3.09353e-005
3.09339e-005
3.09338e-005
3.09336e-005
3.09335e-005
3.09332e-005
3.09328e-005
3.09318e-005
3.09312e-005
3.09304e-005
3.09293e-005
3.09278e-005
3.0926e-005
3.09234e-005
3.09209e-005
3.09183e-005
3.09149e-005
3.09122e-005
3.09087e-005
3.09034e-005
0.000921131
6.98641e-005
3.24408e-005
3.1053e-005
3.09874e-005
3.0984e-005
3.09833e-005
3.0983e-005
3.09825e-005
3.09822e-005
3.0981e-005
3.09811e-005
3.0981e-005
3.09811e-005
3.09811e-005
3.0981e-005
3.09808e-005
3.09802e-005
3.09795e-005
3.09782e-005
3.09772e-005
3.09752e-005
3.0973e-005
3.09702e-005
3.09663e-005
3.09639e-005
3.09583e-005
3.09552e-005
3.09502e-005
0.000773548
6.7291e-005
3.25655e-005
3.11195e-005
3.10429e-005
3.10389e-005
3.10374e-005
3.10378e-005
3.10378e-005
3.10378e-005
3.10375e-005
3.10375e-005
3.10374e-005
3.10376e-005
3.10376e-005
3.10376e-005
3.10375e-005
3.10374e-005
3.10368e-005
3.10362e-005
3.10346e-005
3.10338e-005
3.10319e-005
3.10293e-005
3.1027e-005
3.10205e-005
3.10183e-005
3.10131e-005
3.10018e-005
0.000644306
6.45063e-005
3.26747e-005
3.11932e-005
3.11062e-005
3.11003e-005
3.1101e-005
3.11027e-005
3.11042e-005
3.1105e-005
3.1105e-005
3.1105e-005
3.11048e-005
3.11055e-005
3.11054e-005
3.11056e-005
3.11056e-005
3.11058e-005
3.11057e-005
3.11056e-005
3.11053e-005
3.11043e-005
3.11038e-005
3.11024e-005
3.10974e-005
3.10952e-005
3.10855e-005
3.10799e-005
3.10763e-005
0.000532762
6.15825e-005
3.2765e-005
3.12732e-005
3.11774e-005
3.11692e-005
3.11715e-005
3.11748e-005
3.11777e-005
3.11803e-005
3.11826e-005
3.11847e-005
3.11864e-005
3.11878e-005
3.11878e-005
3.11876e-005
3.1188e-005
3.11881e-005
3.11887e-005
3.11888e-005
3.11884e-005
3.11885e-005
3.11874e-005
3.11848e-005
3.1184e-005
3.11708e-005
3.11734e-005
3.11696e-005
3.11482e-005
0.000437842
5.85968e-005
3.28337e-005
3.13585e-005
3.12543e-005
3.12456e-005
3.1249e-005
3.1254e-005
3.12585e-005
3.12629e-005
3.12673e-005
3.12719e-005
3.12763e-005
3.12807e-005
3.12839e-005
3.12863e-005
3.12862e-005
3.12878e-005
3.12878e-005
3.12868e-005
3.12894e-005
3.12854e-005
3.12888e-005
3.12888e-005
3.12771e-005
3.12879e-005
3.12722e-005
3.12608e-005
3.12679e-005
0.000358152
5.56259e-005
3.28798e-005
3.14477e-005
3.13361e-005
3.13288e-005
3.13333e-005
3.13399e-005
3.13462e-005
3.13529e-005
3.13598e-005
3.13672e-005
3.13748e-005
3.13823e-005
3.13903e-005
3.13964e-005
3.14041e-005
3.14065e-005
3.14105e-005
3.14111e-005
3.14055e-005
3.14138e-005
3.14098e-005
3.14054e-005
3.14214e-005
3.13895e-005
3.14061e-005
3.14066e-005
3.13627e-005
0.000292088
5.27402e-005
3.29035e-005
3.15388e-005
3.14225e-005
3.14168e-005
3.14227e-005
3.14315e-005
3.14402e-005
3.14496e-005
3.14597e-005
3.14706e-005
3.14819e-005
3.14941e-005
3.15051e-005
3.152e-005
3.15266e-005
3.15437e-005
3.15502e-005
3.15505e-005
3.15635e-005
3.15505e-005
3.15611e-005
3.157e-005
3.15398e-005
3.15746e-005
3.15432e-005
3.15233e-005
3.15514e-005
0.000237956
4.99989e-005
3.29059e-005
3.16297e-005
3.15123e-005
3.1508e-005
3.15158e-005
3.15273e-005
3.1539e-005
3.15518e-005
3.15659e-005
3.1581e-005
3.15975e-005
3.16137e-005
3.16344e-005
3.16468e-005
3.16749e-005
3.16819e-005
3.17042e-005
3.17261e-005
3.17156e-005
3.17423e-005
3.17392e-005
3.17288e-005
3.1764e-005
3.17177e-005
3.17486e-005
3.17443e-005
3.16889e-005
0.000194062
4.74468e-005
3.28916e-005
3.17186e-005
3.16037e-005
3.1601e-005
3.16109e-005
3.16256e-005
3.16409e-005
3.16578e-005
3.16765e-005
3.16972e-005
3.17189e-005
3.17443e-005
3.17649e-005
3.18013e-005
3.18134e-005
3.18567e-005
3.18734e-005
3.18877e-005
3.1942e-005
3.19229e-005
3.19583e-005
3.19674e-005
3.1935e-005
3.19943e-005
3.19346e-005
3.1959e-005
3.19605e-005
0.000158794
4.51141e-005
3.28633e-005
3.1804e-005
3.16948e-005
3.1694e-005
3.17063e-005
3.17247e-005
3.1744e-005
3.17657e-005
3.17898e-005
3.18165e-005
3.18462e-005
3.18759e-005
3.19163e-005
3.19392e-005
3.19987e-005
3.2016e-005
3.20635e-005
3.21193e-005
3.2116e-005
3.21951e-005
3.21691e-005
3.22105e-005
3.22796e-005
3.22036e-005
3.22853e-005
3.22103e-005
3.21891e-005
0.000130677
4.30174e-005
3.28227e-005
3.18842e-005
3.1784e-005
3.1785e-005
3.18003e-005
3.18225e-005
3.18464e-005
3.18733e-005
3.19036e-005
3.19371e-005
3.19744e-005
3.20166e-005
3.20561e-005
3.21173e-005
3.21482e-005
3.2227e-005
3.22673e-005
3.23058e-005
3.24216e-005
3.23953e-005
3.25261e-005
3.25026e-005
3.24966e-005
3.26096e-005
3.25384e-005
3.26234e-005
3.25927e-005
0.000108407
4.11614e-005
3.27746e-005
3.19579e-005
3.18694e-005
3.18725e-005
3.18911e-005
3.19174e-005
3.19461e-005
3.19787e-005
3.20151e-005
3.20572e-005
3.21015e-005
3.2156e-005
3.22091e-005
3.22711e-005
3.23479e-005
3.23978e-005
3.25071e-005
3.25744e-005
3.2607e-005
3.27979e-005
3.27548e-005
3.28836e-005
3.29611e-005
3.29134e-005
3.30256e-005
3.29569e-005
3.29991e-005
9.08578e-005
3.95409e-005
3.27222e-005
3.20246e-005
3.19496e-005
3.1955e-005
3.19772e-005
3.20076e-005
3.20412e-005
3.20793e-005
3.21236e-005
3.21706e-005
3.22324e-005
3.22815e-005
3.2373e-005
3.24229e-005
3.25261e-005
3.26394e-005
3.26785e-005
3.28341e-005
3.30008e-005
3.30074e-005
3.32362e-005
3.32322e-005
3.32938e-005
3.35084e-005
3.34345e-005
3.35539e-005
3.35247e-005
7.70853e-005
3.81442e-005
3.26683e-005
3.20839e-005
3.20236e-005
3.20314e-005
3.20573e-005
3.20918e-005
3.213e-005
3.21745e-005
3.22234e-005
3.22859e-005
3.23383e-005
3.24381e-005
3.24862e-005
3.26143e-005
3.27075e-005
3.27738e-005
3.30136e-005
3.3086e-005
3.31803e-005
3.34583e-005
3.35288e-005
3.38286e-005
3.38389e-005
3.38856e-005
3.41682e-005
3.40896e-005
3.41626e-005
6.63116e-005
3.69547e-005
3.26153e-005
3.21359e-005
3.20905e-005
3.21007e-005
3.21304e-005
3.21686e-005
3.22118e-005
3.22608e-005
3.23206e-005
3.23782e-005
3.24734e-005
3.25252e-005
3.2667e-005
3.27363e-005
3.28497e-005
3.30859e-005
3.31528e-005
3.33622e-005
3.35766e-005
3.37282e-005
3.40391e-005
3.41441e-005
3.4594e-005
3.46957e-005
3.46948e-005
3.49726e-005
3.49746e-005
5.79073e-005
3.59535e-005
3.25651e-005
3.21809e-005
3.21497e-005
3.21623e-005
3.21958e-005
3.22376e-005
3.22848e-005
3.23409e-005
3.24008e-005
3.24858e-005
3.25443e-005
3.26852e-005
3.27494e-005
3.29106e-005
3.30726e-005
3.31599e-005
3.34519e-005
3.35837e-005
3.38587e-005
3.41608e-005
3.43886e-005
3.49019e-005
3.5044e-005
3.5395e-005
3.58804e-005
3.57906e-005
3.59675e-005
5.13697e-005
3.51205e-005
3.2519e-005
3.22192e-005
3.2201e-005
3.22161e-005
3.22533e-005
3.2298e-005
3.23497e-005
3.24085e-005
3.24827e-005
3.25498e-005
3.26733e-005
3.27409e-005
3.2913e-005
3.30211e-005
3.31427e-005
3.34677e-005
3.35709e-005
3.38857e-005
3.42423e-005
3.44434e-005
3.48883e-005
3.52201e-005
3.60082e-005
3.62472e-005
3.6527e-005
3.73117e-005
3.73109e-005
4.63018e-005
3.44357e-005
3.24778e-005
3.22516e-005
3.22443e-005
3.22622e-005
3.23029e-005
3.23502e-005
3.24049e-005
3.24705e-005
3.25413e-005
3.26413e-005
3.27155e-005
3.28738e-005
3.29699e-005
3.31302e-005
3.34032e-005
3.3495e-005
3.38776e-005
3.40931e-005
3.4361e-005
3.49309e-005
3.53264e-005
3.60946e-005
3.64314e-005
3.75004e-005
3.78477e-005
3.83315e-005
3.9019e-005
4.23919e-005
3.38801e-005
3.24423e-005
3.22791e-005
3.22794e-005
3.23014e-005
3.23445e-005
3.23939e-005
3.24522e-005
3.25196e-005
3.26026e-005
3.26865e-005
3.28131e-005
3.29144e-005
3.30665e-005
3.32864e-005
3.33951e-005
3.37631e-005
3.39258e-005
3.43401e-005
3.46998e-005
3.51094e-005
3.59572e-005
3.64105e-005
3.75785e-005
3.81656e-005
3.96293e-005
4.03365e-005
4.07962e-005
3.93967e-005
3.34362e-005
3.24124e-005
3.23016e-005
3.23071e-005
3.2334e-005
3.23785e-005
3.24299e-005
3.24907e-005
3.25617e-005
3.26478e-005
3.27382e-005
3.28747e-005
3.29607e-005
3.3203e-005
3.3289e-005
3.36142e-005
3.37564e-005
3.4164e-005
3.44368e-005
3.50152e-005
3.53812e-005
3.62373e-005
3.6894e-005
3.78548e-005
3.98897e-005
4.10406e-005
4.19604e-005
4.45717e-005
3.71264e-005
3.3088e-005
3.23876e-005
3.23194e-005
3.23291e-005
3.236e-005
3.24056e-005
3.24588e-005
3.25215e-005
3.25966e-005
3.26805e-005
3.27925e-005
3.28891e-005
3.30725e-005
3.31796e-005
3.34374e-005
3.3637e-005
3.38458e-005
3.42826e-005
3.46349e-005
3.50373e-005
3.58881e-005
3.6393e-005
3.77187e-005
3.87005e-005
4.01594e-005
4.33084e-005
4.49849e-005
4.67812e-005
3.54321e-005
3.28205e-005
3.23674e-005
3.2333e-005
3.23458e-005
3.238e-005
3.24264e-005
3.24807e-005
3.25458e-005
3.2619e-005
3.27201e-005
3.27966e-005
3.29754e-005
3.3052e-005
3.33141e-005
3.34179e-005
3.37322e-005
3.39118e-005
3.44289e-005
3.46717e-005
3.53253e-005
3.57665e-005
3.71037e-005
3.78307e-005
3.99499e-005
4.1281e-005
4.39302e-005
4.92596e-005
5.28848e-005
3.41985e-005
3.26219e-005
3.23527e-005
3.23432e-005
3.23589e-005
3.23965e-005
3.24431e-005
3.24987e-005
3.25636e-005
3.26446e-005
3.27292e-005
3.28486e-005
3.29539e-005
3.3129e-005
3.33024e-005
3.34346e-005
3.3905e-005
3.40015e-005
3.45285e-005
3.48089e-005
3.54828e-005
3.59677e-005
3.70625e-005
3.80894e-005
4.01231e-005
4.17062e-005
4.57548e-005
5.01908e-005
6.02508e-005
3.33287e-005
3.24775e-005
3.23419e-005
3.23454e-005
3.23659e-005
3.2404e-005
3.24495e-005
3.25047e-005
3.2569e-005
3.26485e-005
3.27375e-005
3.28441e-005
3.29802e-005
3.31015e-005
3.33177e-005
3.34752e-005
3.38194e-005
3.40101e-005
3.46513e-005
3.48355e-005
3.58428e-005
3.63546e-005
3.79443e-005
3.93901e-005
4.44251e-005
4.98356e-005
7.59204e-005
9.35548e-005
0.000139312
3.27684e-005
3.23863e-005
3.23434e-005
3.23548e-005
3.23843e-005
3.24265e-005
3.24788e-005
3.25453e-005
3.26269e-005
3.27352e-005
3.28743e-005
3.30372e-005
3.33725e-005
3.364e-005
3.4473e-005
3.53147e-005
3.7883e-005
4.06838e-005
5.32701e-005
6.62407e-005
0.000121683
0.00018395
0.000436887
0.000717173
0.001791
0.0028451
0.00698589
0.00951567
0.0156321
3.24021e-005
3.23844e-005
3.24836e-005
3.27203e-005
3.3131e-005
3.38235e-005
3.50115e-005
3.70701e-005
4.06614e-005
4.69232e-005
5.81808e-005
7.60321e-005
0.000117026
0.000159963
0.000302896
0.000435113
0.00084042
0.00121288
0.00252495
0.00361577
0.00720158
0.0103298
0.0200456
0.0286552
0.0539192
0.0767365
0.144632
0.19845
0.335096
3.27082e-005
3.65553e-005
4.58511e-005
6.32959e-005
9.30592e-005
0.000142763
0.000224241
0.000355497
0.000564007
0.000888691
0.00140026
0.00211637
0.00349094
0.00478121
0.00829415
0.0110607
0.0182689
0.0241621
0.0400835
0.0523893
0.0845385
0.110756
0.177155
0.233911
0.376036
0.509026
0.857829
1.1911
2.10342
0.00151788
0.00151788
0.00151788
0.00151788
0.00151788
0.00151788
0.00151788
0.00151788
0.00151788
0.00151788
0.00151788
0.00151788
0.00151788
0.00151788
0.00151788
0.00151788
0.00151788
0.00151788
0.00151788
0.00151788
0.00151788
0.00151789
0.00151789
0.00151789
0.00151789
0.00151789
0.00151789
0.00151789
0.00151789
0.00151789
0.00151789
0.00151789
0.00151789
0.00151789
0.00151789
0.00151789
0.00151789
0.0015179
0.0015179
0.0015179
0.0015179
0.0015179
0.0015179
0.0015179
0.0015179
0.0015179
0.0015179
0.0015179
0.0015179
0.0015179
0.0015179
0.0015179
0.00151791
0.00151791
0.00151791
0.00151791
0.00151791
0.00151791
0.00151791
0.00151791
0.00151791
0.00151791
0.00151791
0.00151791
0.00151791
0.00151791
0.00151791
0.00151791
0.00151791
0.00151791
0.00151792
0.00151792
0.00151792
0.00151792
0.00151792
0.00151792
0.00151792
0.00151792
0.00151792
0.00151792
0.00151792
0.00151792
0.00151792
0.00151792
0.00151792
0.00151792
0.00151792
0.00151792
0.00151792
0.00151792
0.00151792
0.00151792
0.00151792
0.00151792
0.00151793
0.00151793
0.00151793
0.00151793
0.00151793
0.00151793
0.00151793
0.00151793
0.00151793
0.00151793
0.00151793
0.00151793
0.00151793
0.00151793
0.00151793
0.00151793
0.00151793
0.00151793
0.00151793
0.00151793
0.00151793
0.00151793
0.00151793
0.00151793
0.00151793
0.00151793
0.00151793
0.00151793
0.00151793
0.00151793
0.00151793
0.00151793
0.00151793
0.00151793
0.00151794
0.00151794
0.00151794
0.00151794
0.00151794
0.00151794
0.00151794
0.00151794
0.00151794
0.00151792
0.00151865
4.40862e-005
4.40862e-005
4.40861e-005
4.4086e-005
4.40861e-005
4.4086e-005
4.4086e-005
4.4086e-005
4.40859e-005
4.40859e-005
4.40859e-005
4.40858e-005
4.40858e-005
4.40858e-005
4.40857e-005
4.40857e-005
4.40856e-005
4.40855e-005
4.40856e-005
4.40855e-005
4.40855e-005
4.40854e-005
4.40854e-005
4.40853e-005
4.40853e-005
4.40852e-005
4.40852e-005
4.40851e-005
4.40851e-005
4.40851e-005
4.4085e-005
4.40849e-005
4.40849e-005
4.40849e-005
4.40848e-005
4.40848e-005
4.40847e-005
4.40847e-005
4.40847e-005
4.40846e-005
4.40846e-005
4.40845e-005
4.40845e-005
4.40844e-005
4.40844e-005
4.40843e-005
4.40843e-005
4.40842e-005
4.40842e-005
4.40842e-005
4.40841e-005
4.40841e-005
4.4084e-005
4.4084e-005
4.4084e-005
4.40839e-005
4.40839e-005
4.40839e-005
4.40838e-005
4.40837e-005
4.40837e-005
4.40837e-005
4.40837e-005
4.40836e-005
4.40836e-005
4.40836e-005
4.40835e-005
4.40835e-005
4.40835e-005
4.40834e-005
4.40834e-005
4.40834e-005
4.40834e-005
4.40833e-005
4.40833e-005
4.40833e-005
4.40832e-005
4.40832e-005
4.40832e-005
4.40832e-005
4.40832e-005
4.40831e-005
4.40831e-005
4.4083e-005
4.40831e-005
4.40831e-005
4.40831e-005
4.4083e-005
4.4083e-005
4.4083e-005
4.40829e-005
4.40829e-005
4.40829e-005
4.40829e-005
4.40829e-005
4.40829e-005
4.40829e-005
4.40829e-005
4.40829e-005
4.40829e-005
4.40828e-005
4.40828e-005
4.40828e-005
4.40828e-005
4.40828e-005
4.40828e-005
4.40828e-005
4.40828e-005
4.40828e-005
4.40828e-005
4.40829e-005
4.40829e-005
4.40829e-005
4.40828e-005
4.40829e-005
4.40829e-005
4.4083e-005
4.4083e-005
4.4083e-005
4.4083e-005
4.40831e-005
4.40832e-005
4.40832e-005
4.40833e-005
4.40833e-005
4.40835e-005
4.40836e-005
4.40837e-005
4.40838e-005
4.4084e-005
4.40841e-005
4.40843e-005
4.40845e-005
4.40848e-005
4.40851e-005
4.40854e-005
4.40859e-005
4.42463e-005
0.000166718
2.31771e-005
2.31767e-005
2.31763e-005
2.31759e-005
2.31754e-005
2.3175e-005
2.31745e-005
2.3174e-005
2.31735e-005
2.3173e-005
2.31724e-005
2.31718e-005
2.31712e-005
2.31707e-005
2.31701e-005
2.31694e-005
2.31688e-005
2.31681e-005
2.31675e-005
2.31669e-005
2.31662e-005
2.31655e-005
2.31648e-005
2.31641e-005
2.31634e-005
2.31627e-005
2.3162e-005
2.31612e-005
2.31605e-005
2.31598e-005
2.31591e-005
2.31583e-005
2.31576e-005
2.31569e-005
2.31561e-005
2.31554e-005
2.31546e-005
2.31539e-005
2.31532e-005
2.31524e-005
2.31517e-005
2.31509e-005
2.31502e-005
2.31494e-005
2.31487e-005
2.31479e-005
2.31472e-005
2.31465e-005
2.31458e-005
2.31451e-005
2.31444e-005
2.31437e-005
2.3143e-005
2.31423e-005
2.31416e-005
2.31409e-005
2.31403e-005
2.31396e-005
2.31389e-005
2.31383e-005
2.31377e-005
2.3137e-005
2.31364e-005
2.31358e-005
2.31352e-005
2.31346e-005
2.31339e-005
2.31334e-005
2.31328e-005
2.31322e-005
2.31316e-005
2.31311e-005
2.31305e-005
2.313e-005
2.31295e-005
2.3129e-005
2.31284e-005
2.31279e-005
2.31274e-005
2.31269e-005
2.31265e-005
2.3126e-005
2.31255e-005
2.3125e-005
2.31246e-005
2.31242e-005
2.31238e-005
2.31233e-005
2.31229e-005
2.31225e-005
2.31221e-005
2.31217e-005
2.31214e-005
2.31209e-005
2.31206e-005
2.31203e-005
2.312e-005
2.31196e-005
2.31193e-005
2.31189e-005
2.31186e-005
2.31183e-005
2.3118e-005
2.31177e-005
2.31174e-005
2.31171e-005
2.31168e-005
2.31165e-005
2.31163e-005
2.31161e-005
2.31158e-005
2.31156e-005
2.31153e-005
2.3115e-005
2.31148e-005
2.31146e-005
2.31144e-005
2.31142e-005
2.3114e-005
2.31137e-005
2.31135e-005
2.31133e-005
2.31131e-005
2.31129e-005
2.31127e-005
2.31125e-005
2.31123e-005
2.31121e-005
2.31119e-005
2.31117e-005
2.31114e-005
2.31113e-005
2.3111e-005
2.31108e-005
2.31106e-005
2.31104e-005
2.31104e-005
2.42019e-005
0.000694332
2.78778e-005
2.78775e-005
2.78772e-005
2.78769e-005
2.78766e-005
2.78762e-005
2.78759e-005
2.78755e-005
2.78752e-005
2.78748e-005
2.78744e-005
2.7874e-005
2.78736e-005
2.78731e-005
2.78727e-005
2.78723e-005
2.78718e-005
2.78713e-005
2.78709e-005
2.78704e-005
2.787e-005
2.78695e-005
2.7869e-005
2.78685e-005
2.7868e-005
2.78675e-005
2.7867e-005
2.78665e-005
2.7866e-005
2.78654e-005
2.78649e-005
2.78644e-005
2.78639e-005
2.78634e-005
2.78628e-005
2.78623e-005
2.78618e-005
2.78613e-005
2.78608e-005
2.78602e-005
2.78597e-005
2.78592e-005
2.78586e-005
2.78581e-005
2.78576e-005
2.78571e-005
2.78566e-005
2.7856e-005
2.78555e-005
2.7855e-005
2.78545e-005
2.78541e-005
2.78536e-005
2.78531e-005
2.78526e-005
2.78521e-005
2.78517e-005
2.78512e-005
2.78507e-005
2.78502e-005
2.78498e-005
2.78494e-005
2.78489e-005
2.78485e-005
2.78481e-005
2.78476e-005
2.78472e-005
2.78468e-005
2.78464e-005
2.7846e-005
2.78456e-005
2.78452e-005
2.78448e-005
2.78444e-005
2.78441e-005
2.78437e-005
2.78433e-005
2.7843e-005
2.78426e-005
2.78423e-005
2.78419e-005
2.78416e-005
2.78413e-005
2.78409e-005
2.78406e-005
2.78403e-005
2.78401e-005
2.78398e-005
2.78395e-005
2.78392e-005
2.78389e-005
2.78386e-005
2.78384e-005
2.78381e-005
2.78379e-005
2.78376e-005
2.78374e-005
2.78371e-005
2.78369e-005
2.78367e-005
2.78364e-005
2.78362e-005
2.7836e-005
2.78358e-005
2.78356e-005
2.78354e-005
2.78352e-005
2.7835e-005
2.78349e-005
2.78347e-005
2.78345e-005
2.78344e-005
2.78342e-005
2.7834e-005
2.78338e-005
2.78337e-005
2.78336e-005
2.78334e-005
2.78333e-005
2.78331e-005
2.7833e-005
2.78328e-005
2.78327e-005
2.78326e-005
2.78324e-005
2.78323e-005
2.78322e-005
2.78321e-005
2.78319e-005
2.78318e-005
2.78317e-005
2.78316e-005
2.78314e-005
2.78313e-005
2.78312e-005
2.78311e-005
2.78322e-005
3.03509e-005
0.0012635
3.02188e-005
3.02187e-005
3.02186e-005
3.02185e-005
3.02184e-005
3.02183e-005
3.02181e-005
3.0218e-005
3.02179e-005
3.02178e-005
3.02177e-005
3.02175e-005
3.02174e-005
3.02172e-005