/*--------------------------------*- C++ -*----------------------------------*\
| =========                 |                                                 |
| \\      /  F ield         | OpenFOAM: The Open Source CFD Toolbox           |
|  \\    /   O peration     | Version:  5.x                                   |
|   \\  /    A nd           | Web:      www.OpenFOAM.org                      |
|    \\/     M anipulation  |                                                 |
\*---------------------------------------------------------------------------*/
/*   Windows 32 and 64 bit porting by blueCAPE: http://www.bluecape.com.pt   *\
|  Based on Windows porting (2.0.x v4) by Symscape: http://www.symscape.com   |
\*---------------------------------------------------------------------------*/
FoamFile
{
    version     2.0;
    format      ascii;
    class       volScalarField;
    location    "20";
    object      k;
}
// * * * * * * * * * * * * * * * * * * * * * * * * * * * * * * * * * * * * * //

dimensions      [0 2 -2 0 0 0 0];

internalField   nonuniform List<scalar> 
43900
(
0.000983776
0.000987789
0.000988048
0.000988048
0.000988047
0.000988047
0.000988047
0.000988046
0.000988046
0.000988045
0.000988045
0.000988045
0.000988045
0.000988045
0.000988044
0.000988044
0.000988044
0.000988044
0.000988044
0.000988044
0.000988044
0.000988044
0.000988044
0.000988045
0.000988045
0.000988045
0.000988045
0.000988045
0.000988045
0.00167086
7.41262e-005
6.82749e-005
6.82659e-005
6.82663e-005
6.82669e-005
6.82671e-005
6.82675e-005
6.8268e-005
6.82681e-005
6.82683e-005
6.82685e-005
6.82686e-005
6.82689e-005
6.82688e-005
6.82688e-005
6.82689e-005
6.82689e-005
6.82688e-005
6.82686e-005
6.82686e-005
6.82674e-005
6.82672e-005
6.82668e-005
6.82666e-005
6.82663e-005
6.82662e-005
6.82657e-005
6.82656e-005
0.0216406
0.000410663
0.000232502
0.000232279
0.000232283
0.000232288
0.000232291
0.000232295
0.000232298
0.000232299
0.000232301
0.000232302
0.000232302
0.000232302
0.000232302
0.0002323
0.000232299
0.000232297
0.000232295
0.000232291
0.000232288
0.000232281
0.000232277
0.000232271
0.000232266
0.000232261
0.000232255
0.000232248
0.00023224
0.0320618
0.000853808
0.000503212
0.000502578
0.000502579
0.000502581
0.000502582
0.000502583
0.000502584
0.000502584
0.000502584
0.000502584
0.000502583
0.000502582
0.000502581
0.00050258
0.000502578
0.000502576
0.000502574
0.000502571
0.000502568
0.000502565
0.000502562
0.000502558
0.000502554
0.00050255
0.000502545
0.000502539
0.000502534
0.0347932
0.000967109
0.000573019
0.000572289
0.000572288
0.000572288
0.000572288
0.000572288
0.000572288
0.000572288
0.000572287
0.000572287
0.000572287
0.000572287
0.000572286
0.000572285
0.000572284
0.000572284
0.000572283
0.000572282
0.00057228
0.00057228
0.000572279
0.000572278
0.000572276
0.000572274
0.000572272
0.00057227
0.000572268
0.0352106
0.000989859
0.000585643
0.00058487
0.000584869
0.000584868
0.000584868
0.000584868
0.000584868
0.000584868
0.000584869
0.000584868
0.000584868
0.000584867
0.000584868
0.000584866
0.000584868
0.000584866
0.000584868
0.000584866
0.000584867
0.000584865
0.000584866
0.000584864
0.000584865
0.000584865
0.000584865
0.000584864
0.000584863
0.0349966
0.000990018
0.000587491
0.000586701
0.000586695
0.000586697
0.000586698
0.000586697
0.000586698
0.000586697
0.000586695
0.000586698
0.000586695
0.000586697
0.000586695
0.000586699
0.000586694
0.000586695
0.000586695
0.000586698
0.000586694
0.000586697
0.000586694
0.000586697
0.000586693
0.000586695
0.000586693
0.000586695
0.000586693
0.0344222
0.000985781
0.00058776
0.000586924
0.000586919
0.000586927
0.000586921
0.000586927
0.000586921
0.000586927
0.000586919
0.000586921
0.000586919
0.000586927
0.000586919
0.00058692
0.00058692
0.00058692
0.000586919
0.000586921
0.00058692
0.00058692
0.000586918
0.00058692
0.000586919
0.000586921
0.000586918
0.000586918
0.00058692
0.0339068
0.000982521
0.000587837
0.000586946
0.000586942
0.000586954
0.000586943
0.000586954
0.000586943
0.000586954
0.000586942
0.000586943
0.000586942
0.000586953
0.000586942
0.00058694
0.000586944
0.000586942
0.000586942
0.000586943
0.000586944
0.000586942
0.00058694
0.000586942
0.000586942
0.000586947
0.000586939
0.000586939
0.000586942
0.0333717
0.000979858
0.0005879
0.000586955
0.000586951
0.000586959
0.000586953
0.000586958
0.000586953
0.000586958
0.000586951
0.000586952
0.000586951
0.000586958
0.000586951
0.000586942
0.000586945
0.000586952
0.000586951
0.000586952
0.000586947
0.000586951
0.00058695
0.000586951
0.000586946
0.000586952
0.000586942
0.000586941
0.000586943
0.0327803
0.000977263
0.000587973
0.000586963
0.000586959
0.000586961
0.00058696
0.000586961
0.00058696
0.000586961
0.00058696
0.00058696
0.000586959
0.000586961
0.00058696
0.000586949
0.000586947
0.000586959
0.000586959
0.000586959
0.000586947
0.000586959
0.000586959
0.000586959
0.000586946
0.000586954
0.000586949
0.000586949
0.000586945
0.0321347
0.000974905
0.000588061
0.000586968
0.000586965
0.000586965
0.000586965
0.000586965
0.000586964
0.000586965
0.000586965
0.000586965
0.000586964
0.000586964
0.000586961
0.00058696
0.000586955
0.000586964
0.000586964
0.000586964
0.00058695
0.000586964
0.000586964
0.000586964
0.000586948
0.000586961
0.00058696
0.000586951
0.000586953
0.0314321
0.000972874
0.000588167
0.000586973
0.00058697
0.000586969
0.000586969
0.000586969
0.000586969
0.00058697
0.00058697
0.000586969
0.000586968
0.000586969
0.000586963
0.000586967
0.000586965
0.00058697
0.000586969
0.000586969
0.000586959
0.000586969
0.000586969
0.000586969
0.000586957
0.000586968
0.000586968
0.000586953
0.000586966
0.0306688
0.000971237
0.000588294
0.000586981
0.000586975
0.000586975
0.000586975
0.000586975
0.000586975
0.000586975
0.000586975
0.000586974
0.000586975
0.000586975
0.000586971
0.000586974
0.000586973
0.000586975
0.000586975
0.000586975
0.00058697
0.000586975
0.000586975
0.000586974
0.00058697
0.000586974
0.000586974
0.000586958
0.000586974
0.029842
0.000970054
0.000588448
0.000586991
0.000586982
0.000586983
0.000586983
0.000586984
0.000586984
0.000586983
0.000586983
0.000586982
0.000586983
0.000586983
0.000586983
0.000586983
0.000586981
0.000586983
0.000586983
0.000586982
0.000586979
0.000586982
0.000586982
0.000586981
0.000586975
0.00058698
0.00058698
0.000586971
0.000586981
0.0289495
0.000969402
0.000588634
0.000587003
0.000586992
0.000586993
0.000586992
0.000586994
0.000586993
0.000586993
0.000586993
0.000586993
0.000586993
0.000586994
0.000586994
0.000586993
0.000586991
0.000586992
0.000586992
0.000586992
0.000586988
0.000586991
0.000586991
0.000586991
0.000586982
0.000586987
0.000586987
0.000586985
0.000586989
0.0279901
0.000969341
0.000588857
0.00058702
0.000587008
0.000587006
0.000587007
0.000587007
0.000587008
0.000587007
0.000587007
0.000587007
0.000587007
0.000587006
0.000587006
0.000587006
0.000587005
0.000587007
0.000587006
0.000587006
0.000587001
0.000587004
0.000587004
0.000587003
0.000586996
0.000587001
0.000587001
0.000586997
0.000586999
0.0269637
0.000969938
0.000589126
0.000587042
0.000587028
0.000587025
0.000587027
0.000587027
0.000587028
0.000587028
0.000587027
0.000587026
0.000587025
0.000587023
0.000587025
0.000587025
0.000587021
0.000587024
0.000587024
0.000587023
0.000587016
0.000587024
0.000587024
0.000587024
0.000587024
0.000587024
0.000587021
0.000587008
0.000587013
0.0258715
0.000971239
0.00058945
0.000587073
0.000587051
0.000587052
0.000587052
0.000587052
0.000587052
0.000587052
0.000587051
0.000587048
0.000587048
0.000587047
0.000587048
0.000587047
0.000587044
0.000587046
0.000587046
0.000587045
0.000587041
0.000587048
0.000587048
0.000587047
0.000587044
0.000587043
0.000587041
0.000587029
0.000587031
0.0247159
0.00097323
0.00058984
0.000587113
0.000587083
0.000587086
0.000587085
0.000587085
0.000587085
0.000587084
0.00058708
0.000587081
0.000587081
0.000587079
0.000587078
0.000587075
0.000587079
0.000587079
0.000587079
0.000587079
0.000587078
0.000587078
0.000587076
0.000587074
0.000587064
0.000587068
0.000587067
0.000587065
0.000587058
0.0235011
0.000975883
0.000590309
0.000587166
0.000587131
0.000587128
0.000587129
0.000587129
0.000587128
0.000587128
0.000587128
0.000587126
0.000587125
0.000587123
0.000587121
0.000587118
0.000587123
0.000587123
0.000587123
0.000587123
0.000587119
0.000587107
0.000587106
0.000587103
0.000587099
0.000587102
0.000587102
0.000587101
0.000587095
0.0222327
0.000979109
0.00059087
0.000587236
0.000587191
0.000587188
0.000587188
0.000587185
0.000587186
0.000587186
0.000587185
0.000587181
0.000587182
0.000587182
0.000587181
0.000587176
0.000587178
0.000587178
0.000587177
0.000587176
0.000587172
0.000587156
0.000587153
0.00058715
0.000587153
0.000587153
0.000587153
0.000587153
0.000587151
0.0209183
0.000982753
0.000591538
0.000587329
0.000587269
0.000587266
0.000587259
0.00058726
0.00058726
0.000587259
0.000587258
0.000587255
0.000587257
0.000587257
0.000587256
0.000587247
0.000587249
0.000587244
0.000587244
0.000587244
0.000587242
0.000587237
0.000587234
0.000587231
0.00058723
0.000587229
0.000587229
0.000587226
0.000587222
0.0195675
0.000986591
0.000592329
0.000587449
0.000587369
0.000587364
0.000587356
0.000587357
0.000587357
0.000587353
0.000587353
0.000587353
0.000587353
0.000587352
0.000587349
0.000587339
0.000587343
0.00058734
0.00058734
0.00058734
0.00058734
0.000587339
0.000587335
0.000587333
0.00058733
0.000587326
0.00058732
0.000587314
0.000587305
0.0181909
0.00099032
0.000593259
0.000587603
0.000587499
0.000587494
0.000587481
0.000587483
0.000587483
0.000587482
0.000587477
0.000587476
0.000587476
0.000587475
0.000587473
0.000587467
0.000587468
0.000587468
0.000587468
0.000587467
0.000587465
0.00058746
0.000587454
0.000587447
0.000587438
0.000587432
0.000587425
0.000587417
0.000587408
0.0168011
0.000993577
0.000594341
0.000587803
0.000587663
0.000587655
0.000587638
0.000587647
0.000587647
0.000587646
0.000587645
0.000587646
0.000587645
0.000587642
0.000587641
0.000587639
0.000587636
0.00058763
0.000587622
0.000587614
0.000587605
0.000587596
0.000587589
0.00058758
0.000587572
0.000587566
0.000587562
0.000587554
0.000587538
0.015412
0.000995931
0.000595583
0.000588055
0.000587866
0.000587859
0.000587847
0.000587859
0.000587859
0.000587859
0.000587857
0.000587845
0.000587843
0.000587842
0.000587841
0.000587838
0.000587832
0.000587828
0.000587819
0.000587807
0.000587793
0.000587787
0.000587776
0.000587768
0.000587761
0.000587747
0.000587734
0.000587721
0.000587697
0.0140379
0.000996897
0.00059699
0.000588372
0.000588129
0.000588121
0.000588114
0.000588114
0.000588109
0.000588105
0.000588098
0.000588082
0.000588086
0.000588086
0.000588085
0.000588085
0.000588082
0.000588075
0.000588064
0.00058805
0.00058804
0.000588024
0.000588012
0.000587994
0.000587979
0.000587961
0.000587945
0.000587927
0.000587894
0.0126936
0.000995887
0.000598557
0.000588766
0.000588451
0.000588439
0.000588432
0.000588412
0.000588411
0.00058841
0.000588409
0.000588408
0.000588407
0.000588404
0.000588398
0.000588388
0.000588377
0.000588367
0.000588358
0.000588347
0.00058833
0.000588308
0.000588285
0.000588256
0.000588247
0.000588239
0.000588223
0.000588199
0.000588155
0.0113934
0.000992757
0.000600268
0.000589245
0.000588848
0.00058883
0.000588822
0.000588805
0.000588809
0.000588809
0.000588808
0.000588805
0.000588802
0.000588793
0.000588787
0.000588775
0.000588759
0.000588739
0.000588727
0.000588713
0.000588689
0.000588673
0.000588659
0.000588634
0.000588611
0.000588584
0.000588553
0.000588522
0.000588465
0.010151
0.000986954
0.0006021
0.000589824
0.000589324
0.000589305
0.000589299
0.000589291
0.000589279
0.000589274
0.000589271
0.000589269
0.000589265
0.000589264
0.000589261
0.000589255
0.000589242
0.000589227
0.00058921
0.000589189
0.000589167
0.000589131
0.000589107
0.000589072
0.000589041
0.000589002
0.000588958
0.00058892
0.000588848
0.00897821
0.000978148
0.000604012
0.000590511
0.000589886
0.00058985
0.000589848
0.00058984
0.000589814
0.000589826
0.000589825
0.000589824
0.000589821
0.00058981
0.000589804
0.000589794
0.000589788
0.000589777
0.000589757
0.000589739
0.000589712
0.00058967
0.000589628
0.000589595
0.000589553
0.000589503
0.000589455
0.000589401
0.00058932
0.00788505
0.000966225
0.000605957
0.000591307
0.000590552
0.000590509
0.000590495
0.00059049
0.000590465
0.000590474
0.000590476
0.000590476
0.000590476
0.000590473
0.000590469
0.000590459
0.00059044
0.000590431
0.000590426
0.000590417
0.000590402
0.00059037
0.000590319
0.000590256
0.000590198
0.000590144
0.000590058
0.000590011
0.00058994
0.00687899
0.000951211
0.000607875
0.000592217
0.000591333
0.000591296
0.00059124
0.000591263
0.000591273
0.000591273
0.000591273
0.000591271
0.000591269
0.000591264
0.000591248
0.000591243
0.000591237
0.000591239
0.000591238
0.000591234
0.00059122
0.000591201
0.000591159
0.000591085
0.000591031
0.000590908
0.000590875
0.000590792
0.000590629
0.00596485
0.000933302
0.000609707
0.000593236
0.000592224
0.000592142
0.000592109
0.000592139
0.000592178
0.0005922
0.000592221
0.000592224
0.000592224
0.000592223
0.000592215
0.000592211
0.000592203
0.00059218
0.000592176
0.000592173
0.000592165
0.000592146
0.000592135
0.000592105
0.000592015
0.000591979
0.000591807
0.000591702
0.000591648
0.00514469
0.000912836
0.000611388
0.000594345
0.00059323
0.000593072
0.000593079
0.000593127
0.000593176
0.000593213
0.000593257
0.000593293
0.000593327
0.000593343
0.000593357
0.000593357
0.000593356
0.00059334
0.000593335
0.000593321
0.000593297
0.000593299
0.000593282
0.000593248
0.000593236
0.000593059
0.000593054
0.000592979
0.000592635
0.00441793
0.000890278
0.000612854
0.000595541
0.000594308
0.000594123
0.000594149
0.000594218
0.000594279
0.000594335
0.000594396
0.000594458
0.000594524
0.000594578
0.000594632
0.000594699
0.000594717
0.000594751
0.000594747
0.000594726
0.000594741
0.000594678
0.000594724
0.000594722
0.000594558
0.000594685
0.000594452
0.000594264
0.00059433
0.00378164
0.000866209
0.000614055
0.00059681
0.000595434
0.000595281
0.000595321
0.000595406
0.000595487
0.000595569
0.000595657
0.00059575
0.00059585
0.000595944
0.000596048
0.000596132
0.000596264
0.000596304
0.00059643
0.000596455
0.000596346
0.000596442
0.000596367
0.000596299
0.000596513
0.000596088
0.000596289
0.000596281
0.000595638
0.00323091
0.000841275
0.000614965
0.00059812
0.000596621
0.000596507
0.000596566
0.000596676
0.000596786
0.000596903
0.00059703
0.000597166
0.00059731
0.000597463
0.000597602
0.000597792
0.000597885
0.000598131
0.000598213
0.000598276
0.000598533
0.000598336
0.000598436
0.00059853
0.00059811
0.000598559
0.000598138
0.00059785
0.000598201
0.00275939
0.000816116
0.000615574
0.000599431
0.000597864
0.000597777
0.00059786
0.000598005
0.000598154
0.000598316
0.000598495
0.000598687
0.000598897
0.000599102
0.000599367
0.000599521
0.000599887
0.000599983
0.000600279
0.000600588
0.000600498
0.000600929
0.000600901
0.000600724
0.000601138
0.000600502
0.000600899
0.000600831
0.000600067
0.00235973
0.000791328
0.000615884
0.000600715
0.000599137
0.000599071
0.00059918
0.000599369
0.000599566
0.000599783
0.000600024
0.000600289
0.000600568
0.000600896
0.000601158
0.000601632
0.000601784
0.000602342
0.000602559
0.000602753
0.000603497
0.0006033
0.000603802
0.000603973
0.000603503
0.000604264
0.000603436
0.00060373
0.000603742
0.00202408
0.000767432
0.000615904
0.000601946
0.00060041
0.000600368
0.000600506
0.000600746
0.000600998
0.000601279
0.000601592
0.000601939
0.000602324
0.00060271
0.000603235
0.000603531
0.000604307
0.000604529
0.000605145
0.000605863
0.000605835
0.00060692
0.000606623
0.000607168
0.000608171
0.000607124
0.000608189
0.000607184
0.000606843
0.00174456
0.000744863
0.000615713
0.000603098
0.000601655
0.00060164
0.000601813
0.000602108
0.000602421
0.000602773
0.000603169
0.000603607
0.000604095
0.000604645
0.000605163
0.000605963
0.000606366
0.000607397
0.000607911
0.00060842
0.000609945
0.000609613
0.000611365
0.000611079
0.000611044
0.000612586
0.00061162
0.000612726
0.000612307
0.00151353
0.000723944
0.00061534
0.000604153
0.00060285
0.000602864
0.000603079
0.00060343
0.000603808
0.000604237
0.000604716
0.00060527
0.000605851
0.000606569
0.000607265
0.00060808
0.000609087
0.000609738
0.000611171
0.000612048
0.000612471
0.000614997
0.00061445
0.000616154
0.000617196
0.000616618
0.000618136
0.000617223
0.000617744
0.00132389
0.000704899
0.000614811
0.000605102
0.000603975
0.000604019
0.000604282
0.000604689
0.000605134
0.000605637
0.000606223
0.000606843
0.000607661
0.000608306
0.000609519
0.00061017
0.00061153
0.000613024
0.000613525
0.000615559
0.00061777
0.000617849
0.000620866
0.000620828
0.000621635
0.000624482
0.000623562
0.000625132
0.000624751
0.00116918
0.000687849
0.000614191
0.00060594
0.000605014
0.000605091
0.000605403
0.000605865
0.000606374
0.000606964
0.000607613
0.000608442
0.000609135
0.000610462
0.000611096
0.000612788
0.000614018
0.000614886
0.000618057
0.000618999
0.000620218
0.000623867
0.000624808
0.000628732
0.000628879
0.000629494
0.000633211
0.000632238
0.000633176
0.00104371
0.000672831
0.000613527
0.000606672
0.000605956
0.000606066
0.000606429
0.000606942
0.000607518
0.000608171
0.000608966
0.000609731
0.000610999
0.000611686
0.000613569
0.000614487
0.000615983
0.000619118
0.00061999
0.000622735
0.000625549
0.000627517
0.000631581
0.000632954
0.000638793
0.000640175
0.000640167
0.000643773
0.000643817
0.000942539
0.000659808
0.000612858
0.000607301
0.000606792
0.000606935
0.000607348
0.000607911
0.000608542
0.00060929
0.000610088
0.000611223
0.000612
0.000613882
0.00061473
0.000616867
0.000619017
0.000620173
0.000624036
0.000625766
0.000629364
0.000633328
0.000636258
0.00064292
0.000644762
0.000649318
0.000655631
0.000654438
0.00065669
0.000861467
0.000648693
0.000612213
0.000607835
0.000607517
0.000607692
0.000608159
0.000608762
0.000609454
0.00061024
0.000611232
0.000612126
0.000613781
0.000614678
0.000616979
0.000618406
0.000620022
0.000624332
0.0006257
0.000629842
0.000634498
0.00063711
0.000642913
0.000647185
0.000657353
0.000660429
0.000663989
0.000674049
0.000674046
0.000796948
0.000639353
0.000611619
0.000608286
0.000608132
0.00060834
0.00060886
0.000609499
0.000610232
0.000611111
0.000612057
0.000613398
0.000614385
0.000616511
0.000617786
0.000619933
0.000623562
0.000624784
0.000629833
0.000632666
0.000636165
0.000643642
0.000648732
0.000658638
0.000662941
0.000676434
0.000681085
0.000687027
0.00069577
0.000746031
0.000631636
0.000611097
0.000608666
0.000608634
0.000608887
0.000609455
0.000610119
0.000610901
0.000611805
0.000612918
0.00061404
0.000615744
0.000617084
0.000619136
0.00062206
0.000623519
0.000628407
0.000630567
0.00063605
0.00064074
0.000646071
0.00065703
0.000662838
0.000677753
0.000685112
0.000703154
0.000712578
0.000717911
0.000706271
0.000625376
0.000610653
0.000608977
0.000609024
0.000609346
0.00060994
0.000610631
0.000611448
0.000612402
0.000613557
0.000614772
0.000616595
0.000617755
0.000621001
0.000622154
0.000626471
0.000628396
0.000633803
0.000637381
0.000645
0.000649737
0.00066078
0.000669298
0.000681428
0.000707103
0.000721146
0.000732218
0.000764048
0.000675653
0.000620407
0.00061028
0.000609222
0.00060933
0.000609715
0.000610328
0.000611044
0.000611887
0.000612897
0.000614027
0.000615529
0.000616829
0.0006193
0.000620735
0.000624177
0.000626836
0.000629633
0.00063536
0.00064007
0.000645332
0.000656489
0.000662991
0.00067998
0.000692438
0.000710588
0.000749626
0.000770239
0.000790733
0.00065251
0.000616555
0.000609971
0.00060941
0.000609565
0.000609999
0.000610627
0.00061136
0.000612237
0.000613224
0.000614585
0.000615616
0.000618029
0.000619068
0.000622558
0.000623971
0.000628154
0.000630549
0.000637373
0.000640596
0.000649137
0.000654937
0.000672233
0.000681537
0.000708543
0.000724833
0.000757299
0.000818671
0.000863899
0.000635494
0.000613675
0.000609741
0.000609556
0.000609748
0.000610234
0.000610869
0.000611621
0.000612498
0.000613588
0.000614732
0.000616351
0.000617766
0.000620115
0.000622446
0.000624225
0.000630477
0.000631805
0.000638757
0.000642474
0.00065134
0.000657706
0.000671299
0.000686153
0.000710266
0.00072986
0.000779626
0.000830809
0.000942332
0.000623408
0.000611575
0.000609571
0.000609594
0.000609841
0.000610353
0.000610971
0.000611719
0.000612592
0.000613666
0.000614871
0.000616315
0.00061814
0.000619785
0.000622684
0.000624786
0.000629387
0.000631916
0.000640289
0.000642672
0.000655435
0.000661503
0.000679504
0.000694508
0.000738956
0.00077853
0.000939516
0.00103712
0.00128283
0.000615572
0.000610236
0.00060959
0.000609742
0.000610143
0.000610741
0.000611479
0.000612414
0.00061355
0.000615035
0.000616859
0.00061897
0.000622971
0.000625836
0.000634389
0.000642145
0.000663785
0.000684305
0.00077325
0.000852939
0.00118647
0.0015158
0.00283065
0.00409365
0.00879791
0.0125658
0.0267111
0.0332658
0.0432354
0.000610485
0.000610393
0.00061205
0.000615873
0.000622086
0.000631844
0.00064722
0.000671522
0.000709772
0.000771149
0.000867927
0.00101291
0.00131798
0.00159818
0.00252129
0.003283
0.00552745
0.0073409
0.0136294
0.0181567
0.032624
0.0434713
0.0760331
0.100444
0.169074
0.219493
0.362033
0.445593
0.611163
0.000614645
0.000665581
0.000784951
0.000991057
0.0013106
0.00178966
0.00249096
0.00350049
0.00493277
0.00695833
0.00976694
0.0135445
0.0197686
0.0250492
0.0389772
0.0486128
0.0724324
0.0896096
0.134601
0.165188
0.241398
0.295965
0.427279
0.525223
0.756438
0.940591
1.39201
1.73704
2.51289
0.000988045
0.000988046
0.000988046
0.000988046
0.000988046
0.000988047
0.000988047
0.000988048
0.000988048
0.000988048
0.000988049
0.000988049
0.00098805
0.00098805
0.000988051
0.000988051
0.000988052
0.000988052
0.000988053
0.000988053
0.000988054
0.000988055
0.000988055
0.000988056
0.000988056
0.000988057
0.000988058
0.000988058
0.000988059
0.000988059
0.00098806
0.000988061
0.000988061
0.000988062
0.000988063
0.000988063
0.000988064
0.000988065
0.000988065
0.000988066
0.000988066
0.000988067
0.000988068
0.000988068
0.000988069
0.00098807
0.00098807
0.000988071
0.000988071
0.000988072
0.000988073
0.000988073
0.000988074
0.000988075
0.000988075
0.000988076
0.000988076
0.000988077
0.000988077
0.000988078
0.000988079
0.000988079
0.00098808
0.00098808
0.000988081
0.000988081
0.000988082
0.000988082
0.000988083
0.000988083
0.000988084
0.000988084
0.000988085
0.000988085
0.000988086
0.000988086
0.000988087
0.000988087
0.000988087
0.000988088
0.000988088
0.000988089
0.000988089
0.000988089
0.00098809
0.00098809
0.000988091
0.000988091
0.000988091
0.000988092
0.000988092
0.000988092
0.000988093
0.000988093
0.000988093
0.000988094
0.000988094
0.000988094
0.000988095
0.000988095
0.000988095
0.000988096
0.000988096
0.000988096
0.000988096
0.000988097
0.000988097
0.000988097
0.000988097
0.000988098
0.000988098
0.000988098
0.000988098
0.000988099
0.000988099
0.000988099
0.000988099
0.0009881
0.0009881
0.0009881
0.000988101
0.000988101
0.000988101
0.000988102
0.000988102
0.000988102
0.000988103
0.000988103
0.000988103
0.000988104
0.000988104
0.000988105
0.000988106
0.000988106
0.000988107
0.000988108
0.000988109
0.000988081
0.000980381
6.82649e-005
6.82641e-005
6.82634e-005
6.82627e-005
6.82622e-005
6.82614e-005
6.82607e-005
6.82599e-005
6.82591e-005
6.82582e-005
6.82573e-005
6.82564e-005
6.82554e-005
6.82545e-005
6.82535e-005
6.82524e-005
6.82514e-005
6.82502e-005
6.82492e-005
6.82481e-005
6.82471e-005
6.82458e-005
6.82446e-005
6.82435e-005
6.82423e-005
6.82411e-005
6.82399e-005
6.82386e-005
6.82375e-005
6.82362e-005
6.8235e-005
6.82337e-005
6.82325e-005
6.82312e-005
6.823e-005
6.82287e-005
6.82275e-005
6.82262e-005
6.82251e-005
6.82237e-005
6.82224e-005
6.82212e-005
6.82199e-005
6.82185e-005
6.82174e-005
6.8216e-005
6.82149e-005
6.82136e-005
6.82124e-005
6.82112e-005
6.821e-005
6.82089e-005
6.82077e-005
6.82065e-005
6.82054e-005
6.82042e-005
6.82031e-005
6.8202e-005
6.82007e-005
6.81996e-005
6.81986e-005
6.81976e-005
6.81965e-005
6.81954e-005
6.81944e-005
6.81934e-005
6.81922e-005
6.81914e-005
6.81903e-005
6.81894e-005
6.81884e-005
6.81875e-005
6.81866e-005
6.81856e-005
6.81847e-005
6.81839e-005
6.81829e-005
6.81821e-005
6.81812e-005
6.81804e-005
6.81796e-005
6.81788e-005
6.81781e-005
6.81771e-005
6.81765e-005
6.81758e-005
6.81752e-005
6.81743e-005
6.81736e-005
6.81729e-005
6.81722e-005
6.81714e-005
6.8171e-005
6.81702e-005
6.81697e-005
6.81691e-005
6.81687e-005
6.81679e-005
6.81674e-005
6.81668e-005
6.81662e-005
6.81657e-005
6.81652e-005
6.81647e-005
6.81642e-005
6.81637e-005
6.81631e-005
6.81627e-005
6.81623e-005
6.81619e-005
6.81614e-005
6.81612e-005
6.81606e-005
6.816e-005
6.81597e-005
6.81593e-005
6.8159e-005
6.81586e-005
6.81582e-005
6.81576e-005
6.81574e-005
6.8157e-005
6.81566e-005
6.81562e-005
6.81556e-005
6.81554e-005
6.8155e-005
6.81546e-005
6.8154e-005
6.81537e-005
6.81531e-005
6.81528e-005
6.81521e-005
6.81517e-005
6.81511e-005
6.81506e-005
6.81499e-005
6.86557e-005
0.000592638
0.000232233
0.000232224
0.000232212
0.000232201
0.000232189
0.000232176
0.000232164
0.00023215
0.000232136
0.000232121
0.000232106
0.000232091
0.000232075
0.000232059
0.000232042
0.000232025
0.000232008
0.00023199
0.000231973
0.000231955
0.000231937
0.000231918
0.000231899
0.000231881
0.000231861
0.000231842
0.000231823
0.000231803
0.000231784
0.000231764
0.000231744
0.000231723
0.000231704
0.000231684
0.000231664
0.000231643
0.000231623
0.000231603
0.000231583
0.000231562
0.000231543
0.000231522
0.000231503
0.000231481
0.000231462
0.000231442
0.000231423
0.000231403
0.000231383
0.000231364
0.000231345
0.000231326
0.000231307
0.000231289
0.00023127
0.000231252
0.000231233
0.000231216
0.000231197
0.000231179
0.000231162
0.000231145
0.000231128
0.000231111
0.000231095
0.000231078
0.000231061
0.000231046
0.00023103
0.000231014
0.000230999
0.000230984
0.000230969
0.000230954
0.00023094
0.000230926
0.000230912
0.000230898
0.000230884
0.000230871
0.000230858
0.000230845
0.000230832
0.000230819
0.000230808
0.000230796
0.000230785
0.000230773
0.000230761
0.000230751
0.000230739
0.000230728
0.000230719
0.000230708
0.000230699
0.000230689
0.000230681
0.000230671
0.000230662
0.000230653
0.000230644
0.000230635
0.000230627
0.000230619
0.000230611
0.000230603
0.000230595
0.000230588
0.000230581
0.000230574
0.000230567
0.000230561
0.000230553
0.000230546
0.00023054
0.000230534
0.000230528
0.000230522
0.000230515
0.000230509
0.000230504
0.000230497
0.000230492
0.000230486
0.000230479
0.000230474
0.000230469
0.000230463
0.000230456
0.000230451
0.000230444
0.000230438
0.000230431
0.000230425
0.000230418
0.000230411
0.000230404
0.000240043
0.00500664
0.000502527
0.000502519
0.00050251
0.000502502
0.000502493
0.000502484
0.000502474
0.000502464
0.000502454
0.000502443
0.000502433
0.000502422
0.00050241
0.000502399
0.000502387
0.000502375
0.000502363
0.00050235
0.000502338
0.000502325
0.000502312
0.000502299
0.000502285
0.000502272
0.000502258
0.000502245
0.000502231
0.000502217
0.000502203
0.000502189
0.000502175
0.000502161
0.000502147
0.000502132
0.000502118
0.000502103
0.000502089
0.000502075
0.000502061
0.000502046
0.000502031
0.000502017
0.000502003
0.000501989
0.000501976
0.000501961
0.000501947
0.000501933
0.000501919
0.000501906
0.000501892
0.000501879
0.000501865
0.000501852
0.000501839
0.000501826
0.000501813
0.0005018
0.000501788
0.000501775
0.000501762
0.000501751
0.000501739
0.000501727
0.000501715
0.000501704
0.000501692
0.000501681
0.00050167
0.000501659
0.000501648
0.000501638
0.000501627
0.000501616
0.000501606
0.000501596
0.000501587
0.000501577
0.000501568
0.000501558
0.000501549
0.00050154
0.000501531
0.000501522
0.000501514
0.000501505
0.000501498
0.00050149
0.000501482
0.000501474
0.000501467
0.000501459
0.000501452
0.000501445
0.000501438
0.000501431
0.000501424
0.000501418
0.000501411
0.000501406
0.0005014
0.000501394
0.000501388
0.000501383
0.000501377
0.000501372
0.000501366
0.000501361
0.000501356
0.000501352
0.000501347
0.000501343
0.000501338
0.000501333
0.000501329
0.000501325
0.000501321
0.000501317
0.000501313
0.000501309
0.000501306
0.000501302
0.000501298
0.000501295
0.000501291
0.000501288
0.000501284
0.000501281
0.000501277
0.000501274
0.00050127
0.000501267
0.000501263
0.00050126
0.000501256
0.000501253
0.000501271
0.000530126
0.00961835
0.000572266
0.000572262
0.000572259
0.000572256
0.000572253
0.00057225
0.000572246
0.000572243
0.00057224
0.000572236
0.000572233
0.000572229
0.000572225
0.000572221
0.000572216
0.000572213
0.000572209
0.000572205
0.0005722
0.000572197
0.000572192
0.000572188
0.000572183
0.000572179
0.000572174
0.00057217
0.000572166
0.00057216
0.000572155
0.000572151
0.000572145
0.000572141
0.000572136
0.000572132
0.000572126
0.000572122
0.000572118
0.000572113
0.000572108
0.000572101
0.000572098
0.000572093
0.000572088
0.000572084
0.000572078
0.000572074
0.00057207
0.000572065
0.000572061
0.000572056
0.000572052
0.000572047
0.000572044
0.000572039
0.000572034
0.00057203
0.000572025
0.000572022
0.000572018
0.000572011
0.000572009
0.000572006
0.000572003
0.000571997
0.000571994
0.000571989
0.000571986
0.000571983
0.000571979
0.000571975
0.000571972
0.000571968
0.000571965
0.000571961
0.000571958
0.000571955
0.000571952
0.000571948
0.000571945
0.000571942
0.000571939
0.000571936
0.000571933
0.000571929
0.000571927
0.000571925
0.000571923
0.000571919
0.000571917
0.000571915
0.000571912
0.000571909
0.000571907
0.000571904
0.000571902
0.000571899
0.000571898
0.000571896
0.000571894
0.000571891
0.00057189
0.000571887
0.000571887
0.000571884
0.000571884
0.00057188
0.000571879
0.000571877
0.000571877
0.000571876
0.000571874
0.000571871
0.00057187
0.000571868
0.000571868
0.000571867
0.000571866
0.000571865
0.000571862
0.000571862
0.00057186
0.000571859
0.000571858
0.000571856
0.000571856
0.000571854
0.000571855
0.000571853
0.000571853
0.000571852
0.000571851
0.000571849
0.00057185
0.000571849
0.000571847
0.000571845
0.000571878
0.000608094
0.0109647
0.000584863
0.000584863
0.000584863
0.000584861
0.000584861
0.000584861
0.00058486
0.000584859
0.000584856
0.000584857
0.000584856
0.000584853
0.000584854
0.000584852
0.000584851
0.000584849
0.00058485
0.000584846
0.000584848
0.000584847
0.000584846
0.000584843
0.000584843