/*--------------------------------*- C++ -*----------------------------------*\
| =========                 |                                                 |
| \\      /  F ield         | OpenFOAM: The Open Source CFD Toolbox           |
|  \\    /   O peration     | Version:  5.x                                   |
|   \\  /    A nd           | Web:      www.OpenFOAM.org                      |
|    \\/     M anipulation  |                                                 |
\*---------------------------------------------------------------------------*/
/*   Windows 32 and 64 bit porting by blueCAPE: http://www.bluecape.com.pt   *\
|  Based on Windows porting (2.0.x v4) by Symscape: http://www.symscape.com   |
\*---------------------------------------------------------------------------*/
FoamFile
{
    version     2.0;
    format      ascii;
    class       volScalarField;
    location    "20";
    object      nut;
}
// * * * * * * * * * * * * * * * * * * * * * * * * * * * * * * * * * * * * * //

dimensions      [0 2 -1 0 0 0 0];

internalField   nonuniform List<scalar> 
43900
(
5.70504e-005
5.7862e-005
5.78844e-005
5.78844e-005
5.78844e-005
5.78843e-005
5.78843e-005
5.78843e-005
5.78842e-005
5.78842e-005
5.78842e-005
5.78842e-005
5.78842e-005
5.78841e-005
5.78841e-005
5.78841e-005
5.78841e-005
5.78841e-005
5.78841e-005
5.78841e-005
5.78841e-005
5.78841e-005
5.78841e-005
5.78841e-005
5.78841e-005
5.78842e-005
5.78842e-005
5.78842e-005
5.78842e-005
0.000573876
1.08122e-005
9.51502e-006
9.5132e-006
9.51334e-006
9.51351e-006
9.51362e-006
9.51377e-006
9.51392e-006
9.51399e-006
9.51406e-006
9.51414e-006
9.51418e-006
9.51427e-006
9.51427e-006
9.51429e-006
9.51432e-006
9.51432e-006
9.51432e-006
9.51428e-006
9.51428e-006
9.51399e-006
9.51394e-006
9.51385e-006
9.51381e-006
9.51373e-006
9.51369e-006
9.51358e-006
9.51356e-006
0.0111046
0.000324968
0.000209649
0.000209491
0.000209498
0.000209505
0.00020951
0.000209515
0.00020952
0.000209523
0.000209525
0.000209526
0.000209527
0.000209527
0.000209526
0.000209524
0.000209523
0.00020952
0.000209516
0.000209512
0.000209507
0.000209497
0.000209491
0.000209483
0.000209476
0.000209467
0.000209459
0.000209449
0.000209437
0.0167151
0.000941009
0.00081578
0.000815381
0.000815384
0.000815389
0.000815391
0.000815394
0.000815395
0.000815396
0.000815396
0.000815395
0.000815394
0.000815392
0.000815389
0.000815386
0.000815382
0.000815378
0.000815373
0.000815366
0.00081536
0.000815356
0.000815349
0.000815341
0.000815332
0.000815323
0.000815311
0.000815299
0.000815288
0.0180889
0.00107225
0.000975713
0.000975402
0.000975401
0.000975402
0.000975402
0.000975402
0.000975402
0.000975402
0.000975399
0.000975401
0.000975399
0.000975398
0.000975396
0.000975395
0.000975394
0.000975392
0.000975389
0.000975387
0.000975383
0.000975384
0.000975381
0.000975378
0.000975375
0.00097537
0.000975365
0.000975362
0.000975356
0.0183075
0.00109784
0.00100478
0.00100449
0.00100449
0.00100449
0.00100449
0.00100449
0.00100448
0.00100448
0.00100449
0.00100448
0.00100449
0.00100448
0.00100449
0.00100448
0.00100448
0.00100448
0.00100448
0.00100448
0.00100448
0.00100448
0.00100448
0.00100448
0.00100448
0.00100448
0.00100448
0.00100448
0.00100447
0.0182359
0.00110037
0.00100895
0.00100866
0.00100865
0.00100865
0.00100866
0.00100865
0.00100866
0.00100865
0.00100865
0.00100866
0.00100865
0.00100865
0.00100865
0.00100866
0.00100865
0.00100865
0.00100865
0.00100866
0.00100865
0.00100865
0.00100865
0.00100866
0.00100864
0.00100865
0.00100865
0.00100865
0.00100865
0.0180173
0.00109962
0.00100945
0.00100916
0.00100915
0.00100917
0.00100915
0.00100917
0.00100915
0.00100917
0.00100915
0.00100915
0.00100915
0.00100917
0.00100915
0.00100915
0.00100915
0.00100915
0.00100915
0.00100916
0.00100915
0.00100915
0.00100915
0.00100915
0.00100915
0.00100916
0.00100915
0.00100915
0.00100915
0.0178094
0.00109754
0.00100949
0.0010092
0.0010092
0.00100922
0.0010092
0.00100922
0.0010092
0.00100922
0.0010092
0.0010092
0.0010092
0.00100922
0.0010092
0.00100919
0.0010092
0.0010092
0.0010092
0.0010092
0.00100921
0.0010092
0.00100919
0.0010092
0.0010092
0.00100922
0.00100919
0.00100919
0.00100921
0.0175958
0.00109579
0.00100948
0.00100922
0.00100921
0.00100923
0.00100922
0.00100923
0.00100922
0.00100923
0.00100921
0.00100922
0.00100921
0.00100923
0.00100921
0.00100919
0.0010092
0.00100922
0.00100921
0.00100922
0.0010092
0.00100921
0.00100921
0.00100921
0.0010092
0.00100923
0.00100919
0.00100919
0.00100921
0.0173598
0.00109405
0.00100945
0.00100923
0.00100923
0.00100923
0.00100923
0.00100923
0.00100923
0.00100923
0.00100923
0.00100923
0.00100923
0.00100923
0.00100923
0.0010092
0.0010092
0.00100923
0.00100923
0.00100923
0.0010092
0.00100923
0.00100923
0.00100923
0.00100919
0.00100923
0.00100921
0.0010092
0.0010092
0.0171013
0.00109233
0.00100943
0.00100923
0.00100924
0.00100923
0.00100923
0.00100923
0.00100923
0.00100923
0.00100923
0.00100923
0.00100923
0.00100923
0.00100922
0.00100922
0.00100921
0.00100923
0.00100923
0.00100923
0.0010092
0.00100923
0.00100923
0.00100923
0.00100919
0.00100923
0.00100923
0.0010092
0.00100921
0.0168188
0.00109068
0.0010094
0.00100924
0.00100924
0.00100924
0.00100924
0.00100923
0.00100924
0.00100924
0.00100924
0.00100924
0.00100923
0.00100924
0.00100922
0.00100923
0.00100923
0.00100924
0.00100924
0.00100924
0.00100921
0.00100924
0.00100924
0.00100924
0.0010092
0.00100924
0.00100923
0.00100919
0.00100923
0.0165104
0.00108916
0.00100936
0.00100924
0.00100924
0.00100924
0.00100924
0.00100924
0.00100924
0.00100924
0.00100924
0.00100924
0.00100924
0.00100924
0.00100923
0.00100924
0.00100924
0.00100924
0.00100924
0.00100924
0.00100922
0.00100924
0.00100924
0.00100924
0.00100922
0.00100924
0.00100924
0.00100919
0.00100924
0.0161746
0.00108785
0.00100932
0.00100925
0.00100924
0.00100924
0.00100924
0.00100925
0.00100925
0.00100925
0.00100925
0.00100925
0.00100925
0.00100925
0.00100925
0.00100925
0.00100924
0.00100925
0.00100925
0.00100924
0.00100923
0.00100925
0.00100925
0.00100924
0.00100922
0.00100924
0.00100924
0.00100921
0.00100925
0.0158099
0.00108686
0.00100927
0.00100926
0.00100925
0.00100925
0.00100925
0.00100925
0.00100925
0.00100925
0.00100925
0.00100925
0.00100925
0.00100926
0.00100926
0.00100925
0.00100925
0.00100925
0.00100925
0.00100925
0.00100924
0.00100925
0.00100925
0.00100925
0.00100922
0.00100924
0.00100924
0.00100924
0.00100925
0.0154152
0.0010863
0.00100921
0.00100927
0.00100926
0.00100926
0.00100926
0.00100926
0.00100927
0.00100926
0.00100927
0.00100927
0.00100927
0.00100926
0.00100926
0.00100926
0.00100926
0.00100927
0.00100926
0.00100926
0.00100925
0.00100926
0.00100926
0.00100926
0.00100923
0.00100925
0.00100926
0.00100925
0.00100925
0.0149898
0.00108631
0.00100915
0.00100929
0.00100928
0.00100928
0.00100928
0.00100928
0.00100929
0.00100929
0.00100929
0.00100928
0.00100928
0.00100927
0.00100928
0.00100928
0.00100927
0.00100928
0.00100928
0.00100927
0.00100925
0.00100928
0.00100928
0.00100928
0.00100928
0.00100928
0.00100928
0.00100924
0.00100925
0.0145333
0.00108708
0.00100909
0.00100931
0.0010093
0.0010093
0.0010093
0.0010093
0.0010093
0.0010093
0.0010093
0.00100929
0.00100929
0.00100929
0.00100929
0.00100929
0.00100928
0.00100929
0.00100929
0.00100929
0.00100928
0.00100931
0.00100931
0.0010093
0.0010093
0.0010093
0.00100929
0.00100925
0.00100926
0.0140458
0.00108873
0.00100903
0.00100934
0.00100933
0.00100933
0.00100933
0.00100933
0.00100933
0.00100933
0.00100932
0.00100932
0.00100932
0.00100932
0.00100932
0.00100931
0.00100932
0.00100933
0.00100933
0.00100933
0.00100933
0.00100933
0.00100932
0.00100932
0.00100929
0.00100932
0.00100932
0.00100931
0.00100928
0.0135278
0.00109145
0.00100898
0.00100939
0.00100937
0.00100937
0.00100937
0.00100937
0.00100937
0.00100937
0.00100937
0.00100937
0.00100937
0.00100937
0.00100936
0.00100935
0.00100938
0.00100938
0.00100938
0.00100938
0.00100937
0.00100933
0.00100933
0.00100932
0.00100931
0.00100935
0.00100935
0.00100934
0.00100932
0.0129806
0.00109539
0.00100895
0.00100945
0.00100943
0.00100943
0.00100943
0.00100942
0.00100943
0.00100943
0.00100943
0.00100942
0.00100942
0.00100942
0.00100942
0.00100941
0.00100943
0.00100943
0.00100943
0.00100943
0.00100941
0.00100938
0.00100937
0.00100936
0.00100938
0.00100939
0.00100939
0.00100938
0.00100938
0.0124062
0.00110065
0.00100895
0.00100953
0.00100951
0.00100951
0.00100949
0.00100949
0.0010095
0.0010095
0.0010095
0.00100948
0.0010095
0.0010095
0.0010095
0.00100948
0.00100951
0.00100948
0.00100949
0.00100949
0.00100948
0.00100948
0.00100947
0.00100946
0.00100946
0.00100946
0.00100946
0.00100945
0.00100945
0.0118072
0.00110731
0.00100903
0.00100963
0.00100961
0.0010096
0.00100958
0.00100959
0.00100959
0.00100958
0.00100958
0.00100959
0.00100959
0.00100959
0.00100958
0.00100956
0.0010096
0.00100959
0.00100959
0.00100959
0.00100959
0.00100959
0.00100958
0.00100958
0.00100958
0.00100957
0.00100955
0.00100954
0.00100953
0.0111869
0.00111541
0.00100919
0.00100977
0.00100974
0.00100973
0.0010097
0.00100971
0.00100971
0.00100971
0.0010097
0.0010097
0.00100971
0.00100971
0.00100972
0.00100971
0.00100973
0.00100973
0.00100973
0.00100973
0.00100972
0.00100971
0.0010097
0.00100969
0.00100967
0.00100966
0.00100965
0.00100964
0.00100964
0.0105496
0.00112489
0.00100948
0.00100995
0.00100991
0.00100989
0.00100985
0.00100988
0.00100989
0.00100989
0.00100989
0.0010099
0.0010099
0.0010099
0.00100991
0.00100991
0.00100991
0.00100989
0.00100988
0.00100986
0.00100983
0.00100982
0.00100981
0.00100979
0.00100979
0.00100978
0.00100979
0.00100979
0.00100977
0.00990006
0.00113537
0.00100996
0.00101018
0.00101011
0.0010101
0.00101007
0.00101013
0.00101013
0.00101013
0.00101013
0.0010101
0.0010101
0.00101011
0.00101011
0.00101011
0.0010101
0.00101009
0.00101008
0.00101005
0.00101002
0.00101002
0.00101
0.00101
0.00101
0.00100998
0.00100997
0.00100995
0.00100992
0.00924376
0.00114673
0.00101065
0.00101047
0.00101038
0.00101038
0.00101037
0.00101037
0.00101036
0.00101035
0.00101034
0.0010103
0.00101034
0.00101035
0.00101036
0.00101036
0.00101036
0.00101035
0.00101034
0.00101031
0.0010103
0.00101027
0.00101025
0.00101023
0.00101022
0.00101019
0.00101018
0.00101015
0.0010101
0.00858664
0.00115836
0.00101161
0.00101084
0.00101072
0.00101071
0.00101069
0.00101064
0.00101064
0.00101065
0.00101066
0.00101066
0.00101068
0.00101068
0.00101067
0.00101065
0.00101063
0.00101061
0.00101061
0.00101061
0.00101058
0.00101054
0.0010105
0.00101044
0.00101046
0.00101048
0.00101047
0.00101044
0.00101037
0.00793494
0.00117056
0.00101287
0.0010113
0.00101113
0.00101112
0.0010111
0.00101106
0.00101107
0.00101107
0.00101107
0.00101107
0.00101107
0.00101106
0.00101106
0.00101104
0.00101101
0.00101097
0.00101097
0.00101096
0.00101092
0.00101091
0.00101091
0.00101088
0.00101087
0.00101084
0.00101079
0.00101075
0.00101066
0.00729498
0.0011824
0.00101447
0.00101186
0.00101163
0.00101162
0.00101161
0.00101159
0.00101155
0.00101155
0.00101155
0.00101156
0.00101155
0.00101156
0.00101157
0.00101157
0.00101156
0.00101154
0.00101152
0.00101149
0.00101146
0.00101139
0.00101137
0.00101132
0.00101129
0.00101124
0.00101118
0.00101112
0.00101101
0.00667298
0.00119326
0.00101641
0.00101255
0.00101221
0.00101217
0.00101217
0.00101215
0.00101207
0.00101213
0.00101217
0.00101217
0.00101216
0.00101214
0.00101212
0.0010121
0.00101211
0.00101209
0.00101205
0.00101203
0.00101198
0.0010119
0.00101184
0.00101181
0.00101175
0.00101169
0.00101161
0.00101154
0.00101144
0.00607477
0.00120267
0.00101867
0.00101336
0.00101291
0.00101288
0.00101286
0.00101285
0.00101278
0.00101282
0.00101287
0.00101286
0.00101286
0.00101285
0.00101284
0.0010128
0.00101275
0.00101274
0.00101274
0.00101276
0.00101273
0.00101269
0.00101259
0.00101246
0.00101239
0.00101229
0.00101217
0.00101211
0.00101204
0.0055056
0.00121015
0.00102121
0.00101431
0.00101378
0.00101378
0.00101364
0.00101371
0.00101374
0.00101374
0.00101375
0.00101374
0.00101374
0.00101372
0.00101366
0.00101365
0.00101363
0.00101364
0.00101366
0.00101366
0.00101366
0.00101363
0.00101354
0.00101338
0.00101327
0.00101306
0.00101302
0.0010129
0.00101271
0.00496992
0.0012153
0.00102394
0.0010154
0.00101477
0.00101468
0.00101454
0.00101459
0.00101468
0.00101473
0.0010148
0.00101481
0.00101481
0.00101479
0.00101476
0.00101475
0.00101472
0.00101463
0.00101462
0.00101461
0.0010146
0.00101456
0.00101454
0.00101448
0.00101434
0.00101429
0.00101402
0.00101384
0.00101377
0.00447124
0.00121779
0.00102676
0.0010166
0.0010159
0.00101562
0.00101557
0.00101563
0.0010157
0.00101574
0.00101582
0.00101587
0.00101593
0.00101594
0.00101599
0.001016
0.00101598
0.00101593
0.00101588
0.00101584
0.00101577
0.00101577
0.00101575
0.00101572
0.0010157
0.00101553
0.00101543
0.00101529
0.00101481
0.00401202
0.00121736
0.00102952
0.00101791
0.00101708
0.00101673
0.00101671
0.00101678
0.00101685
0.00101689
0.00101696
0.00101702
0.00101711
0.00101715
0.00101723
0.00101738
0.00101744
0.00101751
0.00101749
0.00101746
0.00101742
0.00101733
0.00101738
0.00101738
0.00101719
0.00101728
0.00101699
0.00101672
0.00101672
0.00359365
0.00121398
0.00103211
0.00101936
0.00101828
0.00101799
0.00101798
0.00101805
0.00101813
0.00101819
0.00101827
0.00101835
0.00101844
0.00101852
0.00101861
0.00101871
0.0010189
0.00101896
0.00101926
0.00101933
0.00101914
0.0010192
0.00101907
0.00101898
0.00101919
0.00101878
0.00101892
0.00101888
0.00101811
0.00321647
0.00120775
0.00103443
0.00102088
0.00101953
0.00101933
0.00101933
0.00101942
0.00101952
0.00101961
0.00101972
0.00101983
0.00101996
0.00102008
0.0010202
0.00102037
0.00102047
0.00102076
0.00102083
0.00102103
0.00102149
0.00102124
0.00102123
0.00102127
0.00102081
0.00102122
0.0010208
0.00102046
0.00102075
0.00287987
0.00119891
0.00103641
0.00102241
0.00102086
0.0010207
0.00102073
0.00102086
0.00102099
0.00102113
0.00102128
0.00102145
0.00102163
0.00102181
0.00102204
0.00102216
0.00102251
0.00102261
0.0010229
0.00102324
0.00102327
0.00102389
0.00102388
0.00102362
0.0010239
0.00102322
0.00102358
0.00102348
0.00102267
0.00258241
0.00118781
0.0010379
0.00102392
0.00102225
0.00102211
0.00102217
0.00102233
0.00102251
0.0010227
0.00102292
0.00102316
0.00102341
0.00102371
0.00102393
0.00102438
0.00102451
0.00102501
0.00102521
0.00102541
0.0010262
0.00102614
0.00102671
0.001027
0.00102644
0.00102712
0.00102623
0.00102644
0.00102644
0.00232202
0.00117493
0.00103886
0.00102536
0.00102364
0.00102353
0.0010236
0.00102383
0.00102406
0.00102432
0.00102461
0.00102493
0.00102529
0.00102564
0.00102613
0.0010264
0.00102713
0.00102733
0.0010279
0.00102855
0.00102856
0.00102971
0.00102954
0.00103006
0.00103125
0.00103013
0.00103113
0.00103012
0.00102964
0.00209611
0.00116078
0.0010395
0.0010267
0.00102501
0.00102493
0.00102503
0.00102531
0.00102561
0.00102594
0.00102631
0.00102673
0.00102719
0.00102771
0.0010282
0.00102895
0.00102933
0.00103031
0.00103077
0.00103126
0.00103274
0.00103245
0.00103421
0.001034
0.00103407
0.0010357
0.00103469
0.00103573
0.00103528
0.00190182
0.00114594
0.00103977
0.00102792
0.00102633
0.00102628
0.00102641
0.00102676
0.00102712
0.00102754
0.00102799
0.00102853
0.00102908
0.00102977
0.00103044
0.00103122
0.00103218
0.00103279
0.00103417
0.00103499
0.00103539
0.00103787
0.00103739
0.00103906
0.00104013
0.00103969
0.00104126
0.00104035
0.00104077
0.00173613
0.00113097
0.00103964
0.001029
0.00102758
0.00102756
0.00102774
0.00102814
0.00102858
0.00102907
0.00102963
0.00103024
0.00103103
0.00103165
0.00103284
0.00103346
0.00103477
0.00103623
0.00103668
0.00103862
0.00104081
0.00104087
0.00104382
0.00104382
0.0010446
0.00104744
0.00104666
0.0010482
0.00104783
0.00159599
0.00111635
0.00103926
0.00102995
0.00102874
0.00102875
0.00102897
0.00102944
0.00102994
0.00103052
0.00103116
0.00103197
0.00103265
0.00103396
0.00103458
0.00103622
0.00103743
0.00103825
0.00104137
0.00104227
0.0010434
0.00104694
0.00104789
0.00105169
0.00105187
0.00105247
0.00105613
0.00105532
0.00105619
0.00147846
0.00110251
0.0010387
0.00103077
0.00102979
0.00102984
0.00103011
0.00103063
0.00103121
0.00103185
0.00103264
0.0010334
0.00103466
0.00103533
0.00103719
0.0010381
0.00103956
0.00104267
0.0010435
0.00104615
0.00104889
0.00105075
0.00105469
0.00105602
0.0010616
0.00106307
0.00106308
0.00106655
0.00106663
0.00138073
0.00108978
0.00103803
0.00103146
0.00103073
0.00103081
0.00103114
0.00103172
0.00103235
0.00103309
0.00103389
0.00103502
0.00103579
0.00103768
0.0010385
0.00104061
0.00104275
0.00104389
0.00104771
0.00104939
0.00105287
0.00105675
0.00105948
0.00106588
0.00106765
0.00107205
0.00107821
0.00107699
0.00107908
0.00130021
0.00107835
0.00103732
0.00103205
0.00103155
0.00103166
0.00103205
0.00103267
0.00103337
0.00103415
0.00103515
0.00103604
0.00103771
0.0010386
0.00104092
0.00104231
0.00104392
0.00104821
0.00104957
0.00105363
0.00105813
0.00106063
0.00106627
0.00107031
0.00108004
0.00108298
0.0010863
0.00109592
0.00109594
0.00123454
0.00106835
0.00103662
0.00103254
0.00103225
0.00103239
0.00103285
0.0010335
0.00103424
0.00103513
0.00103608
0.00103743
0.00103841
0.00104058
0.00104184
0.00104402
0.00104764
0.00104887
0.00105385
0.00105664
0.00106003
0.00106739
0.0010722
0.00108167
0.00108572
0.00109814
0.00110308
0.00110824
0.0011166
0.00118161
0.00105982
0.00103598
0.00103295
0.00103283
0.00103299
0.00103353
0.00103421
0.001035
0.00103591
0.00103704
0.00103817
0.00103991
0.00104123
0.00104334
0.00104626
0.00104775
0.00105265
0.00105481
0.00106029
0.00106483
0.00106999
0.0010805
0.001086
0.00110013
0.00110686
0.00112286
0.00113295
0.00113701
0.00113953
0.00105271
0.00103543
0.00103328
0.00103327
0.0010335
0.0010341
0.0010348
0.00103562
0.00103659
0.00103776
0.001039
0.00104083
0.00104203
0.00104532
0.0010465
0.00105081
0.00105282
0.00105823
0.00106174
0.00106931
0.00107386
0.00108443
0.00109276
0.00110398
0.0011281
0.00114045
0.00114996
0.00117876
0.00110664
0.00104695
0.00103496
0.00103355
0.0010336
0.00103392
0.00103454
0.00103527
0.00103613
0.00103716
0.00103831
0.00103984
0.00104117
0.0010437
0.00104516
0.00104864
0.00105131
0.00105418
0.00105976
0.00106459
0.00106974
0.0010808
0.00108702
0.00110326
0.00111503
0.0011316
0.00116778
0.00118693
0.00120291
0.00108149
0.00104242
0.00103455
0.00103375
0.00103387
0.00103425
0.00103489
0.00103565
0.00103654
0.00103755
0.00103894
0.00104
0.00104249
0.00104357
0.00104707
0.00104856
0.00105276
0.00105519
0.00106196
0.00106521
0.00107357
0.00107936
0.00109614
0.00110504
0.00113099
0.00114543
0.00117493
0.00122453
0.0012701
0.00106282
0.00103899
0.00103424
0.00103392
0.00103407
0.00103452
0.00103518
0.00103596
0.00103686
0.00103797
0.00103915
0.00104083
0.00104228
0.00104467
0.00104706
0.00104889
0.00105516
0.0010566
0.0010635
0.00106724
0.00107607
0.00108241
0.00109431
0.00111245
0.00113159
0.00114953
0.00119558
0.00123771
0.00132644
0.00104947
0.00103648
0.00103401
0.00103398
0.00103416
0.00103468
0.00103532
0.0010361
0.001037
0.00103811
0.00103936
0.00104086
0.00104271
0.00104443
0.00104738
0.0010495
0.00105417
0.0010567
0.00106482
0.00106709
0.0010787
0.00108329
0.00109517
0.00110207
0.00110625
0.00109459
0.00104639
0.00103476
0.00106315
0.00104075
0.00103485
0.00103403
0.00103418
0.0010346
0.00103527
0.00103611
0.00103716
0.00103841
0.00103999
0.00104174
0.00104371
0.00104662
0.00104787
0.00105069
0.00105088
0.00104677
0.00103591
0.00101018
0.000988447
0.00104118
0.00112416
0.00165062
0.002103
0.00388961
0.0049949
0.00919188
0.0104664
0.0107623
0.00103519
0.00103544
0.00103789
0.00104329
0.00105126
0.00106229
0.0010768
0.00109481
0.00111506
0.00114059
0.00116528
0.00121448
0.00133592
0.00143706
0.00188884
0.00222937
0.00327186
0.00399874
0.00662125
0.00820574
0.0133012
0.0164648
0.0259555
0.0316874
0.0477148
0.0565041
0.0815599
0.090047
0.10032
0.00103952
0.00109067
0.00120942
0.00139657
0.00166122
0.00201914
0.00249036
0.00310215
0.00388276
0.00490346
0.00613127
0.00780152
0.0100751
0.0118111
0.0164851
0.0192292
0.0258461
0.02991
0.0406793
0.0468767
0.0620377
0.0711793
0.0927497
0.10614
0.136949
0.156425
0.203296
0.22799
0.270186
5.78842e-005
5.78842e-005
5.78842e-005
5.78843e-005
5.78843e-005
5.78843e-005
5.78843e-005
5.78844e-005
5.78844e-005
5.78844e-005
5.78845e-005
5.78845e-005
5.78846e-005
5.78846e-005
5.78846e-005
5.78847e-005
5.78847e-005
5.78848e-005
5.78848e-005
5.78848e-005
5.78849e-005
5.78849e-005
5.7885e-005
5.7885e-005
5.78851e-005
5.78851e-005
5.78852e-005
5.78852e-005
5.78853e-005
5.78853e-005
5.78854e-005
5.78854e-005
5.78855e-005
5.78855e-005
5.78855e-005
5.78856e-005
5.78856e-005
5.78857e-005
5.78857e-005
5.78858e-005
5.78858e-005
5.78859e-005
5.78859e-005
5.7886e-005
5.7886e-005
5.78861e-005
5.78861e-005
5.78862e-005
5.78862e-005
5.78863e-005
5.78863e-005
5.78864e-005
5.78864e-005
5.78865e-005
5.78865e-005
5.78866e-005
5.78866e-005
5.78867e-005
5.78867e-005
5.78867e-005
5.78868e-005
5.78868e-005
5.78869e-005
5.78869e-005
5.7887e-005
5.7887e-005
5.7887e-005
5.78871e-005
5.78871e-005
5.78872e-005
5.78872e-005
5.78872e-005
5.78873e-005
5.78873e-005
5.78873e-005
5.78874e-005
5.78874e-005
5.78874e-005
5.78875e-005
5.78875e-005
5.78876e-005
5.78876e-005
5.78876e-005
5.78876e-005
5.78877e-005
5.78877e-005
5.78877e-005
5.78878e-005
5.78878e-005
5.78878e-005
5.78878e-005
5.78879e-005
5.78879e-005
5.78879e-005
5.7888e-005
5.7888e-005
5.7888e-005
5.7888e-005
5.7888e-005
5.78881e-005
5.78881e-005
5.78881e-005
5.78881e-005
5.78882e-005
5.78882e-005
5.78882e-005
5.78882e-005
5.78882e-005
5.78883e-005
5.78883e-005
5.78883e-005
5.78883e-005
5.78883e-005
5.78884e-005
5.78884e-005
5.78884e-005
5.78884e-005
5.78884e-005
5.78885e-005
5.78885e-005
5.78885e-005
5.78885e-005
5.78886e-005
5.78886e-005
5.78886e-005
5.78886e-005
5.78887e-005
5.78887e-005
5.78887e-005
5.78888e-005
5.78888e-005
5.78888e-005
5.78889e-005
5.78889e-005
5.7889e-005
5.78891e-005
5.78891e-005
5.78868e-005
5.69607e-005
9.51339e-006
9.51318e-006
9.51298e-006
9.51281e-006
9.51266e-006
9.51245e-006
9.51226e-006
9.51205e-006
9.51182e-006
9.51158e-006
9.51134e-006
9.51109e-006
9.51083e-006
9.51057e-006
9.5103e-006
9.51001e-006
9.50974e-006
9.50941e-006
9.50915e-006
9.50885e-006
9.50857e-006
9.50823e-006
9.5079e-006
9.5076e-006
9.50727e-006
9.50696e-006
9.50663e-006
9.50629e-006
9.50597e-006
9.50563e-006
9.5053e-006
9.50494e-006
9.50462e-006
9.50428e-006
9.50394e-006
9.50359e-006
9.50327e-006
9.50292e-006
9.5026e-006
9.50224e-006
9.50189e-006
9.50155e-006
9.50122e-006
9.50084e-006
9.50053e-006
9.50016e-006
9.49986e-006
9.49951e-006
9.49918e-006
9.49886e-006
9.49854e-006
9.49822e-006
9.4979e-006
9.49759e-006
9.49728e-006
9.49696e-006
9.49665e-006
9.49635e-006
9.49601e-006
9.49571e-006
9.49544e-006
9.49516e-006
9.49486e-006
9.49458e-006
9.4943e-006
9.49403e-006
9.49371e-006
9.49348e-006
9.49319e-006
9.49293e-006
9.49267e-006
9.49242e-006
9.49217e-006
9.49191e-006
9.49167e-006
9.49143e-006
9.49118e-006
9.49095e-006
9.49072e-006
9.4905e-006
9.49028e-006
9.49006e-006
9.48985e-006
9.4896e-006
9.48943e-006
9.48923e-006
9.48906e-006
9.48883e-006
9.48864e-006
9.48845e-006
9.48826e-006
9.48805e-006
9.48792e-006
9.48771e-006
9.48757e-006
9.48741e-006
9.48728e-006
9.48709e-006
9.48693e-006
9.48678e-006
9.48662e-006
9.48646e-006
9.48633e-006
9.48619e-006
9.48606e-006
9.48593e-006
9.48575e-006
9.48565e-006
9.48553e-006
9.48541e-006
9.48528e-006
9.48519e-006
9.48504e-006
9.48489e-006
9.48479e-006
9.48467e-006
9.48457e-006
9.48445e-006
9.48434e-006
9.48418e-006
9.4841e-006
9.48397e-006
9.48386e-006
9.48372e-006
9.48357e-006
9.48346e-006
9.48334e-006
9.4832e-006
9.48301e-006
9.48289e-006
9.48269e-006
9.48255e-006
9.48232e-006
9.48216e-006
9.48192e-006
9.48171e-006
9.48142e-006
9.5878e-006
0.0001896
0.000209427
0.000209413
0.000209396
0.000209379
0.000209362
0.000209343
0.000209324
0.000209304
0.000209283
0.000209262
0.00020924
0.000209217
0.000209194
0.00020917
0.000209146
0.000209121
0.000209096
0.000209069
0.000209044
0.000209018
0.000208992
0.000208963
0.000208936
0.000208908
0.00020888
0.000208852
0.000208824
0.000208794
0.000208766
0.000208737
0.000208708
0.000208678
0.000208648
0.000208619
0.00020859
0.00020856
0.00020853
0.0002085
0.000208471
0.000208441
0.000208412
0.000208382
0.000208353
0.000208322
0.000208294
0.000208264
0.000208236
0.000208206
0.000208178
0.00020815
0.000208122
0.000208094
0.000208066
0.000208039
0.000208012
0.000207985
0.000207958
0.000207932
0.000207904
0.000207878
0.000207854
0.000207828
0.000207803
0.000207778
0.000207754
0.00020773
0.000207705
0.000207683
0.000207659
0.000207636
0.000207614
0.000207591
0.00020757
0.000207548
0.000207527
0.000207506
0.000207485
0.000207465
0.000207445
0.000207426
0.000207407
0.000207388
0.000207369
0.000207351
0.000207334
0.000207316
0.0002073
0.000207282
0.000207265
0.000207249
0.000207233
0.000207217
0.000207203
0.000207187
0.000207174
0.00020716
0.000207146
0.000207132
0.000207119
0.000207106
0.000207092
0.00020708
0.000207068
0.000207056
0.000207044
0.000207033
0.000207021
0.00020701
0.000207
0.00020699
0.000206979
0.00020697
0.00020696
0.000206949
0.00020694
0.000206931
0.000206922
0.000206913
0.000206904
0.000206894
0.000206886
0.000206877
0.000206869
0.00020686
0.00020685
0.000206842
0.000206834
0.000206825
0.000206815
0.000206807
0.000206797
0.000206789
0.000206778
0.000206769
0.000206758
0.000206748
0.000206737
0.000214275
0.00324914
0.000815273
0.000815254
0.000815236
0.000815217
0.000815199
0.000815178
0.000815157
0.000815136
0.000815113
0.00081509
0.000815068
0.000815043
0.000815018
0.000814993
0.000814967
0.000814941
0.000814915
0.000814888
0.000814861
0.000814832
0.000814805
0.000814776
0.000814746
0.000814717
0.000814687
0.000814658
0.000814628
0.000814598
0.000814568
0.000814537
0.000814507
0.000814477
0.000814446
0.000814414
0.000814383
0.00081435
0.000814321
0.000814289
0.000814259
0.000814227
0.000814194
0.000814164
0.000814133
0.000814104
0.000814074
0.000814043
0.000814011
0.000813981
0.00081395
0.000813922
0.000813891
0.000813864
0.000813834
0.000813805
0.000813777
0.000813748
0.000813721
0.000813692
0.000813667
0.000813639
0.000813611
0.000813586
0.00081356
0.000813535
0.000813508
0.000813484
0.000813458
0.000813433
0.00081341
0.000813387
0.000813363
0.000813341
0.000813317
0.000813294
0.000813272
0.000813251
0.00081323
0.00081321
0.000813188
0.000813168
0.000813148
0.000813129
0.00081311
0.00081309
0.000813071
0.000813053
0.000813036
0.00081302
0.000813003
0.000812985
0.00081297
0.000812954
0.000812938
0.000812922
0.000812909
0.000812893
0.000812878
0.000812864
0.00081285
0.000812838
0.000812824
0.000812813
0.000812799
0.000812788
0.000812775
0.000812764
0.000812752
0.000812742
0.000812731
0.00081272
0.000812711
0.000812701
0.00081269
0.000812681
0.000812672
0.000812663
0.000812654
0.000812645
0.000812637
0.000812628
0.000812621
0.000812612
0.000812604
0.000812598
0.000812589
0.000812582
0.000812574
0.000812566
0.000812558
0.000812551
0.000812543
0.000812537
0.000812528
0.000812521
0.000812513
0.000812507
0.000812533
0.000833351
0.00658972
0.00097535
0.000975341
0.000975336
0.000975328
0.000975321
0.000975314
0.000975306
0.000975298
0.000975292
0.000975282
0.000975275
0.000975266
0.000975258
0.00097525
0.000975238
0.000975229
0.00097522
0.000975212
0.0009752
0.000975193
0.000975182
0.000975172
0.000975162
0.000975153
0.000975142
0.000975132
0.000975123
0.00097511
0.000975099
0.000975089
0.000975076
0.000975066
0.000975054
0.000975045
0.000975031
0.000975024
0.000975013
0.000975001
0.00097499
0.000974975
0.000974968
0.000974957
0.000974947
0.000974936
0.000974923
0.000974912
0.000974906
0.000974894
0.000974883
0.000974873
0.000974864
0.000974853
0.000974844
0.000974834
0.000974822
0.000974814
0.0009748
0.000974797
0.000974786
0.00097477
0.000974766
0.000974759
0.000974751
0.000974739
0.000974733
0.000974721
0.000974714
0.000974706
0.000974697
0.000974688
0.000974682
0.000974672
0.000974666
0.000974656
0.00097465
0.000974644
0.000974636
0.000974627
0.000974621
0.000974615
0.000974607
0.000974599
0.000974593
0.000974584
0.000974581
0.000974576
0.00097457
0.000974563
0.000974558
0.000974552
0.000974546
0.000974537
0.000974534
0.000974527
0.000974522
0.000974515
0.000974514
0.000974509
0.000974506
0.000974497
0.000974495
0.000974488
0.00097449
0.000974481
0.000974482
0.000974473
0.000974472
0.000974466
0.000974466
0.000974464
0.000974459
0.000974452
0.000974451
0.000974447
0.000974445
0.000974443
0.000974441
0.000974439
0.000974433
0.000974433
0.000974428
0.000974425
0.000974425
0.000974418
0.000974417
0.000974413
0.000974415
0.000974413
0.000974412
0.00097441
0.000974409
0.000974403
0.000974405
0.000974404
0.0009744
0.000974394
0.00097444
0.000992203
0.00750493
0.00100447
0.00100447
0.00100447
0.00100447
0.00100447
0.00100447
0.00100447
0.00100447
0.00100446
0.00100446
0.00100446
0.00100445
0.00100445
0.00100445
0.00100445
0.00100444
0.00100444
0.00100443
0.00100444
0.00100444
0.00100443
0.00100443
0.00100443
0.00100443
0.00100442
0.00100442
0.00100442
0.00100441
0.00100441
0.00100441
0.00100441
0.0010044
0.0010044
0.0010044
0.0010044
0.0010044
0.00100439
0.00100439
0.00100438
0.00100439
0.00100439
0.00100437
0.00100438
0.00100438
0.00100437
0.00100437
0.00100437
0.00100436
0.00100436
0.00100436
0.00100436
0.00100436
0.00100435
0.00100435
0.00100435
0.00100435
0.00100435
0.00100434
0.00100434
0.00100434
0.00100433
0.00100434
0.00100433
0.00100434
0.00100433
0.00100433
0.00100433
0.00100432
0.00100432
0.00100432
0.00100432
0.00100432
0.00100432
0.00100431
0.00100431
0.00100431
0.0010043
0.0010043
0.0010043
0.0010043
0.0010043
0.0010043
0.00100429
0.0010043
0.0010043
0.00100429
0.00100429
0.00100429
0.00100429
0.00100429
0.00100428
0.00100428
0.00100428
0.00100428
0.00100428
0.00100428
0.00100428
0.00100428
0.00100428
0.00100428
0.00100427
0.00100428
0.00100427
0.00100427
0.00100426
0.00100427
0.00100427
0.00100427
0.00100427
0.00100426
0.00100426
0.00100427
0.00100427
0.00100426
0.00100426
0.00100426
0.00100426
0.00100426
0.00100426
0.00100425
0.00100426
0.00100426
0.00100426
0.00100426
0.00100426
0.00100426
0.00100425
0.00100426
0.00100426
0.00100425
0.00100426
0.00100426
0.00100426
0.00100425
0.00100425
0.00100426
0.00100431
0.00102155
0.00776574
0.00100865
0.00100864
0.00100864
0.00100864
0.00100864
0.00100864