/*--------------------------------*- C++ -*----------------------------------*\
| =========                 |                                                 |
| \\      /  F ield         | OpenFOAM: The Open Source CFD Toolbox           |
|  \\    /   O peration     | Version:  5.x                                   |
|   \\  /    A nd           | Web:      www.OpenFOAM.org                      |
|    \\/     M anipulation  |                                                 |
\*---------------------------------------------------------------------------*/
/*   Windows 32 and 64 bit porting by blueCAPE: http://www.bluecape.com.pt   *\
|  Based on Windows porting (2.0.x v4) by Symscape: http://www.symscape.com   |
\*---------------------------------------------------------------------------*/
FoamFile
{
    version     2.0;
    format      ascii;
    class       volScalarField;
    location    "20";
    object      p;
}
// * * * * * * * * * * * * * * * * * * * * * * * * * * * * * * * * * * * * * //

dimensions      [0 2 -2 0 0 0 0];

internalField   nonuniform List<scalar> 
43900
(
0.478456
0.478281
0.478202
0.478084
0.477967
0.477845
0.477717
0.477584
0.477445
0.4773
0.477151
0.476995
0.476834
0.476667
0.476494
0.476316
0.476132
0.475943
0.475748
0.475547
0.47534
0.475128
0.474911
0.474687
0.474459
0.474224
0.473985
0.47374
0.47349
0.428456
0.428751
0.428547
0.428489
0.428397
0.428297
0.428187
0.42807
0.427944
0.427811
0.42767
0.427522
0.427366
0.427204
0.427035
0.426859
0.426677
0.426488
0.426292
0.426091
0.425883
0.425669
0.425449
0.425223
0.424992
0.424754
0.424511
0.424263
0.424009
0.43146
0.431886
0.431466
0.431399
0.431233
0.431075
0.430914
0.430751
0.430585
0.430415
0.430241
0.430062
0.429878
0.42969
0.429496
0.429296
0.42909
0.428879
0.428662
0.428438
0.428208
0.427972
0.427729
0.42748
0.427224
0.426963
0.426694
0.42642
0.426141
0.444889
0.445004
0.444831
0.444754
0.444646
0.444534
0.444414
0.444287
0.444152
0.444009
0.443857
0.443698
0.44353
0.443355
0.44317
0.442977
0.442776
0.442565
0.442346
0.442117
0.441878
0.44163
0.441372
0.441102
0.440824
0.440538
0.440246
0.43995
0.439649
0.443071
0.443161
0.443141
0.443134
0.443104
0.443061
0.443004
0.442933
0.442849
0.442753
0.442645
0.442526
0.442396
0.442256
0.442106
0.441947
0.441779
0.441603
0.441419
0.441229
0.441033
0.440832
0.440627
0.440415
0.44019
0.439947
0.439685
0.439402
0.439103
0.442709
0.442699
0.442666
0.442628
0.442575
0.442508
0.442429
0.442336
0.44223
0.442111
0.441978
0.441832
0.441673
0.4415
0.441314
0.441115
0.440903
0.440677
0.440438
0.440185
0.439918
0.439638
0.439342
0.439036
0.438724
0.438409
0.438089
0.437763
0.437427
0.449252
0.449227
0.449193
0.449147
0.449085
0.449006
0.448911
0.448801
0.448674
0.448531
0.448373
0.448199
0.448009
0.447803
0.447581
0.447344
0.447091
0.446823
0.446539
0.446239
0.445924
0.445594
0.445249
0.444888
0.444513
0.444125
0.443725
0.443313
0.442891
0.457534
0.457505
0.45747
0.457418
0.457348
0.457259
0.457151
0.457025
0.45688
0.456717
0.456535
0.456335
0.456116
0.45588
0.455626
0.455354
0.455064
0.454757
0.454433
0.454092
0.453734
0.45336
0.452969
0.452563
0.452141
0.451704
0.451252
0.450785
0.450303
0.465505
0.465472
0.46543
0.465369
0.465286
0.465181
0.465055
0.464907
0.464737
0.464545
0.464333
0.464099
0.463843
0.463567
0.46327
0.462952
0.462614
0.462256
0.461878
0.46148
0.461063
0.460626
0.460171
0.459697
0.459204
0.458693
0.458165
0.457619
0.457056
0.474217
0.474177
0.474127
0.474054
0.473955
0.473831
0.473681
0.473505
0.473303
0.473077
0.472824
0.472547
0.472245
0.471918
0.471567
0.471192
0.470792
0.470369
0.469922
0.469452
0.468959
0.468444
0.467906
0.467346
0.466765
0.466163
0.46554
0.464896
0.464233
0.484186
0.484139
0.484079
0.483992
0.483875
0.483726
0.483547
0.483338
0.483098
0.482827
0.482527
0.482197
0.481838
0.481449
0.481032
0.480585
0.48011
0.479608
0.479077
0.478519
0.477935
0.477324
0.476686
0.476023
0.475335
0.474622
0.473885
0.473124
0.47234
0.495365
0.49531
0.495238
0.495134
0.494994
0.494816
0.494603
0.494352
0.494066
0.493744
0.493386
0.492993
0.492564
0.492101
0.491604
0.491072
0.490507
0.489909
0.489278
0.488615
0.487921
0.487195
0.486439
0.485653
0.484837
0.483992
0.483119
0.482219
0.481292
0.507747
0.507682
0.507596
0.507472
0.507304
0.507092
0.506836
0.506538
0.506196
0.505811
0.505384
0.504915
0.504404
0.503852
0.503259
0.502627
0.501954
0.501242
0.500492
0.499704
0.498879
0.498017
0.49712
0.496187
0.49522
0.49422
0.493186
0.492121
0.491025
0.521378
0.521302
0.521199
0.52105
0.520849
0.520596
0.520291
0.519934
0.519526
0.519067
0.518557
0.517998
0.517389
0.516731
0.516025
0.515272
0.514471
0.513625
0.512733
0.511797
0.510817
0.509795
0.50873
0.507625
0.50648
0.505296
0.504074
0.502815
0.501521
0.536305
0.536216
0.536094
0.535916
0.535675
0.535373
0.535009
0.534583
0.534096
0.533549
0.532941
0.532275
0.53155
0.530767
0.529926
0.52903
0.528079
0.527073
0.526014
0.524903
0.523741
0.522529
0.521268
0.51996
0.518606
0.517206
0.515764
0.514278
0.512752
0.552573
0.552468
0.552322
0.552109
0.551823
0.551462
0.551028
0.55052
0.54994
0.549288
0.548566
0.547772
0.54691
0.545979
0.544981
0.543917
0.542787
0.541594
0.540339
0.539023
0.537647
0.536213
0.534722
0.533176
0.531577
0.529927
0.528226
0.526477
0.524682
0.570218
0.570096
0.569922
0.569668
0.569327
0.568897
0.56838
0.567777
0.567087
0.566312
0.565453
0.564511
0.563487
0.562383
0.561199
0.559938
0.5586
0.557187
0.555702
0.554145
0.55252
0.550826
0.549068
0.547245
0.545362
0.543419
0.541419
0.539365
0.537257
0.589274
0.589131
0.588924
0.588623
0.588217
0.587707
0.587093
0.586376
0.585558
0.584639
0.583621
0.582504
0.581292
0.579984
0.578583
0.577092
0.57551
0.573842
0.572089
0.570253
0.568336
0.566342
0.564272
0.562129
0.559916
0.557636
0.55529
0.552883
0.550416
0.609763
0.609596
0.609351
0.608994
0.608513
0.607908
0.607182
0.606333
0.605365
0.604278
0.603074
0.601755
0.600323
0.598779
0.597126
0.595367
0.593503
0.591538
0.589474
0.587314
0.585062
0.582719
0.58029
0.577777
0.575185
0.572516
0.569773
0.566961
0.564083
0.631698
0.631504
0.631215
0.630792
0.630224
0.62951
0.628652
0.627652
0.62651
0.625228
0.623809
0.622255
0.620568
0.618751
0.616807
0.614739
0.612549
0.610241
0.607819
0.605287
0.602647
0.599904
0.597063
0.594126
0.591098
0.587984
0.584787
0.581513
0.578165
0.655074
0.654851
0.65451
0.654013
0.653344
0.652504
0.651495
0.650319
0.648976
0.647471
0.645805
0.64398
0.642001
0.63987
0.637591
0.635168
0.632604
0.629904
0.627071
0.624112
0.621029
0.617829
0.614516
0.611095
0.607571
0.60395
0.600237
0.596437
0.592557
0.679871
0.679614
0.679215
0.678632
0.677848
0.676864
0.675682
0.674305
0.672734
0.670973
0.669024
0.666891
0.664578
0.662089
0.659428
0.656599
0.653609
0.650461
0.647161
0.643716
0.64013
0.636409
0.632561
0.62859
0.624504
0.620309
0.616012
0.61162
0.607139
0.706044
0.70575
0.705285
0.704604
0.70369
0.702543
0.701165
0.69956
0.69773
0.695679
0.69341
0.690928
0.688236
0.685341
0.682248
0.678961
0.675488
0.671833
0.668005
0.66401
0.659855
0.655547
0.651094
0.646503
0.641784
0.636943
0.631989
0.62693
0.621776
0.733525
0.73319
0.732651
0.731861
0.7308
0.72947
0.727873
0.726012
0.723891
0.721514
0.718886
0.716011
0.712895
0.709544
0.705965
0.702163
0.698147
0.693924
0.689502
0.684889
0.680095
0.675127
0.669996
0.664711
0.659282
0.653717
0.648029
0.642226
0.636319
0.762216
0.761837
0.761216
0.760305
0.759081
0.757548
0.755707
0.753563
0.751119
0.74838
0.745353
0.742041
0.738453
0.734594
0.730473
0.726098
0.721477
0.71662
0.711536
0.706235
0.700727
0.695024
0.689137
0.683078
0.676857
0.670487
0.663981
0.657351
0.650609
0.791991
0.791564
0.790855
0.78981
0.788409
0.786652
0.784544
0.782088
0.77929
0.776154
0.772687
0.768895
0.764786
0.760368
0.75565
0.750641
0.745352
0.739793
0.733976
0.727912
0.721615
0.715098
0.708373
0.701455
0.694358
0.687096
0.679685
0.67214
0.664476
0.82269
0.822214
0.821408
0.82022
0.818626
0.816628
0.814231
0.811438
0.808255
0.804687
0.800742
0.796428
0.791751
0.786723
0.781352
0.77565
0.769628
0.7633
0.756678
0.749777
0.742611
0.735197
0.727549
0.719685
0.711622
0.703378
0.69497
0.686418
0.67774
0.854123
0.853595
0.852687
0.851346
0.849547
0.847293
0.844587
0.841434
0.837839
0.83381
0.829352
0.824475
0.819187
0.8135
0.807423
0.80097
0.794154
0.786988
0.77949
0.771674
0.763559
0.755163
0.746505
0.737605
0.728482
0.71916
0.709659
0.700003
0.690213
0.886068
0.885488
0.884474
0.882973
0.88096
0.878436
0.875406
0.871875
0.867847
0.863329
0.858328
0.852854
0.846916
0.840525
0.833693
0.826434
0.818763
0.810695
0.802249
0.793443
0.784298
0.774835
0.765076
0.755044
0.744766
0.734266
0.723571
0.712707
0.701704
0.91828
0.917647
0.916524
0.91486
0.912626
0.909825
0.906461
0.902538
0.89806
0.893034
0.887467
0.881368
0.874747
0.867614
0.859983
0.851869
0.843286
0.834254
0.824791
0.81492
0.804663
0.794045
0.783093
0.771834
0.760298
0.748516
0.736519
0.724341
0.712015
0.950489
0.949805
0.948574
0.946744
0.944289
0.941208
0.937505
0.933183
0.928247
0.922701
0.916553
0.909809
0.902479
0.894574
0.886108
0.877094
0.86755
0.857495
0.84695
0.83594
0.824491
0.812632
0.800392
0.787805
0.774905
0.76173
0.748319
0.73471
0.720945
0.982413
0.98168
0.980343
0.978351
0.975677
0.972319
0.96828
0.963562
0.958166
0.952098
0.945361
0.937961
0.929908
0.92121
0.911879
0.90193
0.891381
0.880251
0.868563
0.856345
0.843624
0.830434
0.81681
0.802789
0.788416
0.773731
0.758782
0.743621
0.72829
1.01377
1.01299
1.01155
1.0094
1.00652
1.00289
0.998525
0.99342
0.987574
0.980989
0.973667
0.965612
0.956829
0.947326
0.937113
0.926203
0.914612
0.902361
0.889475
0.87598
0.861909
0.8473
0.83219
0.81663
0.800661
0.784341
0.767729
0.750872
0.733846
1.04426
1.04345
1.04191
1.03962
1.03654
1.03266
1.02798
1.02251
1.01623
1.00914
1.00125
0.992551
0.983045
0.972736
0.961632
0.949744
0.937085
0.923675
0.909538
0.894703
0.879205
0.863083
0.846392
0.829164
0.811485
0.793394
0.77496
0.756288
0.737393
1.07364
1.07279
1.07117
1.06875
1.06548
1.06137
1.05641
1.05059
1.0439
1.03634
1.0279
1.01858
1.00837
0.997263
0.985272
0.972398
0.958653
0.944052
0.928621
0.912384
0.895381
0.877665
0.859258
0.840277
0.820716
0.800707
0.780335
0.759605
0.73874
1.10166
1.10077
1.09909
1.09655
1.09312
1.0888
1.08358
1.07745
1.07039
1.06239
1.05343
1.04352
1.03262
1.02075
1.00788
0.994026
0.979183
0.963374
0.946602
0.928913
0.910334
0.890896
0.870729
0.849761
0.828251
0.806149
0.783563
0.760777
0.737602
1.1281
1.1272
1.12545
1.12281
1.11925
1.11475
1.1093
1.10289
1.09549
1.08709
1.07767
1.0672
1.05566
1.04304
1.02933
1.0145
0.998573
0.981522
0.963401
0.944184
0.923947
0.90276
0.880545
0.857669
0.833857
0.809503
0.784684
0.759243
0.733869
1.15281
1.15189
1.15009
1.14737
1.1437
1.13905
1.13341
1.12676
1.11907
1.11031
1.10046
1.08949
1.07735
1.06403
1.0495
1.03374
1.0167
0.998454
0.978889
0.958161
0.936183
0.913007
0.888936
0.86356
0.837613
0.810702
0.783101
0.755363
0.727111
1.17566
1.17473
1.1729
1.17012
1.16635
1.16158
1.15578
1.14893
1.14099
1.13193
1.1217
1.11027
1.09759
1.08362
1.06831
1.05162
1.03357
1.01401
0.993146
0.97069
0.94695
0.921884
0.895262
0.867819
0.839153
0.809594
0.779338
0.748125
0.717363
1.19657
1.19565
1.19379
1.19096
1.18712
1.18226
1.17634
1.16932
1.16118
1.15186
1.14131
1.12948
1.1163
1.10173
1.08569
1.06817
1.04899
1.02837
1.00585
0.981987
0.956246
0.9289
0.900361
0.870017
0.838699
0.805736
0.772254
0.738587
0.703558
1.21553
1.2146
1.21273
1.20987
1.20599
1.20105
1.19504
1.1879
1.17959
1.17005
1.15923
1.14705
1.13344
1.11832
1.10163
1.08322
1.06319
1.04111
1.01753
0.991613
0.964093
0.934753
0.903242
0.87047
0.835388
0.799665
0.762611
0.724476
0.686682
1.23254
1.23162
1.22974
1.22686
1.22294
1.21796
1.21188
1.20464
1.1962
1.1865
1.17545
1.16298
1.14899
1.13339
1.11606
1.09696
1.07577
1.05287
1.0274
1.00015
0.970574
0.938151
0.904541
0.868347
0.830171
0.790529
0.749484
0.70779
0.664915
1.24764
1.24673
1.24485
1.24196
1.23803
1.23302
1.22689
1.21959
1.21105
1.20121
1.18998
1.17726
1.16295
1.14692
1.12906
1.10916
1.08729
1.06285
1.03636
1.00743
0.975487
0.941291
0.903643
0.864191
0.822755
0.778814
0.732892
0.686088
0.63915
1.26093
1.26003
1.25816
1.25527
1.25133
1.2463
1.24014
1.2328
1.22419
1.21425
1.20288
1.18995
1.17537
1.15897
1.1406
1.12012
1.0972
1.07201
1.04417
1.01319
0.979198
0.942088
0.902069
0.858588
0.812203
0.763776
0.713411
0.661085
0.607614
1.2725
1.27161
1.26975
1.26686
1.26293
1.2579
1.25173
1.24435
1.2357
1.22568
1.21419
1.20112
1.18629
1.16959
1.15077
1.12967
1.10615
1.07965
1.05029
1.01786
0.981707
0.941775
0.898412
0.851092
0.800153
0.74622
0.689076
0.630462
0.571346
1.28248
1.2816
1.27975
1.27688
1.27294
1.26792
1.26174
1.25436
1.24568
1.2356
1.22403
1.21081
1.19583
1.1788
1.15967
1.13804
1.11356
1.08646
1.05565
1.02128
0.983383
0.940863
0.892996
0.841297
0.785784
0.725223
0.661495
0.595438
0.527984
1.291
1.29013
1.28829
1.28543
1.28151
1.27649
1.27032
1.26293
1.25423
1.24412
1.23248
1.21918
1.20399
1.18683
1.16727
1.1452
1.12042
1.09184
1.06027
1.02482
0.983995
0.937769
0.887416
0.831124
0.768296
0.70125
0.629721
0.554973
0.478479
1.29819
1.29734
1.29551
1.29266
1.28875
1.28375
1.27758
1.27019
1.26149
1.25136
1.23968
1.22627
1.21101
1.19356
1.17383
1.15139
1.12569
1.09711
1.06396
1.0262
0.984111
0.935714
0.88019
0.81834
0.750418
0.674963
0.594231
0.508186
0.419521
1.3042
1.30336
1.30154
1.2987
1.29481
1.28982
1.28367
1.27628
1.26757
1.25743
1.24571
1.23226
1.21685
1.19933
1.17929
1.15645
1.13064
1.1006
1.06666
1.02852
0.983695
0.931679
0.873136
0.805891
0.729943
0.646115
0.553492
0.455841
0.354384
1.30915
1.30832
1.30651
1.30369
1.29981
1.29483
1.28869
1.28132
1.27261
1.26246
1.25072
1.23721
1.22176
1.20404
1.18385
1.16081
1.13425
1.10412
1.06931
1.02909
0.982636
0.928482
0.865503
0.792833
0.709368
0.613964
0.510941
0.395735
0.27705
1.31319
1.31237
1.31057
1.30775
1.30389
1.29892
1.2928
1.28543
1.27673
1.26657
1.25482
1.24127
1.22575
1.20792
1.18764
1.16418
1.13756
1.10668
1.07098
1.03018
0.981666
0.924722
0.858151
0.779803
0.687402
0.583124
0.461438
0.330593
0.18913
1.31642
1.31561
1.31382
1.31101
1.30716
1.3022
1.29609
1.28873
1.28004
1.26988
1.25812
1.24454
1.22897
1.21108
1.1906
1.16703
1.14009
1.10855
1.07295
1.03055
0.980515
0.92147
0.851746
0.76707
0.666856
0.548677
0.411413
0.2554
0.0888185
1.31897
1.31815
1.31637
1.31358
1.30973
1.30479
1.29868
1.29134
1.28265
1.27249
1.26073
1.2471
1.23157
1.21346
1.1931
1.16915
1.14207
1.11029
1.07409
1.03069
0.97944
0.918559
0.846022
0.75571
0.648152
0.514731
0.357233
0.174623
-0.0292955
1.32092
1.32011
1.31834
1.31555
1.31171
1.30677
1.30068
1.29334
1.28466
1.2745
1.26274
1.24911
1.23351
1.21541
1.19492
1.17076
1.14381
1.11126
1.07506
1.03043
0.978711
0.916394
0.840441
0.746179
0.631237
0.483522
0.30212
0.084728
-0.16291
1.32238
1.32157
1.3198
1.31702
1.31318
1.30826
1.30217
1.29484
1.28617
1.27601
1.26426
1.25058
1.23503
1.2168
1.1963
1.17212
1.14483
1.11215
1.0758
1.03014
0.97796
0.9142
0.836282
0.738016
0.617137
0.454348
0.251151
-0.0112008
-0.322467
1.32341
1.32261
1.32084
1.31806
1.31424
1.30932
1.30324
1.29591
1.28725
1.27709
1.26533
1.25167
1.23605
1.21789
1.19721
1.1731
1.14551
1.11309
1.07578
1.03011
0.977449
0.912223
0.832296
0.731727
0.603784
0.431293
0.204059
-0.106652
-0.50809
1.32411
1.32331
1.32154
1.31876
1.31494
1.31002
1.30395
1.29663
1.28796
1.2778
1.26605
1.25238
1.23674
1.21862
1.19771
1.17399
1.14539
1.11412
1.07537
1.03024
0.976136
0.910498
0.82769
0.726231
0.589881
0.412196
0.158012
-0.200382
-0.712562
1.32451
1.32372
1.32195
1.31917
1.31535
1.31043
1.30435
1.29702
1.28835
1.27818
1.2664
1.25276
1.23697
1.2191
1.19771
1.1746
1.14512
1.11489
1.07439
1.03096
0.974049
0.908852
0.822212
0.719454
0.574454
0.391074
0.110694
-0.292866
-0.933007
1.32471
1.32391
1.32213
1.31935
1.31552
1.31059
1.30449
1.29712
1.28839
1.27814
1.26623
1.25239
1.23646
1.21808
1.1963
1.17263
1.14227
1.11123
1.06869
1.02427
0.964546
0.89693
0.806557
0.69815
0.547838
0.350154
0.0600262
-0.373391
-1.04108
0.473188
0.472832
0.472466
0.472091
0.471706
0.471312
0.47091
0.470498
0.470078
0.469649
0.469212
0.468767
0.468314
0.467853
0.467384
0.466908
0.466425
0.465934
0.465437
0.464932
0.464422
0.463905
0.463382
0.462853
0.462318
0.461778
0.461233
0.460683
0.460128
0.459568
0.459004
0.458436
0.457864
0.457288
0.456709
0.456127
0.455542
0.454954
0.454363
0.453771
0.453176
0.45258
0.451982
0.451382
0.450782
0.450181
0.449579
0.448977
0.448375
0.447773
0.447171
0.446569
0.445969
0.445369
0.444771
0.444174
0.443579
0.442985
0.442394
0.441805
0.441219
0.440635
0.440054
0.439477
0.438902
0.438331
0.437764
0.437201
0.436642
0.436088
0.435537
0.434992
0.434451
0.433915
0.433385
0.43286
0.43234
0.431827
0.431319
0.430817
0.430321
0.429832
0.429349
0.428873
0.428404
0.427942
0.427487
0.427039
0.426599
0.426166
0.425741
0.425323
0.424914
0.424513
0.42412
0.423735
0.423359
0.422991
0.422633
0.422282
0.421941
0.421609
0.421286
0.420973
0.420668
0.420374
0.420088
0.419813
0.419547
0.419291
0.419046
0.41881
0.418584
0.418369
0.418164
0.417969
0.417786
0.417612
0.41745
0.417298
0.417158
0.417028
0.41691
0.416803
0.416708
0.416624
0.416552
0.416492
0.416444
0.416408
0.416385
0.416374
0.416377
0.416392
0.416424
0.41646
0.41654
0.416564
0.416755
0.423703
0.423342
0.422971
0.42259
0.4222
0.421801
0.421393
0.420976
0.42055
0.420115
0.419672
0.419221
0.418762
0.418294
0.417819
0.417337
0.416846
0.416349
0.415845
0.415333
0.414816
0.414291
0.413761
0.413225
0.412682
0.412135
0.411581
0.411023
0.41046
0.409892
0.40932
0.408744
0.408164
0.40758
0.406993
0.406402
0.405808
0.405212
0.404613
0.404012
0.403409
0.402804
0.402197
0.401589
0.40098
0.400371
0.39976
0.39915
0.398539
0.397928
0.397318
0.396708
0.3961
0.395492
0.394885
0.39428
0.393677
0.393076
0.392476
0.391879
0.391285
0.390694
0.390105
0.38952
0.388938
0.38836
0.387786
0.387215
0.386649
0.386087
0.38553
0.384977
0.38443
0.383887
0.38335
0.382818
0.382292
0.381772
0.381257
0.380749
0.380247
0.379752
0.379263
0.378781
0.378306
0.377837
0.377376
0.376923
0.376477
0.376038
0.375608
0.375185
0.37477
0.374364
0.373965
0.373576
0.373194
0.372822
0.372458
0.372103
0.371757
0.37142
0.371092
0.370773
0.370464
0.370165
0.369875
0.369594
0.369324
0.369063
0.368812
0.368571
0.36834
0.368119
0.367909
0.367708
0.367518
0.367339
0.367169
0.36701
0.366861
0.366723
0.366595
0.366477
0.366369
0.366272
0.366184
0.366106
0.366037
0.365978
0.365928
0.365886
0.365852
0.365825
0.365806
0.365791
0.365768
0.365799
0.365691
0.425804
0.425406
0.424998
0.42458
0.424151
0.423713
0.423264
0.422806
0.422338
0.42186
0.421373
0.420876
0.42037
0.419855
0.419332
0.4188
0.418259
0.41771
0.417154
0.416589
0.416017
0.415438
0.414852
0.414259
0.41366
0.413054
0.412442
0.411825
0.411203
0.410575
0.409942
0.409305
0.408664
0.408019
0.407369
0.406717
0.406061
0.405403
0.404741
0.404078
0.403413
0.402745
0.402077
0.401407
0.400736
0.400065
0.399393
0.398721
0.39805
0.397379
0.396708
0.396039
0.395371
0.394704
0.394039
0.393376
0.392716
0.392058
0.391402
0.390749
0.3901
0.389454
0.388812
0.388173
0.387538
0.386908
0.386282
0.385661
0.385044
0.384433
0.383826
0.383226
0.38263
0.382041
0.381458
0.38088
0.380309
0.379745
0.379187
0.378636
0.378091
0.377554
0.377025
0.376502
0.375988
0.375481
0.374982
0.374491
0.374008
0.373534
0.373068
0.37261
0.372161
0.371722
0.371291
0.370869
0.370456
0.370053
0.369659
0.369275
0.3689
0.368535
0.36818
0.367835
0.367499
0.367174
0.36686
0.366555
0.366261
0.365978
0.365705
0.365442
0.365191
0.36495
0.36472
0.364502
0.364294
0.364098
0.363913
0.36374
0.363578
0.363427
0.363289
0.363163
0.363049
0.362947
0.362858
0.362782
0.362719
0.36267
0.362634
0.362613
0.362607
0.362617
0.362643
0.362707
0.362701
0.362892
0.362778
0.439289
0.438864
0.43843
0.437984
0.437528
0.43706
0.43658
0.43609
0.435588
0.435074
0.43455
0.434014
0.433468
0.432911
0.432344
0.431767
0.43118
0.430584
0.429979
0.429364
0.428742
0.428111
0.427472
0.426825
0.426171
0.425511
0.424843
0.42417
0.423491
0.422806
0.422115
0.42142
0.42072
0.420017
0.419309
0.418597
0.417883
0.417165
0.416444
0.415722
0.414997
0.41427
0.413542
0.412813
0.412083
0.411353
0.410623
0.409893
0.409163
0.408435
0.407708
0.406982
0.406258
0.405536
0.404816
0.404099
0.403385
0.402674
0.401966
0.401261
0.400561
0.399864
0.399171
0.398483
0.397799
0.39712
0.396447
0.395778
0.395115
0.394458
0.393806
0.393161
0.392522
0.391889
0.391263
0.390644
0.390031
0.389426
0.388827
0.388236
0.387652
0.387077
0.386509
0.385949
0.385397
0.384854
0.384319
0.383793
0.383275
0.382767
0.382268
0.381778
0.381297
0.380826
0.380365
0.379913
0.379471
0.379039
0.378616
0.378204
0.377802
0.377411
0.377029
0.376659
0.376299
0.375949
0.375611
0.375283
0.374966
0.37466
0.374365
0.374081
0.373809
0.373547
0.373297
0.373059
0.372831
0.372616
0.372412
0.37222
0.372039
0.371871
0.371714
0.37157
0.371438
0.371318
0.37121
0.371115
0.371033
0.370964
0.370907
0.370864
0.370834
0.370817
0.370814
0.370828
0.370839
0.370951
0.370893
0.438736
0.438294
0.437833
0.437352
0.436853
0.436337
0.435804
0.435254
0.434689
0.434109
0.433514
0.432906
0.432284
0.431649
0.431002
0.430343
0.429672
0.42899
0.428297
0.427594
0.426882
0.42616
0.425429
0.42469
0.423943
0.423189
0.422427
0.421659
0.420884
0.420104
0.419318
0.418528
0.417732
0.416933
0.41613
0.415323
0.414514
0.413701
0.412887
0.41207
0.411252
0.410433
0.409613
0.408794
0.407975
0.407156
0.406339
0.405523
0.404709
0.403897
0.403087
0.402281
0.401477
0.400677
0.39988
0.399088
0.398299
0.397515
0.396736
0.39596
0.395189
0.394422
0.39366
0.392902
0.39215
0.391403
0.390662
0.389929
0.389202
0.388483
0.387771
0.387067
0.386371
0.385683
0.385003
0.384332
0.383669
0.383015
0.38237
0.381734
0.381106
0.380487
0.379877
0.379276
0.378684
0.378102
0.377529
0.376966
0.376413
0.375869
0.375336
0.374812
0.374299
0.373796
0.373303
0.372821
0.372349
0.371888
0.371438
0.370999
0.370571
0.370153
0.369747
0.369352
0.368967
0.368594
0.368233
0.367882
0.367543
0.367216
0.366899
0.366595
0.366302
0.36602
0.36575
0.365492
0.365245
0.36501
0.364786
0.364574
0.364374
0.364185
0.364007
0.363841
0.363687
0.363544
0.363412
0.36329
0.36318
0.36308
0.362991
0.362912
0.362842
0.362782
0.36273
0.362687
0.362646
0.362631
0.362552
0.437017
0.43652
0.436001
0.435462
0.434904
0.434326
0.433729
0.433115
0.432482
0.431833
0.431167
0.430486
0.429789
0.429078
0.428353
0.427614
0.426861
0.426097
0.42532
0.424533
0.423734
0.422925
0.422106
0.421278
0.420441
0.419595
0.418742
0.417882
0.417015
0.416141
0.415262
0.414378
0.413489
0.412595
0.411698
0.410798
0.409894
0.408989
0.408082
0.407173
0.406264
0.405354
0.404445
0.403536
0.402629
0.401722
0.400818
0.399915
0.399016
0.39812
0.397227
0.396339
0.395456
0.394579
0.393708
0.392844
0.391989
0.391142
0.390306
0.389482
0.388672
0.387873
0.387077
0.386283
0.385489
0.384695
0.3839
0.383103
0.382306
0.381516
0.380734
0.379959
0.379192
0.378433
0.377683
0.376942
0.376209
0.375487
0.374773
0.37407
0.373378
0.372696
0.372025
0.371365
0.370716
0.370078
0.369451
0.368835
0.368231
0.367638
0.367056
0.366486
0.365927
0.365379
0.364844
0.364319
0.363807
0.363307
0.362818
0.362341
0.361876
0.361423
0.360982
0.360553
0.360136
0.359732
0.359339
0.358959
0.35859
0.358234
0.357891
0.357559
0.35724
0.356933
0.356638
0.356356
0.356085
0.355827
0.355581
0.355348
0.355126
0.354917
0.35472
0.354535
0.354362
0.354201
0.354051
0.353914
0.353789
0.353675
0.353573
0.353483
0.353404
0.353337
0.353282
0.353239
0.353206
0.353188
0.353171
0.442381
0.441772
0.441142
0.44049
0.439818
0.439128
0.43842
0.437694
0.436951
0.436192
0.435415
0.434623
0.433815
0.432992
0.432154
0.431303
0.430438
0.42956
0.42867
0.427768
0.426855
0.425932
0.424998
0.424056
0.423104
0.422145
0.421178
0.420203
0.419223
0.418236
0.417244
0.416247
0.415246
0.414241
0.413233
0.412221
0.411208
0.410194
0.409179
0.408163
0.407148
0.406132
0.405117
0.404103
0.403091
0.40208
0.401072
0.400066
0.399063
0.398063
0.397067
0.396075
0.395087
0.394102
0.393122
0.392146
0.391174
0.390205
0.389239
0.388274
0.38731
0.38635
0.385401
0.384465
0.383541
0.38263
0.381732
0.380848
0.379975
0.379113
0.378259
0.377414
0.376579
0.375754
0.37494
0.374136
0.373342
0.37256
0.371788
0.371029
0.370281
0.369545
0.368821
0.368109
0.367408
0.366721
0.366045
0.365381
0.36473
0.364092
0.363466
0.362852
0.362251
0.361662
0.361086
0.360523
0.359972
0.359435
0.35891
0.358397
0.357898
0.357412
0.356938
0.356478
0.356031
0.355597
0.355175
0.354767
0.354372
0.35399
0.353621
0.353265
0.352922
0.352592
0.352275
0.351972
0.351681
0.351403
0.351138
0.350886
0.350647
0.350421
0.350208
0.350008
0.349821
0.349646
0.349484
0.349335
0.349199
0.349075
0.348965
0.348866
0.348781
0.348708
0.348648
0.3486
0.348565
0.348543
0.34853
0.449718
0.449018
0.448293
0.447542
0.446767
0.445966
0.445142
0.444293
0.443423
0.442532
0.44162
0.440689
0.43974
0.438773
0.437789
0.436789
0.435774
0.434745
0.433702
0.432646
0.431577
0.430498
0.429407
0.428307
0.427198
0.42608
0.424954
0.423821
0.422682
0.421538
0.420388
0.419235
0.418078
0.416918
0.415756
0.414593
0.413428
0.412264
0.411099
0.409935
0.408772
0.40761
0.406451
0.405295
0.404142
0.402992
0.401846
0.400705
0.399568
0.398437
0.39731
0.396189
0.395074
0.393965
0.392863
0.391767
0.390678
0.389596
0.388521
0.387454
0.386396
0.385346
0.384307
0.38328
0.382266
0.381265
0.38028
0.37931
0.378355
0.377413
0.376482
0.375565
0.374659
0.373767
0.372887
0.37202
0.371166
0.370325
0.369498
0.368683
0.367881
0.367092
0.366315
0.365553
0.364803
0.364067
0.363344
0.362634
0.361939
0.361257
0.360588
0.359934
0.359293
0.358666
0.358053
0.357454
0.356868
0.356298
0.355741
0.355198
0.35467
0.354155
0.353655
0.353168
0.352695
0.352236
0.351791
0.35136
0.350943
0.35054
0.35015
0.349774
0.349412
0.349064
0.34873
0.348409
0.348102
0.347809
0.347529
0.347263
0.347011
0.346772
0.346547
0.346335
0.346137
0.345953
0.345781
0.345624
0.34548
0.345349
0.345232
0.345127
0.345037
0.344959
0.344895
0.344844
0.344806
0.344781
0.344768
0.456373
0.455556
0.45471
0.453834
0.452931
0.452001
0.451045
0.450063
0.449056
0.448025
0.446971
0.445894
0.444797
0.44368
0.442543
0.441388
0.440216
0.439028
0.437824
0.436606
0.435375
0.434131
0.432876
0.431611
0.430335
0.429052
0.42776
0.426461
0.425157
0.423847
0.422533
0.421216
0.419896
0.418573
0.41725
0.415926
0.414603
0.41328
0.411959
0.410641
0.409325
0.408013
0.406705
0.405402
0.404104
0.402812
0.401526
0.400247
0.398975
0.397712
0.396456
0.395209
0.393971
0.392742
0.391524
0.390315
0.389117
0.38793
0.386755
0.385591
0.38444
0.383301
0.382175
0.381063
0.379965
0.378881
0.377812
0.376757
0.375717
0.374691
0.373681
0.372685
0.371703
0.370736
0.369784
0.368847
0.367924
0.367016
0.366123
0.365244
0.364381
0.363532
0.362698
0.361879
0.361075
0.360287
0.359513
0.358755
0.358012
0.357284
0.356571
0.355874
0.355192
0.354525
0.353874
0.353238
0.352617
0.352011
0.35142
0.350845
0.350284
0.349739
0.349208
0.348692
0.348191
0.347706
0.347235
0.346778
0.346337
0.345911
0.345499
0.345102
0.344719
0.344352
0.343999
0.34366
0.343336
0.343026
0.342731
0.342451
0.342184
0.341932
0.341695
0.341472
0.341262
0.341068
0.340887
0.34072
0.340568
0.34043
0.340306
0.340196
0.340099
0.340017
0.339949
0.339895
0.339855
0.339828
0.339813
0.463428
0.462466
0.46147
0.460441
0.45938
0.458288
0.457166
0.456016
0.454837
0.453632
0.452402
0.451148
0.44987
0.448571
0.447251
0.445912
0.444555
0.44318
0.44179
0.440384
0.438966
0.437534
0.436092
0.434639
0.433177
0.431707
0.430231
0.428748
0.42726
0.425769
0.424275
0.422779
0.421281
0.419784
0.418287
0.416792
0.4153
0.41381
0.412325
0.410845
0.409369
0.4079
0.406438
0.404984
0.403537
0.402099
0.40067
0.399251
0.397842
0.396444
0.395057
0.393682
0.392319
0.390968
0.38963
0.388306
0.386995
0.385698
0.384416
0.383148
0.381895
0.380657
0.379435
0.378229
0.377038
0.375864
0.374705
0.373564
0.372438
0.37133
0.370238
0.369162
0.368104
0.367062
0.366037
0.36503
0.364038
0.363064
0.362107
0.361167
0.360243
0.359337
0.358447
0.357574
0.356719
0.355879
0.355057
0.354252
0.353463
0.352691
0.351936
0.351198
0.350476
0.34977
0.349081
0.348409
0.347753
0.347113
0.346489
0.345882
0.34529
0.344715
0.344156
0.343613
0.343086
0.342575
0.34208
0.3416
0.341137
0.340689
0.340256
0.33984
0.339438
0.339053
0.338682
0.338327
0.337988
0.337663
0.337354
0.33706
0.336781
0.336517
0.336268
0.336034
0.335815
0.335611
0.335422
0.335247
0.335087
0.334942
0.334812
0.334697
0.334596
0.334509
0.334438
0.334381
0.334338
0.33431
0.334294
0.471389
0.470254
0.46908
0.467868
0.466619
0.465335
0.464017
0.462667
0.461285
0.459875
0.458436
0.456971
0.455481
0.453968
0.452432
0.450876
0.449301
0.447708
0.446099
0.444475
0.442838
0.441189
0.439529
0.43786
0.436183
0.4345
0.432811
0.431118
0.429422
0.427724
0.426026
0.424328
0.422631
0.420937
0.419247
0.417561
0.415881
0.414207
0.41254
0.410881
0.409231
0.40759
0.40596
0.404341
0.402733
0.401137
0.399554
0.397984
0.396428
0.394887
0.39336
0.391848
0.390352
0.388872
0.387408
0.385961
0.384531
0.383119
0.381724
0.380346
0.378987
0.377646
0.376323
0.375019
0.373734
0.372467
0.37122
0.369992
0.368782
0.367592
0.366421
0.365269
0.364137
0.363024
0.36193
0.360855
0.3598
0.358763
0.357746
0.356748
0.355769
0.354809
0.353867
0.352945
0.352041
0.351156
0.35029
0.349442
0.348612
0.347801
0.347008
0.346233
0.345477
0.344738
0.344017
0.343313
0.342628
0.34196
0.341309
0.340676
0.34006
0.339462
0.33888
0.338315
0.337768
0.337237
0.336723
0.336226
0.335745
0.33528
0.334833
0.334401
0.333986
0.333586
0.333203
0.332836
0.332485
0.33215
0.33183
0.331527
0.331239
0.330966
0.330709
0.330468
0.330242
0.330032
0.329836
0.329657
0.329492
0.329343
0.329209
0.32909
0.328986
0.328897
0.328824
0.328765
0.328722
0.328693
0.328677
0.480168
0.478828
0.477443
0.476015
0.474545
0.473035
0.471487
0.469903
0.468285
0.466634
0.464953
0.463243
0.461506
0.459744
0.457959
0.456152
0.454327
0.452483
0.450623
0.44875
0.446864
0.444967
0.44306
0.441147
0.439227
0.437303
0.435376
0.433447
0.431518
0.42959
0.427665
0.425744
0.423828
0.421918
0.420015
0.41812
0.416235
0.41436
0.412496
0.410645
0.408806
0.406981
0.405171
0.403376
0.401597
0.399834
0.398088
0.39636
0.394649
0.392958
0.391285
0.389632
0.387998
0.386385
0.384792
0.383219
0.381668
0.380137
0.378628
0.377141
0.375675
0.37423
0.372808
0.371408
0.370029
0.368673
0.367338