/*--------------------------------*- C++ -*----------------------------------*\
| =========                 |                                                 |
| \\      /  F ield         | OpenFOAM: The Open Source CFD Toolbox           |
|  \\    /   O peration     | Version:  5.x                                   |
|   \\  /    A nd           | Web:      www.OpenFOAM.org                      |
|    \\/     M anipulation  |                                                 |
\*---------------------------------------------------------------------------*/
/*   Windows 32 and 64 bit porting by blueCAPE: http://www.bluecape.com.pt   *\
|  Based on Windows porting (2.0.x v4) by Symscape: http://www.symscape.com   |
\*---------------------------------------------------------------------------*/
FoamFile
{
    version     2.0;
    format      ascii;
    class       surfaceScalarField;
    location    "20";
    object      phi;
}
// * * * * * * * * * * * * * * * * * * * * * * * * * * * * * * * * * * * * * //

dimensions      [0 3 -1 0 0 0 0];

internalField   nonuniform List<scalar> 
87341
(
0.417077
39.506
0.448108
39.892
0.47746
39.8937
0.507732
39.8928
0.538467
39.8923
0.569827
39.8917
0.60179
39.8911
0.634295
39.8905
0.66728
39.8901
0.700693
39.8896
0.734481
39.8892
0.768596
39.8889
0.802994
39.8886
0.837632
39.8884
0.87247
39.8882
0.907473
39.888
0.942603
39.8879
0.97783
39.8878
1.01312
39.8877
1.04844
39.8877
1.08378
39.8877
1.1187
39.8881
1.15356
39.8882
1.18834
39.8883
1.22302
39.8884
1.25757
39.8885
1.29197
39.8886
1.3262
39.8888
39.8887
1.36059
0.408074
39.0979
0.483124
39.817
0.553204
39.8236
0.622954
39.823
0.692833
39.8224
0.762754
39.8218
0.832447
39.8214
0.901926
39.8211
0.971197
39.8208
1.04026
39.8206
1.10913
39.8204
1.17778
39.8203
1.24622
39.8202
1.31444
39.8202
1.38241
39.8202
1.45013
39.8203
1.51759
39.8205
1.58476
39.8206
1.65162
39.8209
1.71815
39.8212
1.78433
39.8215
1.85006
39.8224
1.91541
39.8228
1.98033
39.8233
2.04481
39.8239
2.10881
39.8245
2.1723
39.8251
2.23527
39.8258
39.8271
2.29681
0.406297
38.6916
0.497953
39.7253
0.579665
39.7419
0.66135
39.7413
0.743271
39.7405
0.825211
39.7398
0.907346
39.7392
0.989609
39.7388
1.07194
39.7384
1.15428
39.7382
1.23659
39.7381
1.3188
39.7381
1.40088
39.7381
1.48278
39.7383
1.56445
39.7385
1.64608
39.7387
1.72739
39.7391
1.80836
39.7397
1.88893
39.7403
1.96907
39.741
2.04879
39.7418
2.12906
39.7421
2.20881
39.7431
2.28795
39.7442
2.36641
39.7454
2.44437
39.7465
2.52156
39.7479
2.59796
39.7494
39.7507
2.67442
0.236039
38.4555
0.354371
39.607
0.464168
39.6321
0.573883
39.6316
0.683277
39.6311
0.79235
39.6307
0.901087
39.6305
1.00947
39.6304
1.1175
39.6304
1.22516
39.6306
1.33243
39.6308
1.43931
39.6312
1.5458
39.6316
1.65189
39.6322
1.75759
39.6329
1.86269
39.6336
1.96742
39.6344
2.07179
39.6353
2.17581
39.6363
2.27954
39.6373
2.38292
39.6384
2.48682
39.6382
2.59063
39.6393
2.6943
39.6405
2.79695
39.6428
2.89679
39.6467
2.99279
39.6519
3.0847
39.6575
39.6601
3.17527
0.13087
38.3247
0.25198
39.4859
0.373172
39.5109
0.493525
39.5113
0.613017
39.5116
0.731663
39.5121
0.849466
39.5127
0.966422
39.5134
1.08252
39.5143
1.19773
39.5153
1.31203
39.5165
1.42539
39.5178
1.53776
39.5193
1.6491
39.5209
1.75932
39.5226
1.86835
39.5246
1.97613
39.5266
2.08257
39.5289
2.18755
39.5313
2.29096
39.5339
2.39265
39.5367
2.49224
39.5386
2.58975
39.5418
2.68508
39.5452
2.7788
39.549
2.87222
39.5533
2.9665
39.5577
3.06208
39.5619
39.5656
3.1566
0.128588
38.1961
0.252025
39.3624
0.375387
39.3875
0.498579
39.3881
0.621503
39.3887
0.744104
39.3895
0.866324
39.3905
0.988114
39.3917
1.10943
39.393
1.23022
39.3945
1.35046
39.3963
1.47009
39.3982
1.5891
39.4003
1.70746
39.4025
1.82513
39.405
1.9421
39.4076
2.05836
39.4104
2.1739
39.4133
2.28872
39.4165
2.40284
39.4198
2.5163
39.4233
2.62854
39.4264
2.74015
39.4301
2.85131
39.434
2.96248
39.4379
3.07427
39.4415
3.18684
39.4451
3.29981
39.449
39.4539
3.41152
0.126146
38.0699
0.25483
39.2337
0.382703
39.2597
0.510338
39.2604
0.637687
39.2613
0.764706
39.2625
0.89135
39.2638
1.01757
39.2654
1.14333
39.2673
1.26858
39.2693
1.39328
39.2716
1.51738
39.2741
1.64085
39.2768
1.76364
39.2797
1.88572
39.2829
2.00706
39.2862
2.12761
39.2898
2.24734
39.2936
2.36622
39.2976
2.4842
39.3018
2.60128
39.3062
2.71698
39.3107
2.83166
39.3155
2.94529
39.3204
3.05758
39.3256
3.16818
39.3309
3.27685
39.3364
3.38365
39.3422
39.3481
3.48937
0.137708
37.9322
0.28339
39.0881
0.428739
39.1143
0.573864
39.1153
0.718703
39.1165
0.863189
39.118
1.00726
39.1198
1.15084
39.1219
1.29387
39.1242
1.43628
39.1269
1.57802
39.1298
1.71902
39.1331
1.85921
39.1366
1.99853
39.1404
2.13693
39.1445
2.27433
39.1488
2.41069
39.1535
2.54593
39.1584
2.68
39.1635
2.81284
39.169
2.94438
39.1747
3.07447
39.1806
3.20313
39.1868
3.33032
39.1932
3.45597
39.1999
3.58001
39.2068
3.70242
39.214
3.82318
39.2214
39.229
3.94237
0.154211
37.778
0.315947
38.9263
0.477673
38.9526
0.639151
38.9538
0.800304
38.9553
0.961049
38.9572
1.1213
38.9595
1.28099
38.9622
1.44002
38.9652
1.59832
38.9686
1.7558
38.9723
1.9124
38.9765
2.06802
38.981
2.2226
38.9858
2.37606
38.991
2.52833
38.9966
2.67933
39.0025
2.829
39.0087
2.97725
39.0153
3.12403
39.0222
3.26926
39.0294
3.41288
39.037
3.55483
39.0448
3.69505
39.053
3.83348
39.0615
3.97006
39.0703
4.10474
39.0793
4.23749
39.0887
39.0982
4.36823
0.171644
37.6064
0.351005
38.747
0.530207
38.7734
0.70911
38.7749
0.887621
38.7768
1.06564
38.7792
1.24307
38.7821
1.41982
38.7854
1.59578
38.7892
1.77086
38.7935
1.94497
38.7982
2.11801
38.8034
2.28989
38.8091
2.46052
38.8152
2.62981
38.8217
2.79768
38.8287
2.96402
38.8361
3.12877
38.844
3.29184
38.8522
3.45315
38.8609
3.61262
38.87
3.77018
38.8794
3.92575
38.8893
4.07926
38.8995
4.23064
38.9101
4.37983
38.9211
4.52675
38.9324
4.67136
38.9441
38.956
4.81359
0.190728
37.4157
0.389884
38.5478
0.58878
38.5745
0.787307
38.5764
0.985355
38.5788
1.1828
38.5818
1.37954
38.5854
1.57543
38.5895
1.77037
38.5943
1.96425
38.5996
2.15694
38.6056
2.34833
38.612
2.53832
38.6191
2.72679
38.6267
2.91364
38.6349
3.09876
38.6436
3.28205
38.6528
3.46341
38.6626
3.64273
38.6729
3.81994
38.6837
3.99493
38.695
4.16761
38.7067
4.3379
38.719
4.50571
38.7317
4.67097
38.7449
4.83359
38.7585
4.9935
38.7725
5.15063
38.7869
38.8017
5.30494
0.212111
37.2035
0.433458
38.3265
0.654465
38.3535
0.875021
38.3558
1.09499
38.3588
1.31423
38.3625
1.53259
38.367
1.74994
38.3722
1.96612
38.3781
2.181
38.3848
2.39444
38.3921
2.6063
38.4002
2.81645
38.4089
3.02476
38.4184
3.2311
38.4285
3.43534
38.4393
3.63736
38.4508
3.83705
38.4629
4.03427
38.4757
4.22893
38.489
4.42091
38.503
4.6101
38.5175
4.79641
38.5327
4.97974
38.5484
5.15998
38.5646
5.33706
38.5814
5.51089
38.5987
5.68138
38.6164
38.6346
5.84848
0.23598
36.9676
0.48206
38.0804
0.727701
38.1078
0.972792
38.1108
1.21717
38.1144
1.46065
38.1191
1.70307
38.1246
1.94425
38.131
2.18401
38.1383
2.42218
38.1466
2.6586
38.1557
2.89311
38.1657
3.12553
38.1765
3.35572
38.1882
3.58351
38.2007
3.80876
38.2141
4.03132
38.2282
4.25104
38.2432
4.46779
38.2589
4.68143
38.2754
4.89184
38.2926
5.09889
38.3105
5.30246
38.3291
5.50243
38.3484
5.6987
38.3683
5.89116
38.3889
6.07972
38.4101
6.26428
38.4319
38.4541
6.44479
0.262456
36.7051
0.535941
37.8069
0.808866
37.8349
1.08112
37.8385
1.35251
37.8431
1.62281
37.8488
1.8918
37.8556
2.15929
37.8635
2.42505
37.8726
2.68889
37.8827
2.95059
37.894
3.20997
37.9063
3.46682
37.9197
3.72095
37.9341
3.97219
37.9495
4.22033
37.9659
4.46523
37.9834
4.70669
38.0017
4.94456
38.021
5.17867
38.0413
5.40889
38.0624
5.63505
38.0843
5.85702
38.1071
6.07467
38.1307
6.28788
38.1551
6.49651
38.1803
6.70047
38.2062
6.89965
38.2327
38.2597
7.09398
0.291655
36.4135
0.59533
37.5032
0.898302
37.532
1.20046
37.5363
1.50156
37.542
1.80134
37.549
2.09954
37.5574
2.39591
37.5672
2.69018
37.5783
2.98211
37.5908
3.27146
37.6046
3.55799
37.6198
3.84145
37.6362
4.12163
37.6539
4.3983
37.6728
4.67124
37.693
4.94025
37.7144
5.20512
37.7369
5.46565
37.7605
5.72167
37.7852
5.97299
37.811
6.21944
37.8379
6.46087
37.8657
6.6971
37.8945
6.92802
37.9242
7.15347
37.9548
7.37333
37.9863
7.58749
38.0186
38.0514
7.79587
0.323699
36.0898
0.660472
37.1664
0.996371
37.1961
1.33128
37.2014
1.66491
37.2083
1.99694
37.2169
2.32706
37.2273
2.65495
37.2393
2.98031
37.2529
3.30284
37.2683
3.62225
37.2852
3.93824
37.3038
4.25054
37.3239
4.55887
37.3456
4.86297
37.3687
5.16258
37.3934
5.45746
37.4195
5.74735
37.447
6.03204
37.4758
6.3113
37.506
6.58493
37.5374
6.85273
37.5701
7.11451
37.6039
7.3701
37.6389
7.61933
37.675
7.86205
37.7121
8.09813
37.7502
8.32742
37.7893
37.8289
8.54986
0.358685
35.7311
0.731552
36.7936
1.10335
36.8243
1.47395
36.8308
1.84301
36.8393
2.21013
36.8498
2.57495
36.8624
2.93709
36.8771
3.29617
36.8939
3.65185
36.9126
4.00377
36.9333
4.35158
36.956
4.69494
36.9805
5.03354
37.007
5.36705
37.0352
5.69517
37.0653
6.01762
37.097
6.3341
37.1305
6.64434
37.1656
6.94811
37.2022
7.24514
37.2404
7.53522
37.28
7.81813
37.321
8.09367
37.3634
8.36165
37.407
8.62191
37.4519
8.87429
37.4978
9.11866
37.5449
37.5927
9.35492
0.39671
35.3344
0.808761
36.3815
1.2195
36.4135
1.62882
36.4215
2.03627
36.4318
2.44141
36.4447
2.84377
36.4601
3.24291
36.478
3.6384
36.4984
4.0298
36.5212
4.41668
36.5464
4.79865
36.574
5.1753
36.6039
5.54624
36.636
5.9111
36.6704
6.26953
36.7068
6.62118
36.7454
6.96571
36.786
7.30282
36.8285
7.63221
36.8728
7.95361
36.919
8.26674
36.9669
8.57137
37.0164
8.86727
37.0675
9.15424
37.12
9.43208
37.174
9.70062
37.2293
9.95973
37.2858
37.3431
10.2093
0.437815
34.8965
0.892168
35.9272
1.34494
35.9607
1.79601
35.9704
2.24485
35.983
2.69092
35.9986
3.13368
36.0173
3.5726
36.0391
4.00716
36.0638
4.43683
36.0915
4.86113
36.1221
5.27957
36.1556
5.69167
36.1918
6.09698
36.2307
6.49507
36.2723
6.8855
36.3164
7.26788
36.363
7.64183
36.412
8.00698
36.4633
8.36298
36.5168
8.70953
36.5724
9.04631
36.6301
9.37306
36.6896
9.68953
36.751
9.99547
36.8141
10.2907
36.8788
10.575
36.945
10.8482
37.0125
37.081
11.1103
0.481969
34.4146
0.981708
35.4274
1.47957
35.4629
1.97539
35.4746
2.46858
35.4898
2.95849
35.5087
3.44446
35.5313
3.92588
35.5577
4.40213
35.5876
4.87259
35.6211
5.33668
35.658
5.79383
35.6984
6.24349
35.7421
6.68511
35.7891
7.11819
35.8392
7.54223
35.8924
7.95676
35.9485
8.36134
36.0074
8.75555
36.0691
9.13899
36.1334
9.51131
36.2001
9.87215
36.2692
10.2212
36.3406
10.5582
36.414
10.8829
36.4894
11.1951
36.5666
11.4945
36.6456
11.781
36.726
36.8075
12.0545
0.529108
33.8855
1.07724
34.8793
1.62315
34.917
2.16667
34.9311
2.70708
34.9494
3.24361
34.9722
3.77553
34.9994
4.30207
35.0311
4.82253
35.0671
5.33618
35.1074
5.84234
35.1519
6.34033
35.2004
6.82951
35.253
7.30926
35.3094
7.77896
35.3695
8.23805
35.4333
8.686
35.5005
9.12227
35.5712
9.5464
35.645
9.95793
35.7218
10.3564
35.8016
10.7416
35.8841
11.1129
35.9692
11.4702
36.0567
11.8132
36.1464
12.1416
36.2382
12.4552
36.332
12.7539
36.4274
36.524
13.0374
0.579066
33.3064
1.17843
34.2799
1.77519
34.3202
2.36914
34.3372
2.95947
34.3591
3.54527
34.3864
4.12567
34.419
4.69981
34.457
5.26683
34.5001
5.82591
34.5483
6.37625
34.6015
6.91705
34.6596
7.44757
34.7224
7.96708
34.7898
8.47489
34.8617
8.97033
34.9378
9.45278
35.0181
9.92164
35.1023
10.3764
35.1902
10.8164
35.2818
11.2414
35.3767
11.6508
35.4747
12.0442
35.5758
12.4214
35.6796
12.7819
35.7859
13.1256
35.8945
13.4522
36.0053
13.7616
36.118
36.232
14.0536
0.631574
32.6748
1.28471
33.6268
1.93484
33.6701
2.58171
33.6903
3.22439
33.7164
3.86183
33.7489
4.49303
33.7878
5.11697
33.833
5.73269
33.8844
6.33921
33.9418
6.93561
34.0051
7.52098
34.0742
8.09446
34.149
8.65519
34.2291
9.20239
34.3145
9.73528
34.4049
10.2531
34.5002
10.7553
34.6001
11.2411
34.7044
11.71
34.8129
12.1614
34.9252
12.5949
35.0413
13.01
35.1607
13.4064
35.2832
13.7836
35.4087
14.1414
35.5367
14.4797
35.6671
14.7982
35.7995
35.9335
15.0967
0.686246
31.9886
1.39531
32.9177
2.10093
32.9645
2.80283
32.9884
3.49991
33.0193
4.19101
33.0578
4.87496
33.1039
5.5506
33.1574
6.21682
33.2182
6.8725
33.2861
7.51659
33.3611
8.14803
33.4428
8.76583
33.5312
9.36902
33.6259
9.95668
33.7268
10.5279
33.8337
11.0819
33.9462
11.6179
34.0641
12.1352
34.1872
12.633
34.315
13.1108
34.4474
13.5681
34.584
14.0042
34.7245
14.4189
34.8685
14.8118
35.0158
15.1825
35.166
15.5308
35.3187
15.8566
35.4737
35.6306
16.1595
0.742571
31.246
1.50919
32.1511
2.27192
32.2017
3.03044
32.2299
3.78352
32.2662
4.52982
32.3115
5.26804
32.3657
5.99685
32.4286
6.71499
32.5
7.42119
32.5799
8.11424
32.668
8.79295
32.7641
9.45618
32.8679
10.1028
32.9793
10.7318
33.0979
11.3421
33.2234
11.9328
33.3555
12.503
33.4939
13.0519
33.6383
13.5786
33.7883
14.0826
33.9435
14.5631
34.1035
15.0197
34.2679
15.4518
34.4364
15.8591
34.6085
16.2412
34.7839
16.5979
34.962
16.929
35.1426
35.3254
17.2341
0.799907
30.4461
1.62505
31.326
2.44588
31.3809
3.26199
31.4137
4.07203
31.4562
4.87452
31.509
5.66797
31.5722
6.45093
31.6456
7.22193
31.729
7.97959
31.8223
8.7225
31.9251
9.44933
32.0373
10.1588
32.1585
10.8496
32.2885
11.5205
32.4269
12.1704
32.5735
12.7982
32.7277
13.4028
32.8893
13.9834
33.0577
14.539
33.2327
15.0688
33.4136
15.5722
33.6001
16.0484
33.7917
16.4969
33.9879
16.9174
34.1881
17.3094
34.3919
17.6727
34.5988
18.0071
34.8082
35.0205
18.312
0.857468
29.5886
1.74131
30.4421
2.62043
30.5018
3.49436
30.5398
4.36163
30.5889
5.22059
30.6501
6.06962
30.7232
6.90707
30.8082
7.73136
30.9047
8.5409
31.0127
9.33413
31.1319
10.1095
31.2618
10.8657
31.4024
11.6011
31.5531
12.3143
31.7137
13.0042
31.8836
13.6694
32.0626
14.3086
32.25
14.921
32.4454
15.5053
32.6484
16.0607
32.8582
16.5863
33.0745
17.0815
33.2965
17.5456
33.5238
17.978
33.7556
18.3785
33.9914
18.7466
34.2306
19.0822
34.4727
34.7181
19.3846
0.91435
28.6743
1.85616
29.5003
2.79288
29.5651
3.72399
29.6087
4.6479
29.665
5.56284
29.7351
6.46703
29.819
7.35868
29.9165
8.23603
30.0274
9.09733
30.1514
9.94086
30.2883
10.7649
30.4378
11.5679
30.5995
12.348
30.7729
13.1039
30.9578
13.8339
31.1536
14.5366
31.3598
15.2106
31.5759
15.8548
31.8013
16.4677
32.0354
17.0485
32.2775
17.5961
32.5269
18.1096
32.783
18.5883
33.045
19.0317
33.3122
19.4393
33.5838
19.8106
33.8593
20.1454
34.1379
34.4205
20.443
0.969536
27.7048
1.96754
28.5023
2.96018
28.5724
3.94686
28.622
4.92592
28.6859
5.89547
28.7656
6.8536
28.8609
7.79837
28.9717
8.72789
29.0979
9.64024
29.2391
10.5335
29.395
11.4058
29.5655
12.2553
29.7499
13.0802
29.9481
13.8786
30.1594
14.6489
30.3834
15.3893
30.6194
16.0983
30.867
16.7743
31.1253
17.416
31.3937
18.0221
31.6714
18.5914
31.9576
19.1229
32.2515
19.6158
32.5521
20.0693
32.8587
20.4827
33.1704
20.8557
33.4863
21.188
33.8056
34.1298
21.4787
1.02193
26.6828
2.07328
27.451
3.11908
27.5266
4.15869
27.5824
5.1904
27.6542
6.21224
27.7437
7.2222
27.8509
8.21823
27.9757
9.1983
28.1178
10.1603
28.277
11.1022
28.4531
12.022
28.6457
12.9175
28.8545
13.7867
29.0789
14.6275
29.3185
15.438
29.5728
16.2163
29.8412
16.9604
30.1228
17.6687
30.417
18.3394
30.723
18.971
31.0398
19.5621
31.3665
20.1116
31.702
20.6183
32.0455
21.0813
32.3957
21.4998
32.7519
21.8733
33.1128
22.2016
33.4774
33.8481
22.4833
1.07042
25.6124
2.17109
26.3503
3.2662
26.4315
4.35502
26.4936
5.43586
26.5734
6.5067
26.6729
7.56547
26.7922
8.61004
26.9311
9.63825
27.0896
10.6479
27.2674
11.6368
27.4643
12.6026
27.6799
13.5431
27.914
14.456
28.166
15.3389
28.4356
16.1896
28.7221
17.0059
29.0249
17.7856
29.3431
18.5265
29.6761
19.2268
30.0227
19.8845
30.3821
20.498
30.753
21.0657
31.1343
21.5864
31.5247
22.0587
31.9234
22.482
32.3286
22.8554
32.7394
23.1781
33.1546
33.5766
23.4496
1.11387
24.4985
2.25876
25.2054
3.39821
25.2921
4.53146
25.3604
5.65687
25.448
6.77244
25.5573
7.87606
25.6885
8.96558
25.8416
10.0388
26.0164
11.0933
26.2129
12.1268
26.4307
13.1369
26.6698
14.121
26.9299
15.0766
27.2104
16.0011
27.5111
16.892
27.8313
17.7465
28.1703
18.5623
28.5274
19.3367
28.9017
20.0674
29.292
20.7521
29.6973
21.3888
30.1163
21.9758
30.5474
22.5108
30.9897
22.9933
31.4409
23.4211
31.9009
23.7936
32.3669
24.1113
32.8369
33.318
24.3699
1.15125
23.3473
2.33419
24.0225
3.512
24.1143
4.68389
24.1885
5.84834
24.2835
7.0034
24.4022
8.14702
24.5449
9.27704
24.7116
10.3912
24.9023
11.4871
25.1169
12.5624
25.3555
13.6143
25.6179
14.6402
25.9039
15.6373
26.2133
16.6027
26.5457
17.5335
26.9005
18.4266
27.2772
19.2791
27.675
20.088
28.0928
20.8503
28.5297
21.5636
28.9841
22.2251
29.4548
22.8321
29.9404
23.3841
30.4377
23.876
30.949
24.3099
31.467
24.6835
31.9933
24.9915
32.5289
33.0688
25.2407
1.18164
22.1656
2.39555
22.8086
3.60482
22.905
4.80867
22.9846
6.00572
23.0865
7.19418
23.2138
8.37208
23.367
9.53735
23.5463
10.6877
23.7519
11.8209
23.9838
12.9342
24.2422
14.025
24.5271
15.0905
24.8385
16.1275
25.1763
17.1328
25.5403
18.1032
25.9302
19.0351
26.3453
19.9252
26.7849
20.7697
27.2483
21.5657
27.7337
22.3091
28.2407
22.9971
28.7668
23.6282
29.3092
24.1945
29.8715
24.7032
30.4403
25.1422
31.028
25.5114
31.624
25.8235
32.2168
32.8411
26.0511
1.20432
20.9613
2.44137
21.5715
3.67447
21.6719
4.90284
21.7562
6.12532
21.864
7.34032
21.9988
8.54604
22.1613
9.74053
22.3518
10.9217
22.5707
12.0871
22.8183
13.2343
23.095
14.3604
23.4009
15.4625
23.7364
16.5373
24.1015
17.5813
24.4964
18.5907
24.9207
19.5618
25.3742
20.4902
25.8565
21.3725
26.3659
22.203
26.9032
22.9798
27.4638
23.6981
28.0484
24.3494
28.658
24.9464
29.2745
25.4588
29.9279
25.9087
30.5781
26.2948
31.2379
26.5766
31.935
32.6087
26.8091
1.21878
19.7425
2.47065
20.3196
3.71942
20.4231
4.96433
20.5113
6.20449
20.6238
7.43856
20.7647
8.665
20.9349
9.88205
21.1348
11.0877
21.365
12.2799
21.6262
13.456
21.9189
14.6133
22.2436
15.7486
22.601
16.8586
22.9915
17.9395
23.4155
18.9873
23.873
19.9972
24.3643
20.9657
24.888
21.8852
25.4463
22.756
26.0324
23.5665
26.6534
24.3141
27.3008
25.0084
27.9637
25.6029
28.6799
26.1581
29.3727
26.6196
30.1165
26.9723
30.8852
27.3021
31.6053
32.419
27.4918
1.22479
18.5177
2.48291
19.0615
3.73891
19.1671
4.99207
19.2582
6.24179
19.3741
7.48706
19.5194
8.72664
19.6953
9.95905
19.9024
11.1826
20.1415
12.3952
20.4136
13.5946
20.7195
14.7781
21.0601
15.9426
21.4365
17.0846
21.8495
18.2002
22.2999
19.2848
22.7884
20.3343
23.3148
21.3407
23.8816
22.3055
24.4816
23.2096
25.1283
24.0631
25.7998
24.8564
26.5076
25.5482
27.2719
26.2264
28.0017
26.7606
28.8385
27.2251
29.6521
27.662
30.4483
27.9063
31.361
32.2018
28.1235
1.22241
17.2953
2.47822
17.8057
3.733
17.9123
4.98605
18.0051
6.23711
18.123
7.48552
18.271
8.73039
18.4504
9.97057
18.6622
11.2047
18.9074
12.431
19.1872
13.6475
19.503
14.8517
19.856
16.0406
20.2476
17.2107
20.6794
18.3579
21.1527
19.478
21.6684
20.5637
22.229
21.6159
22.8294
22.6118
23.4856
23.5739
24.1662
24.462
24.9118
25.2722
25.6974
26.0724
26.4716
26.6874
27.3868
27.3038
28.2221
27.8298
29.1261
28.1572
30.1209
28.4956
31.0226
32.0221
28.6753
1.2119
16.0834
2.45713
16.5605
3.70248
16.667
4.94726
16.7604
6.19156
16.8787
7.4351
17.0275
8.67735
17.2082
9.91759
17.422
11.1548
17.6702
12.3877
17.9544
13.6145
18.2762
14.8331
18.6374
16.0407
19.04
17.2342
19.4859
18.4094
19.9775
19.561
20.5168
20.6873
21.1027
21.7685
21.7483
22.8303
22.4239
23.8089
23.1876
24.7527
23.9679
25.6561
24.794
26.3847
25.743
27.1511
26.6203
27.772
27.6013
28.2389
28.6592
28.7192
29.6405
28.9961
30.7456
31.8401
29.1782
1.19378
14.8897
2.42067
15.3336
3.64884
15.4388
4.87761
15.5316
6.10739
15.649
7.33829
15.7966
8.5702
15.9762
9.80281
16.1893
11.0355
16.4375
12.2675
16.7224
13.4975
17.0462
14.7236
17.4112
15.9439
17.8197
17.1549
18.2749
18.3533
18.779
19.5354
19.3347
20.6882
19.9498
21.83
20.6064
22.8956
21.3584
23.9667
22.1165
24.9523
22.9823
25.8285
23.9178
26.7347
24.8368
27.4647
25.8904
28.0953
26.9706
28.701
28.0536
29.1064
29.2351
29.4026
30.4494
31.6676
29.5751
1.16875
13.7209
2.37023
14.1321
3.57411
14.2349
4.77973
14.326
5.98777
14.4409
7.19875
14.5856
8.41295
14.762
9.63051
14.9718
10.8513
15.2167
12.0749
15.4988
13.3006
15.8205
14.5273
16.1845
15.7529
16.5941
16.9757
17.0521
18.1914
17.5633
19.3946
18.1316
20.5915
18.753
21.7351
19.4628
22.9038
20.1896
23.9657
21.0547
25.0052
21.9429
26.0131
22.9098
26.9082
23.9418
27.695
25.1035
28.4058
26.2598
28.9886
27.4707
29.4493
28.7744
29.7956
30.1032
31.5011
29.9621
1.13764
12.5833
2.30748
12.9623
3.48076
13.0617
4.65683
13.1499
5.83663
13.2611
7.02102
13.4012
8.2107
13.5724
9.40621
13.7763
10.6079
14.015
11.816
14.2907
13.0301
14.6063
14.2497
14.9649
15.474
15.3698
16.7003
15.8259
17.9271
16.3365
19.1532
16.9055
20.3546
17.5516
21.5825
18.2349
22.719
19.0532
23.8834
19.8902
24.9909
20.8354
26.0395
21.8611
26.9428
23.0385
27.8203
24.226
28.6128
25.4673
29.2307
26.8528
29.7156
28.2896
30.0746
29.7442
31.317
30.2587
1.10137
11.4819
2.23425
11.8294
3.37151
11.9244
4.51248
12.0089
5.65834
12.1153
6.81025
12.2493
7.96929
12.4133
9.1364
12.6092
10.3124
12.839
11.4979
13.1052
12.6934
13.4109
13.8988
13.7595
15.1136
14.155
16.3373
14.6021
17.5684
15.1054
18.7967
15.6772
20.0486
16.2996
21.2443
17.0392
22.4892
17.8084
23.6685
18.7109
24.8093
19.6946
25.8682
20.8022
26.9704
21.9364
27.9226
23.2738
28.6568
24.7331
29.373
26.1366
29.9791
27.6834
30.3114
29.4119
31.1696
30.4588
1.06088
10.421
2.15245
10.7378
3.24919
10.8277
4.35045
10.9077
5.45755
11.0081
6.57195
11.1349
7.69503
11.2902
8.82813
11.4761
9.97246
11.6946
11.1292
11.9485
12.2991
12.2409
13.4833
12.5753
14.6814
12.957
15.8949
13.3886
17.1174
13.8829
18.3657
14.4289
19.5898
15.0755
20.8579
15.7711
22.1083
16.558
23.3253
17.4939
24.5168
18.5031
25.7479
19.571
26.7713
20.913
27.8075
22.2376
28.7712
23.7694
29.4592
25.4487
29.9997
27.1429
30.4969
28.9148
30.9272
30.7392
1.01711
9.40391
2.06396
9.69097
3.11665
9.77497
4.17448
9.84984
5.23894
9.94369
6.31168
10.0622
7.39437
10.2076
8.48865
10.3818
9.59616
10.5871
10.7183
10.8263
11.857
11.1022
13.0125
11.4199
14.1886
11.7809
15.379
12.1982
16.6011
12.6608
17.8181
13.2119
19.0867
13.8069
20.3653
14.4925
21.5952
15.3281
22.8823
16.2068
24.182
17.2034
25.3205
18.4326
26.5619
19.6716
27.6106
21.1888
28.5923
22.7877
29.5123
24.5287
30.1808
26.4744
30.5221
28.5735
30.6931
30.7562
0.970961
8.43295
1.9706
8.69132
2.97659
8.76899
3.9882
8.83823
5.00701
8.92487
6.03486
9.03433
7.07361
9.16881
8.12519
9.33022
9.19147
9.52083
10.2746
9.74316
11.3758
10.0011
12.4992
10.2965
13.6401
10.6399
14.8161
11.0222
15.995
11.482
17.2338
11.9731
18.4741
12.5665
19.6997
13.2669
21.0516
13.9763
22.362
14.8964
23.5983
15.9671
24.933
17.0978
26.1741
18.4305
27.4253
19.9377
28.4392
21.7738
29.3513
23.6166
30.1073
25.7184
30.7249
27.9559
30.496
30.922
0.923254
7.50969
1.87404
7.74054
2.83152
7.81151
3.79497
7.87478
4.766
7.95384
5.74657
8.05376
6.73873
8.17665
7.74456
8.32439
8.76632
8.49906
9.80592
8.70356
10.867
8.94004
11.9477
9.21575
13.0619
9.52571
14.1848
9.89921
15.371
10.2958
16.548
10.7962
17.7712
11.3433
19.0947
11.9434
20.3207
12.7502
21.6492
13.5679
23.0495
14.5667
24.3928
15.7546
25.6834
17.1399
26.8915
18.7296
28.2056
20.4597
29.2169
22.6053
30.0917
24.8436
30.613
27.4345
30.1583
30.9507
0.874726
6.63497
1.77576
6.8395
2.6837
6.90357
3.59781
6.96067
4.51972
7.03193
5.45147
7.12202
6.39518
7.23294
7.35315
7.36643
8.32761
7.5246
9.32155
7.70962
10.3358
7.92584
11.3789
8.17259
12.4375
8.46713
13.5522
8.78446
14.6574
9.1906
15.845
9.60868
17.0667
10.1216
18.2487
10.7614
19.6229
11.376
20.9366
12.2542
22.2696
13.2337
23.6739
14.3503
25.1207
15.6931
26.512
17.3383
27.747
19.2247
28.9245
21.4278
29.903
23.8651
30.6939
26.6436
29.8757
30.9765
0.826015
5.80895
1.67707
5.98844
2.5351
6.04554
3.39939
6.09639
4.27155
6.15977
5.15363
6.23994
6.04785
6.33872
6.95651
6.45776
7.88227
6.59885
8.82712
6.76476
9.79627
6.95669
10.7853
7.18358
11.8176
7.43478
12.8521
7.75002
13.9694
8.0733
15.0837
8.49437
16.2335
8.9718
17.5369
9.45799
18.7218
10.1911
20.069
10.907
21.5149
11.7879
22.9425
12.9226
24.372
14.2636
25.8535
15.8567
27.3138
17.7644
28.6008
20.1409
29.7027
22.7632
30.4819
25.8644
29.3368
31.0208
0.77766
5.03129
1.57906
5.18705
2.3874
5.23719
3.20197
5.28182
4.02435
5.33739
4.85658
5.4077
5.7009
5.4944
6.5597
5.59896
7.43544
5.72311
8.33128
5.86892
9.24853
6.03944
10.1962
6.23591
11.1619
6.46908
12.1845
6.72746
13.2121
7.04568
14.3012
7.40526
15.4772
7.79577
16.5793
8.35589
17.9103
8.86011
19.228
9.58932
20.568
10.4479
22.027
11.4636
23.572
12.7185
25.179
14.2498
26.6702
16.2732
28.1467
18.6644
29.4068
21.5031
30.4553
24.8158
28.8522
30.94
0.730101
4.30119
1.48263
4.43452
2.24197
4.47784
3.00743
4.51637
3.78052
4.5643
4.56328
4.62494
5.35791
4.69977
6.16674
4.79013
6.99251
4.89734
7.83737
5.02405
8.70653
5.17028
9.59717
5.34528
10.5279
5.53836
11.4749
5.78043
12.4792
6.04134
13.5288
6.35571
14.5772
6.74739
15.7865
7.14661
16.9647
7.68186
18.2359
8.31818
19.6431
9.04063
21.0761
10.0306
22.6726
11.1221
24.2751
12.6472
25.9883
14.5601
27.6242
17.0285
29.0965
20.0307
30.2289
23.6835
28.1658
30.9152
0.68369
3.6175
1.3885
3.72971
2.09993
3.76641
2.81728
3.79902
3.54202
3.83955
4.27612
3.89085
5.02174
3.95415
5.78115
4.03071
6.55711
4.12138
7.35167
4.22949
8.17012
4.35183
9.00963
4.50577
9.8903
4.65769
10.7777
4.89302
11.76
5.05906
12.6887
5.42702
13.8041
5.632
14.8277
6.12299
16.0445
6.46502
17.2863
7.07641
18.6075
7.71942
20.0586
8.57945
21.6744
9.50629
23.29
11.0316
25.1311
12.719
26.9962
15.1634
28.6438
18.3831
30.0365
22.2909
27.2586
30.9437
0.638696
2.9788
1.29724
3.07117
1.96214
3.10151
2.63271
3.12845
3.31037
3.1619
3.99699
3.20423
4.69468
3.25647
5.40564
3.31974
6.13248
3.39454
6.87764
3.48433
7.64451
3.58497
8.43714
3.71313
9.25372
3.84111
10.1183
4.0284
10.9929
4.18451
11.9396
4.48034
12.963
4.60859
13.9374
5.1486
15.1298
5.2726
16.251
5.95517
17.603
6.3675
18.9899
7.19256
20.5379
7.95825
22.1987
9.37083
24.1862
10.7314
26.1368
13.2128
28.2229
16.2971
29.815
20.6987
26.0647
31.0088
0.595317
2.38348
1.20927
2.45722
1.82925
2.48152
2.45461
2.50309
3.08671
2.5298
3.72733
2.5636
4.3785
2.6053
5.04226
2.65598
5.7215
2.7153
6.41685
2.78899
7.13822
2.86359
7.86809
2.98326
8.66344
3.04576
9.41559
3.27625
10.3252
3.27486
11.1318
3.67378
12.1336
3.60682
13.0353
4.2469
14.2206
4.08728
15.24
4.93581
16.585
5.02242
17.8276
5.95
19.486
6.29982
21.0221
7.83474
23.0991
8.65448
25.129
11.1829
27.5261
13.9
29.6013
18.6236
24.5595
31.1064
0.553689
1.8298
1.12486
1.88605
1.7017
1.90469
2.28358
1.9212
2.87184
1.94155
3.46815
1.96729
4.0744
1.99905
4.69264
2.03775
5.32515
2.08279
5.97455
2.13959
6.6429
2.19524
7.33674
2.28942
8.05047
2.33203
8.80536
2.52136
9.59595
2.48427
10.3836
2.88612
11.3456
2.64483
12.1619
3.43059
13.2839
2.96532
14.2711
3.94853
15.5643
3.72926
16.7527
4.76155
18.2933
4.7593
19.8686
6.25941
21.8929
6.63016
23.9157
9.16007
26.9072
10.9085
29.2589
16.2719
22.2169
31.6015
0.513923
1.31587
1.04429
1.35568
1.57987
1.36911
2.1202
1.38088
2.66651
1.39524
3.22037
1.41342
3.78357
1.43585
4.35801
1.4633
4.94602
1.49478
5.54921
1.5364
6.17311
1.57134
6.81226
1.65027
7.49121
1.65308
8.17211
1.84047
8.9246
1.73177
9.67992
2.13081
10.5052
1.8196
11.3477
2.58808
12.3859
1.9271
13.2361
3.09832
14.5186
2.44675
15.6338
3.6464
17.1331
3.25995
18.6173
4.77517
20.5683
4.67916
22.6822
7.04619
25.6336
7.95705
28.9019
13.0037
19.1842
31.9345
0.475945
0.839927
0.967304
0.864319
1.46339
0.873022
1.96392
0.880347
2.47004
0.889118
2.98322
0.900245
3.50509
0.913987
4.03749
0.930902
4.58246
0.949803
5.14193
0.976937
5.71997
0.993293
6.31498
1.05527
6.93875
1.02931
7.58983
1.18939
8.25027
1.07133
9.01355
1.36752
9.72943
1.10371
10.5905
1.72701
11.4047
1.11294
12.4462
2.05682
13.4488
1.44408
14.6671
2.42815
15.9366
1.99046
17.5799
3.13185
19.2744
2.98465
21.7188
4.60179
24.3527
5.32311
28.4482
8.9082
14.6557
32.9767
0.440652
0.399275
0.896276
0.408695
1.35595
0.413344
1.81979
0.416507
2.28883
0.420079
2.76443
0.42465
3.24806
0.430357
3.74153
0.437427
4.24605
0.445289
4.76587
0.45712
5.29557
0.463592
5.86021
0.490621
6.40697
0.482548
7.04717
0.549185
7.61813
0.500381
8.35081
0.634839
8.94212
0.512405
9.85089
0.818235
10.4614
0.502484
11.5396
0.978546
12.3084
0.675349
13.5747
1.16178
14.6178
0.947391
16.2739
1.47579
17.7876
1.47093
20.2419
2.1475
22.9014
2.66359
27.9079
3.90169
8.16993
34.3937
0.399275
0.807971
1.22131
1.63782
2.0579
2.48255
2.91291
3.35033
3.79562
4.25274
4.71633
5.20696
5.6895
6.23869
6.73907
7.37391
7.88631
8.70455
9.20703
10.1856
10.8609
12.0227
12.9701
14.4459
15.9168
18.0643
20.7279
24.6296
32.7995
1.40673
54.0941
1.4521
54.0949
1.49699
54.0953
1.54136
54.0959
1.58516
54.0964
1.62838
54.097
1.67096
54.0977
1.71287
54.0983
1.75409
54.099
1.79459
54.0997
1.83433
54.1005
1.8733
54.1013
1.91147
54.1021
1.94881
54.1029
1.9853
54.1037
2.02093
54.1046
2.05568
54.1055
2.08952
54.1064
2.12245
54.1073
2.15443
54.1082
2.18547
54.1092
2.21554
54.1102
2.24464
54.1111
2.27274
54.1121
2.29985
54.1131
2.32595
54.1141
2.35102
54.1152
2.37507
54.1162
2.39807
54.1172
2.42004
54.1183
2.44095
54.1193
2.46081
54.1204
2.47961
54.1214
2.49735
54.1225
2.51401
54.1236
2.52961
54.1246
2.54413
54.1257
2.55758
54.1268
2.56996
54.1279
2.58126
54.1289
2.59148
54.13
2.60063
54.1311
2.60871
54.1322
2.61572
54.1332
2.62167
54.1343
2.62655
54.1354
2.63038
54.1364
2.63314
54.1375
2.63487
54.1385
2.63557
54.1395
2.63524
54.1406
2.63389
54.1416
2.63153
54.1426
2.62817
54.1436
2.6238
54.1446
2.61845
54.1456
2.61212
54.1466
2.60482
54.1475
2.59656
54.1485
2.58735
54.1494
2.57719
54.1504
2.5661
54.1513
2.5541
54.1522
2.54119
54.1531
2.52737
54.154
2.51267
54.1549
2.49709
54.1558
2.48065
54.1567
2.46335
54.1575
2.44522
54.1584
2.42625
54.1592
2.40646
54.16
2.38587
54.1608
2.36448
54.1616
2.34231
54.1624
2.31937
54.1632
2.29566
54.1639
2.27121
54.1647
2.24603
54.1654
2.22012
54.1661
2.1935
54.1669
2.16618
54.1676
2.13817
54.1682
2.10949
54.1689
2.08014
54.1696
2.05013
54.1702
2.01949
54.1709
1.98822
54.1715
1.95632
54.1721
1.92383
54.1727
1.89074
54.1733
1.85706
54.1739
1.82281
54.1745
1.788
54.175
1.75263
54.1756
1.71672
54.1761
1.68028
54.1767
1.64331
54.1772
1.60583
54.1777
1.56784
54.1782
1.52936
54.1787
1.49039
54.1792
1.45093
54.1797
1.41101
54.1802
1.37061
54.1806
1.32976
54.1811
1.28844
54.1815
1.24668
54.182
1.20447
54.1824
1.16181
54.1829
1.11871
54.1833
1.07517
54.1838
1.03118
54.1842
0.986755
54.1847
0.941878
54.1851
0.896553
54.1856
0.850765
54.186
0.804517
54.1865
0.757791
54.187
0.710579
54.1874
0.662859
54.188
0.614619
54.1885
0.56583
54.189
0.516471
54.1896
0.46651