/*--------------------------------*- C++ -*----------------------------------*\
| =========                 |                                                 |
| \\      /  F ield         | OpenFOAM: The Open Source CFD Toolbox           |
|  \\    /   O peration     | Version:  5.x                                   |
|   \\  /    A nd           | Web:      www.OpenFOAM.org                      |
|    \\/     M anipulation  |                                                 |
\*---------------------------------------------------------------------------*/
/*   Windows 32 and 64 bit porting by blueCAPE: http://www.bluecape.com.pt   *\
|  Based on Windows porting (2.0.x v4) by Symscape: http://www.symscape.com   |
\*---------------------------------------------------------------------------*/
FoamFile
{
    version     2.0;
    format      ascii;
    class       volVectorField;
    location    "20";
    object      U;
}
// * * * * * * * * * * * * * * * * * * * * * * * * * * * * * * * * * * * * * //

dimensions      [0 1 -1 0 0 0 0];

internalField   nonuniform List<vector> 
43900
(
(1.12474 0.000618937 -2.27681e-027)
(1.13189 0.00111673 -6.1118e-027)
(1.13191 0.000976301 1.68064e-030)
(1.13189 0.00111153 2.00398e-030)
(1.13188 0.00116854 2.03895e-030)
(1.13186 0.00123814 2.13349e-030)
(1.13185 0.00130888 8.14193e-027)
(1.13184 0.00138091 -1.62748e-026)
(1.13183 0.00145407 4.82465e-030)
(1.13182 0.00152824 -1.62599e-026)
(1.13181 0.00160332 1.62701e-026)
(1.1318 0.00167918 5.39744e-030)
(1.1318 0.00175572 -1.62432e-026)
(1.13179 0.00183284 1.15669e-029)
(1.13179 0.00191046 1.19539e-029)
(1.13178 0.00198848 1.23409e-029)
(1.13178 0.00206683 -3.24362e-026)
(1.13177 0.00214543 2.62276e-029)
(1.13177 0.00222421 3.24493e-026)
(1.13177 0.00230309 1.38829e-029)
(1.13177 0.00238204 1.42653e-029)
(1.13176 0.00246054 1.46462e-029)
(1.13176 0.00253848 1.50252e-029)
(1.13176 0.00261627 1.54019e-029)
(1.13176 0.00269387 1.57761e-029)
(1.13176 0.0027712 -3.2301e-026)
(1.13176 0.00284824 3.30323e-029)
(1.13176 0.0029249 3.37635e-029)
(1.13176 0.00300157 1.29098e-025)
(1.16363 0.00141883 0)
(1.17883 0.000725145 0)
(1.17891 0.00133893 0)
(1.17888 0.00137199 0)
(1.17886 0.00154949 0)
(1.17884 0.00171488 0)
(1.17882 0.00187938 0)
(1.17881 0.00204339 0)
(1.1788 0.00220689 0)
(1.17879 0.00236992 0)
(1.17878 0.00253245 0)
(1.17877 0.00269451 0)
(1.17876 0.00285605 0)
(1.17876 0.0030171 0)
(1.17875 0.00317757 0)
(1.17875 0.00333749 0)
(1.17875 0.00349676 0)
(1.17875 0.00365541 0)
(1.17875 0.00381333 0)
(1.17875 0.00397052 0)
(1.17876 0.00412761 0)
(1.17879 0.00428193 0)
(1.17879 0.00443678 0)
(1.1788 0.00459033 0)
(1.17881 0.00474279 0)
(1.17882 0.00489421 0)
(1.17883 0.00504443 0)
(1.17884 0.00519342 0)
(1.17885 0.00534038 0)
(1.14793 0.00173829 0)
(1.17455 0.000569833 0)
(1.17489 0.00159942 0)
(1.17487 0.00147103 0)
(1.17485 0.00174945 0)
(1.17483 0.00194967 0)
(1.17481 0.00215344 0)
(1.1748 0.00235778 0)
(1.17479 0.00256235 0)
(1.17478 0.00276704 0)
(1.17477 0.00297167 0)
(1.17476 0.00317617 0)
(1.17476 0.00338036 0)
(1.17476 0.0035842 0)
(1.17476 0.00378723 0)
(1.17476 0.00399071 0)
(1.17477 0.00419295 0)
(1.17477 0.00439469 0)
(1.17478 0.00459547 0)
(1.17479 0.00479469 0)
(1.17481 0.00499486 0)
(1.17483 0.00519159 0)
(1.17484 0.00539179 0)
(1.17486 0.00558925 0)
(1.17488 0.00578461 0)
(1.17491 0.00597977 0)
(1.17493 0.00617211 0)
(1.17496 0.00636289 0)
(1.17499 0.00655348 2.0542e-027)
(1.12129 0.000796817 0)
(1.15492 0.000560247 0)
(1.15556 0.00116087 0)
(1.15555 0.00134295 0)
(1.15553 0.00165049 0)
(1.15551 0.00193505 0)
(1.1555 0.00222062 0)
(1.1555 0.00250539 0)
(1.15549 0.00278914 0)
(1.15549 0.00307201 0)
(1.15549 0.00335381 0)
(1.1555 0.00363468 0)
(1.15551 0.00391444 0)
(1.15552 0.00419327 0)
(1.15554 0.00447094 0)
(1.15555 0.00474721 0)
(1.15557 0.00502247 0)
(1.15559 0.00529672 0)
(1.15562 0.00557004 0)
(1.15564 0.0058423 0)
(1.15568 0.00611391 0)
(1.15566 0.00638509 0)
(1.15569 0.00665845 0)
(1.15573 0.00693029 0)
(1.15576 0.00720085 0)
(1.1558 0.00746613 0)
(1.15584 0.0077231 0)
(1.15588 0.00796959 0)
(1.15593 0.00820889 2.22937e-027)
(1.12318 0.000340989 4.66432e-027)
(1.15712 0.000445603 0)
(1.15783 0.000892352 0)
(1.15782 0.00119399 0)
(1.15782 0.00153192 0)
(1.15782 0.00186072 0)
(1.15783 0.00218785 0)
(1.15784 0.00251275 0)
(1.15785 0.00283514 0)
(1.15787 0.00315526 0)
(1.15789 0.00347277 0)
(1.15792 0.00378783 0)
(1.15794 0.00410011 0)
(1.15798 0.00440967 0)
(1.15801 0.00471636 0)
(1.15805 0.00501959 0)
(1.15809 0.00531961 0)
(1.15814 0.00561599 0)
(1.15819 0.00590851 0)
(1.15824 0.00619692 0)
(1.1583 0.00648066 0)
(1.15832 0.00675902 0)
(1.15838 0.00703238 0)
(1.15844 0.00730129 0)
(1.15851 0.00756591 0)
(1.15858 0.00782422 0)
(1.15865 0.00808176 0)
(1.15872 0.00833341 0)
(1.15878 0.00860386 -9.28387e-027)
(1.1224 0.000223365 -4.92837e-027)
(1.15651 0.000533423 0)
(1.15725 0.000925567 0)
(1.15726 0.00127473 0)
(1.15727 0.00163594 0)
(1.15729 0.00199426 0)
(1.15731 0.00235171 0)
(1.15734 0.00270809 0)
(1.15737 0.00306302 0)
(1.1574 0.00341662 0)
(1.15744 0.00376853 0)
(1.15748 0.00411885 0)
(1.15753 0.0044673 0)
(1.15758 0.00481393 0)
(1.15764 0.00515867 0)
(1.1577 0.00550125 0)
(1.15777 0.00584185 0)
(1.15784 0.00618035 0)
(1.15792 0.00651671 0)
(1.158 0.00685112 0)
(1.15809 0.0071832 0)
(1.15815 0.00751354 0)
(1.15825 0.00783949 0)
(1.15835 0.00816214 0)
(1.15846 0.00848437 0)
(1.15857 0.00881031 0)
(1.15869 0.00914059 0)
(1.15881 0.00948082 0)
(1.15893 0.00980172 4.89371e-027)
(1.11861 0.000176317 0)
(1.15285 0.00058752 0)
(1.15362 0.000988264 0)
(1.15364 0.00137602 0)
(1.15366 0.00176949 0)
(1.15369 0.00216152 0)
(1.15373 0.00255244 0)
(1.15377 0.00294222 0)
(1.15382 0.00333055 0)
(1.15387 0.00371746 0)
(1.15393 0.00410265 0)
(1.15399 0.00448616 0)
(1.15406 0.0048677 0)
(1.15414 0.00524726 0)
(1.15422 0.00562469 0)
(1.15431 0.00599986 0)
(1.15441 0.00637266 0)
(1.1545 0.00674301 0)
(1.15461 0.00711073 0)
(1.15472 0.00747583 0)
(1.15483 0.00783863 0)
(1.15495 0.00819675 0)
(1.15508 0.00855184 0)
(1.15521 0.00890392 0)
(1.15534 0.00925179 0)
(1.15548 0.00959515 0)
(1.15563 0.00993282 0)
(1.15579 0.0102665 0)
(1.15595 0.0105932 0)
(1.11324 0.000185424 0)
(1.14721 0.000692103 0)
(1.14797 0.00116345 0)
(1.148 0.00163128 0)
(1.14803 0.00210307 0)
(1.14807 0.00257382 0)
(1.14812 0.00304329 0)
(1.14817 0.00351132 0)
(1.14823 0.00397764 0)
(1.1483 0.00444207 0)
(1.14838 0.0049044 0)
(1.14847 0.00536442 0)
(1.14856 0.00582193 0)
(1.14866 0.0062767 0)
(1.14877 0.00672857 0)
(1.14888 0.0071773 0)
(1.149 0.00762273 0)
(1.14913 0.00806461 0)
(1.14927 0.00850281 0)
(1.14941 0.008937 0)
(1.14956 0.00936746 0)
(1.14972 0.00979286 0)
(1.14988 0.0102139 0)
(1.15005 0.0106302 0)
(1.15022 0.0110416 0)
(1.15041 0.0114479 0)
(1.15059 0.0118489 0)
(1.15079 0.0122448 0)
(1.15099 0.0126351 0)
(1.10919 0.000224986 0)
(1.14295 0.000814101 0)
(1.14371 0.00136853 0)
(1.14375 0.00191868 0)
(1.14379 0.00247296 0)
(1.14384 0.00302587 0)
(1.1439 0.00357742 0)
(1.14397 0.004127 0)
(1.14405 0.00467459 0)
(1.14414 0.00521968 0)
(1.14424 0.00576224 0)
(1.14434 0.00630177 0)
(1.14446 0.00683819 0)
(1.14459 0.00737108 0)
(1.14473 0.00790031 0)
(1.14487 0.00842551 0)
(1.14503 0.00894654 0)
(1.14519 0.00946306 0)
(1.14537 0.00997487 0)
(1.14555 0.0104817 0)
(1.14574 0.0109834 0)
(1.14594 0.0114796 0)
(1.14615 0.0119702 0)
(1.14636 0.012455 0)
(1.14659 0.0129337 0)
(1.14682 0.0134062 0)
(1.14706 0.0138723 0)
(1.14731 0.0143319 0)
(1.14756 0.0147844 0)
(1.10456 0.000266078 0)
(1.1381 0.000955377 0)
(1.13887 0.00160481 0)
(1.13891 0.0022485 0)
(1.13896 0.00289692 0)
(1.13903 0.00354367 0)
(1.1391 0.00418865 0)
(1.13919 0.00483114 0)
(1.13929 0.00547112 0)
(1.1394 0.00610793 0)
(1.13953 0.00674152 0)
(1.13967 0.00737129 0)
(1.13982 0.00799712 0)
(1.13998 0.00861848 0)
(1.14015 0.00923522 0)
(1.14034 0.00984687 0)
(1.14053 0.0104533 0)
(1.14074 0.0110539 0)
(1.14096 0.0116487 0)
(1.14119 0.0122372 0)
(1.14143 0.0128192 0)
(1.14168 0.0133944 0)
(1.14194 0.0139625 0)
(1.14221 0.0145233 0)
(1.1425 0.0150764 0)
(1.14279 0.0156217 0)
(1.14309 0.0161589 0)
(1.1434 0.0166882 0)
(1.14372 0.0172086 -1.30484e-026)
(1.09923 0.000312877 0)
(1.13254 0.00112101 0)
(1.13331 0.0018825 0)
(1.13336 0.00263711 0)
(1.13342 0.003397 0)
(1.1335 0.00415484 0)
(1.1336 0.00491027 0)
(1.13371 0.00566262 0)
(1.13384 0.00641164 0)
(1.13398 0.00715668 0)
(1.13414 0.0078975 0)
(1.13431 0.0086335 0)
(1.1345 0.00936439 0)
(1.1347 0.0100896 0)
(1.13492 0.0108089 0)
(1.13515 0.0115217 0)
(1.13539 0.0122277 0)
(1.13565 0.0129264 0)
(1.13593 0.0136177 0)
(1.13622 0.0143009 0)
(1.13652 0.0149758 0)
(1.13683 0.0156421 0)
(1.13716 0.0162994 0)
(1.1375 0.0169473 0)
(1.13785 0.0175856 0)
(1.13821 0.0182139 0)
(1.13858 0.018832 0)
(1.13897 0.0194399 0)
(1.13936 0.0200366 1.37826e-026)
(1.0933 0.000368611 0)
(1.12635 0.00131661 0)
(1.12713 0.00221069 0)
(1.1272 0.00309657 0)
(1.12727 0.00398827 0)
(1.12737 0.00487743 0)
(1.12749 0.00576338 0)
(1.12763 0.00664544 0)
(1.12779 0.00752313 0)
(1.12797 0.00839579 0)
(1.12816 0.00926295 0)
(1.12838 0.0101239 0)
(1.12861 0.0109783 0)
(1.12886 0.0118255 0)
(1.12913 0.012665 0)
(1.12942 0.0134962 0)
(1.12973 0.0143187 0)
(1.13005 0.0151319 0)
(1.13039 0.0159355 0)
(1.13075 0.0167289 0)
(1.13112 0.0175116 0)
(1.13151 0.0182833 0)
(1.13191 0.0190436 0)
(1.13233 0.0197919 0)
(1.13277 0.020528 0)
(1.13322 0.0212514 0)
(1.13368 0.0219618 0)
(1.13415 0.0226592 0)
(1.13464 0.0233427 1.51171e-026)
(1.08672 0.000434694 0)
(1.11949 0.0015471 0)
(1.12028 0.0025974 0)
(1.12036 0.00363786 0)
(1.12046 0.00468472 0)
(1.12058 0.00572835 0)
(1.12073 0.00676779 0)
(1.1209 0.00780228 0)
(1.12109 0.0088311 0)
(1.12131 0.00985348 0)
(1.12156 0.0108687 0)
(1.12182 0.0118761 0)
(1.12211 0.012875 0)
(1.12243 0.0138646 0)
(1.12276 0.0148443 0)
(1.12312 0.0158135 0)
(1.1235 0.0167715 0)
(1.1239 0.0177176 0)
(1.12432 0.0186513 0)
(1.12476 0.019572 0)
(1.12522 0.0204792 0)
(1.1257 0.0213722 0)
(1.1262 0.0222507 0)
(1.12671 0.0231139 0)
(1.12725 0.0239616 0)
(1.1278 0.0247932 0)
(1.12837 0.0256083 0)
(1.12895 0.0264068 0)
(1.12955 0.0271878 -1.59737e-026)
(1.07941 0.000512745 0)
(1.11186 0.00181767 0)
(1.11267 0.00305137 0)
(1.11276 0.00427316 0)
(1.11288 0.00550197 0)
(1.11304 0.00672664 0)
(1.11322 0.00794589 0)
(1.11343 0.0091588 0)
(1.11367 0.0103644 0)
(1.11394 0.0115617 0)
(1.11425 0.0127499 0)
(1.11457 0.013928 0)
(1.11493 0.0150951 0)
(1.11532 0.0162503 0)
(1.11573 0.0173929 0)
(1.11617 0.0185219 0)
(1.11664 0.0196366 0)
(1.11713 0.0207362 0)
(1.11765 0.0218199 0)
(1.11819 0.0228871 0)
(1.11876 0.0239369 0)
(1.11934 0.0249687 0)
(1.11996 0.0259819 0)
(1.12059 0.0269759 0)
(1.12124 0.02795 0)
(1.12192 0.0289038 0)
(1.12261 0.0298366 0)
(1.12333 0.0307483 0)
(1.12406 0.0316381 -1.76112e-026)
(1.07127 0.000604572 0)
(1.10339 0.00213412 0)
(1.10421 0.00358229 0)
(1.10433 0.00501604 0)
(1.10448 0.00645742 0)
(1.10467 0.00789347 0)
(1.10489 0.00932255 0)
(1.10515 0.0107435 0)
(1.10545 0.012155 0)
(1.10579 0.013556 0)
(1.10616 0.0149452 0)
(1.10656 0.0163215 0)
(1.107 0.0176837 0)
(1.10748 0.0190308 0)
(1.10799 0.0203616 0)
(1.10853 0.0216751 0)
(1.1091 0.0229703 0)
(1.1097 0.0242463 0)
(1.11034 0.025502 0)
(1.111 0.0267365 0)
(1.11169 0.027949 0)
(1.11241 0.0291387 0)
(1.11316 0.0303047 0)
(1.11394 0.0314463 0)
(1.11474 0.0325628 0)
(1.11556 0.0336536 0)
(1.11641 0.0347179 0)
(1.11727 0.0357554 0)
(1.11816 0.0367654 1.86165e-026)
(1.06224 0.000712259 0)
(1.09399 0.00250302 0)
(1.09483 0.00420116 0)
(1.09498 0.00588185 0)
(1.09516 0.00757072 0)
(1.09539 0.00925274 0)
(1.09567 0.0109258 0)
(1.09599 0.0125885 0)
(1.09636 0.0142391 0)
(1.09677 0.0158763 0)
(1.09722 0.0174983 0)
(1.09772 0.0191039 0)
(1.09826 0.0206915 0)
(1.09884 0.0222597 0)
(1.09946 0.0238073 0)
(1.10013 0.0253328 0)
(1.10083 0.0268349 0)
(1.10157 0.0283126 0)
(1.10234 0.0297645 0)
(1.10315 0.0311896 0)
(1.104 0.0325867 0)
(1.10488 0.0339549 0)
(1.10579 0.0352931 0)
(1.10673 0.0366005 0)
(1.1077 0.0378762 0)
(1.1087 0.0391194 0)
(1.10973 0.0403293 0)
(1.11078 0.0415054 0)
(1.11186 0.0426472 0)
(1.05222 0.000838143 0)
(1.08357 0.00293153 0)
(1.08444 0.00491995 0)
(1.08462 0.00688733 0)
(1.08485 0.00886334 0)
(1.08513 0.0108306 0)
(1.08547 0.0127864 0)
(1.08586 0.014729 0)
(1.08631 0.0166562 0)
(1.08681 0.0185662 0)
(1.08737 0.020457 0)
(1.08798 0.0223268 0)
(1.08864 0.0241738 0)
(1.08935 0.0259962 0)
(1.09011 0.0277922 0)
(1.09092 0.0295603 0)
(1.09177 0.0312987 0)
(1.09267 0.0330061 0)
(1.09362 0.0346809 0)
(1.0946 0.0363218 0)
(1.09563 0.0379273 0)
(1.0967 0.0394963 0)
(1.0978 0.0410275 0)
(1.09895 0.0425199 0)
(1.10012 0.0439724 0)
(1.10133 0.0453842 0)
(1.10258 0.0467541 0)
(1.10385 0.0480817 0)
(1.10515 0.0493667 0)
(1.04113 0.000984906 0)
(1.07205 0.00342768 0)
(1.07296 0.00575213 0)
(1.07317 0.00805125 0)
(1.07345 0.0103593 0)
(1.0738 0.0126561 0)
(1.07421 0.0149385 0)
(1.07469 0.017204 0)
(1.07524 0.01945 0)
(1.07585 0.0216742 0)
(1.07653 0.023874 0)
(1.07727 0.0260473 0)
(1.07808 0.0281915 0)
(1.07894 0.0303047 0)
(1.07987 0.0323845 0)
(1.08085 0.034429 0)
(1.08189 0.0364361 0)
(1.08298 0.0384039 0)
(1.08413 0.0403307 0)
(1.08532 0.0422147 0)
(1.08657 0.0440543 0)
(1.08786 0.045848 0)
(1.0892 0.0475943 0)
(1.09058 0.0492918 0)
(1.092 0.0509396 0)
(1.09346 0.0525362 0)
(1.09495 0.0540807 0)
(1.09648 0.0555722 0)
(1.09804 0.057011 0)
(1.02889 0.00115536 5.70227e-026)
(1.05934 0.00399996 0)
(1.06029 0.00671185 0)
(1.06055 0.00939341 0)
(1.06089 0.0120839 0)
(1.06131 0.0147601 0)
(1.06181 0.0174181 0)
(1.0624 0.0200548 0)
(1.06306 0.0226669 0)
(1.06381 0.0252513 0)
(1.06463 0.0278052 0)
(1.06554 0.0303254 0)
(1.06651 0.0328091 0)
(1.06756 0.0352536 0)
(1.06868 0.0376563 0)
(1.06987 0.0400144 0)
(1.07113 0.0423256 0)
(1.07245 0.0445875 0)
(1.07384 0.0467979 0)
(1.07528 0.0489546 0)
(1.07678 0.0510558 0)
(1.07834 0.0530994 0)
(1.07995 0.055084 0)
(1.08161 0.0570077 0)
(1.08332 0.0588692 0)
(1.08507 0.0606673 0)
(1.08686 0.0624006 0)
(1.0887 0.0640678 0)
(1.09056 0.0656703 0)
(1.0154 0.00135253 2.20363e-027)
(1.04535 0.00465713 0)
(1.04635 0.00781382 0)
(1.04666 0.0109344 0)
(1.04707 0.0140635 0)
(1.04758 0.0171747 0)
(1.04819 0.0202631 0)
(1.0489 0.0233246 0)
(1.04971 0.0263553 0)
(1.05061 0.0293513 0)
(1.05161 0.0323089 0)
(1.0527 0.0352244 0)
(1.05388 0.0380942 0)
(1.05514 0.0409149 0)
(1.0565 0.0436832 0)
(1.05793 0.0463958 0)
(1.05945 0.0490497 0)
(1.06104 0.0516421 0)
(1.06271 0.0541702 0)
(1.06445 0.0566314 0)
(1.06625 0.0590234 0)
(1.06813 0.0613439 0)
(1.07006 0.0635909 0)
(1.07205 0.0657623 0)
(1.07409 0.0678567 0)
(1.07619 0.0698725 0)
(1.07833 0.0718083 0)
(1.08051 0.0736623 0)
(1.08274 0.0754369 0)
(1.00057 0.00157965 -6.62159e-026)
(1.02998 0.00540855 0)
(1.03104 0.00907368 0)
(1.03142 0.012696 0)
(1.03192 0.016326 0)
(1.03253 0.0199337 0)
(1.03327 0.0235129 0)
(1.03412 0.0270586 0)
(1.03509 0.0305659 0)
(1.03618 0.03403 0)
(1.03738 0.0374463 0)
(1.03869 0.0408101 0)
(1.04011 0.0441171 0)
(1.04164 0.0473629 0)
(1.04327 0.0505436 0)
(1.04499 0.053655 0)
(1.04681 0.0566937 0)
(1.04872 0.0596559 0)
(1.05072 0.0625383 0)
(1.05281 0.0653379 0)
(1.05497 0.0680517 0)
(1.05721 0.0706771 0)
(1.05951 0.0732116 0)
(1.06189 0.0756529 0)
(1.06433 0.0779992 0)
(1.06682 0.0802487 0)
(1.06937 0.0823998 0)
(1.07197 0.0844501 0)
(1.07461 0.0864039 0)
(0.984332 0.00183997 0)
(1.01316 0.00626341 0)
(1.01429 0.0105068 0)
(1.01475 0.0146997 0)
(1.01534 0.018899 0)
(1.01608 0.0230706 0)
(1.01696 0.0272068 0)
(1.01799 0.0313017 0)
(1.01916 0.0353491 0)
(1.02046 0.0393432 0)
(1.0219 0.043278 0)
(1.02347 0.0471481 0)
(1.02517 0.0509479 0)
(1.027 0.0546723 0)
(1.02894 0.0583161 0)
(1.03101 0.0618745 0)
(1.03318 0.0653431 0)
(1.03547 0.0687174 0)
(1.03785 0.0719934 0)
(1.04034 0.0751673 0)
(1.04291 0.0782357 0)
(1.04558 0.0811953 0)
(1.04833 0.0840432 0)
(1.05115 0.0867768 0)
(1.05404 0.0893937 0)
(1.057 0.0918921 0)
(1.06002 0.0942703 0)
(1.06309 0.0965249 0)
(1.06621 0.0986628 0)
(0.966594 0.00213678 -8.30786e-026)
(0.994811 0.00723048 0)
(0.996023 0.0121277 0)
(0.99657 0.0169661 0)
(0.997276 0.0218088 0)
(0.998157 0.0266173 0)
(0.999211 0.0313826 0)
(1.00044 0.0360972 0)
(1.00183 0.0407537 0)
(1.00338 0.0453447 0)
(1.0051 0.0498632 0)
(1.00697 0.0543023 0)
(1.009 0.0586553 0)
(1.01117 0.0629158 0)
(1.01349 0.0670775 0)
(1.01595 0.0711348 0)
(1.01853 0.0750819 0)
(1.02125 0.0789136 0)
(1.02408 0.0826249 0)
(1.02703 0.0862114 0)
(1.03009 0.0896688 0)
(1.03325 0.0929932 0)
(1.0365 0.0961812 0)
(1.03984 0.0992297 0)
(1.04326 0.102136 0)
(1.04676 0.104898 0)
(1.05032 0.107514 0)
(1.05393 0.109979 0)
(1.0576 0.112303 7.25877e-026)
(0.947293 0.00247307 -3.43481e-027)
(0.97486 0.00831771 0)
(0.976167 0.0139499 0)
(0.976815 0.0195139 0)
(0.977654 0.0250793 0)
(0.978699 0.0306033 0)
(0.979949 0.0360748 0)
(0.981401 0.0414849 0)
(0.983051 0.0468243 0)
(0.984896 0.0520844 0)
(0.986931 0.0572564 0)
(0.989152 0.0623319 0)
(0.991553 0.0673029 0)
(0.994128 0.0721615 0)
(0.996873 0.0769002 0)
(0.999779 0.0815118 0)
(1.00284 0.0859896 0)
(1.00605 0.0903271 0)
(1.0094 0.0945184 0)
(1.01289 0.0985579 0)
(1.0165 0.102441 0)
(1.02022 0.106162 0)
(1.02406 0.109717 0)
(1.02799 0.113104 0)
(1.03202 0.116318 0)
(1.03612 0.119357 0)
(1.0403 0.122219 0)
(1.04454 0.124899 0)
(1.04884 0.12741 1.76137e-027)
(0.926375 0.0028515 9.69099e-026)
(0.953255 0.00953179 0)
(0.954669 0.0159844 0)
(0.955433 0.0223587 0)
(0.956421 0.0287309 0)
(0.957653 0.0350533 0)
(0.959126 0.0413128 0)
(0.960837 0.0474985 0)
(0.962781 0.0535995 0)
(0.964955 0.0596052 0)
(0.967353 0.0655052 0)
(0.969969 0.0712892 0)
(0.972797 0.0769474 0)
(0.97583 0.0824704 0)
(0.979061 0.087849 0)
(0.982483 0.0930745 0)
(0.986086 0.0981388 0)
(0.989863 0.103034 0)
(0.993804 0.107753 0)
(0.997899 0.112288 0)
(1.00214 0.116635 0)
(1.00651 0.120786 0)
(1.01101 0.124738 0)
(1.01562 0.128486 0)
(1.02034 0.132026 0)
(1.02514 0.135355 0)
(1.03003 0.138472 0)
(1.03498 0.141368 0)
(1.03999 0.144063 -8.33431e-026)
(0.9038 0.00327426 0)
(0.929958 0.0108774 0)
(0.931492 0.018239 0)
(0.932387 0.0255119 0)
(0.933543 0.032778 0)
(0.934984 0.0399853 0)
(0.936708 0.0471181 0)
(0.938709 0.0541635 0)
(0.940984 0.0611085 0)
(0.943528 0.0679405 0)
(0.946333 0.0746469 0)
(0.949394 0.0812155 0)
(0.952704 0.0876344 0)
(0.956253 0.0938923 0)
(0.960035 0.0999781 0)
(0.964038 0.105881 0)
(0.968254 0.111592 0)
(0.972672 0.1171 0)
(0.97728 0.122397 0)
(0.982068 0.127475 0)
(0.987023 0.132326 0)
(0.992133 0.136944 0)
(0.997385 0.141322 0)
(1.00277 0.145456 0)
(1.00826 0.149341 0)
(1.01386 0.152973 0)
(1.01954 0.156351 0)
(1.0253 0.159463 0)
(1.03111 0.162337 0)
(0.879553 0.00374258 0)
(0.904955 0.0123565 0)
(0.906622 0.0207173 0)
(0.907661 0.0289785 0)
(0.909003 0.0372278 0)
(0.910675 0.0454083 0)
(0.912675 0.0535021 0)
(0.914999 0.0614937 0)
(0.91764 0.0693681 0)
(0.920594 0.0771101 0)
(0.923853 0.0847049 0)
(0.92741 0.092138 0)
(0.931256 0.0993951 0)
(0.935382 0.106463 0)
(0.939778 0.113327 0)
(0.944433 0.119975 0)
(0.949335 0.126396 0)
(0.954473 0.132577 0)
(0.959832 0.138508 0)
(0.965399 0.144178 0)
(0.971159 0.149579 0)
(0.977097 0.154702 0)
(0.983198 0.159539 0)
(0.989446 0.164085 0)
(0.995823 0.168334 0)
(1.00231 0.172281 0)
(1.0089 0.175927 0)
(1.01556 0.179253 0)
(1.02228 0.182298 9.9546e-026)
(0.85364 0.00425679 0)
(0.878253 0.0139681 0)
(0.880064 0.0234173 0)
(0.88126 0.0327565 0)
(0.882804 0.0420779 0)
(0.884728 0.0513205 0)
(0.88703 0.0604634 0)
(0.889705 0.0694891 0)
(0.892747 0.0783797 0)
(0.89615 0.0871177 0)
(0.899906 0.0956856 0)
(0.904008 0.104066 0)
(0.908445 0.112243 0)
(0.913207 0.120198 0)
(0.918282 0.127917 0)
(0.923659 0.135384 0)
(0.929323 0.142584 0)
(0.935261 0.149502 0)
(0.941456 0.156126 0)
(0.947892 0.162444 0)
(0.954552 0.168443 0)
(0.961418 0.174113 0)
(0.968471 0.179446 0)
(0.975691 0.184433 0)
(0.983058 0.189068 0)
(0.99055 0.193344 0)
(0.998149 0.197264 0)
(1.00583 0.2008 0)
(1.01357 0.204007 1.84685e-027)
(0.826094 0.00481587 0)
(0.849888 0.0157073 0)
(0.851852 0.026331 0)
(0.853217 0.036835 0)
(0.854977 0.0473151 0)
(0.85717 0.0577065 0)
(0.859795 0.0679857 0)
(0.862846 0.0781324 0)
(0.866319 0.0881264 0)
(0.870207 0.0979473 0)
(0.8745 0.107575 0)
(0.879192 0.116988 0)
(0.88427 0.126168 0)
(0.889725 0.135095 0)
(0.895543 0.143749 0)
(0.90171 0.152112 0)
(0.908212 0.160165 0)
(0.915031 0.167892 0)
(0.922149 0.175275 0)
(0.929548 0.1823 0)
(0.937207 0.188952 0)
(0.945104 0.195218 0)
(0.953216 0.201087 0)
(0.961521 0.206549 0)
(0.969994 0.211596 0)
(0.978607 0.216216 0)
(0.987339 0.220417 0)
(0.99616 0.224161 0)
(1.00504 0.227519 -2.29696e-025)
(0.796981 0.00541742 0)
(0.819927 0.0175649 0)
(0.822052 0.029443 0)
(0.823593 0.0411933 0)
(0.825578 0.0529137 0)
(0.828053 0.0645366 0)
(0.831017 0.0760355 0)
(0.834466 0.0873879 0)
(0.838394 0.0985707 0)
(0.842794 0.109561 0)
(0.847659 0.120334 0)
(0.852979 0.130868 0)
(0.858745 0.141139 0)
(0.864943 0.151123 0)
(0.871562 0.160798 0)
(0.878585 0.17014 0)
(0.885995 0.179129 0)
(0.893775 0.187741 0)
(0.901904 0.195957 0)
(0.91036 0.203758 0)
(0.919118 0.211125 0)
(0.928154 0.218042 0)
(0.937441 0.224495 0)
(0.946949 0.23047 0)
(0.956651 0.235957 0)
(0.966512 0.240942 0)
(0.976507 0.245434 0)
(0.9866 0.249384 0)
(0.996748 0.25288 -1.66787e-027)
(0.766396 0.0060575 0)
(0.788468 0.0195272 0)
(0.790756 0.0327306 0)
(0.792479 0.0458005 0)
(0.794695 0.0588352 0)
(0.797459 0.0717651 0)
(0.800772 0.0845613 0)
(0.80463 0.097199 0)
(0.809028 0.109653 0)
(0.813961 0.121896 0)
(0.819421 0.133902 0)
(0.825401 0.145644 0)
(0.831889 0.157095 0)
(0.838875 0.168227 0)
(0.846345 0.179012 0)
(0.854282 0.189424 0)
(0.862669 0.199435 0)
(0.871485 0.209019 0)
(0.880709 0.21815 0)
(0.890314 0.226804 0)
(0.900275 0.234958 0)
(0.91056 0.242591 0)
(0.921138 0.249684 0)
(0.931977 0.256219 0)
(0.943038 0.262185 0)
(0.954287 0.267557 0)
(0.965684 0.27236 0)
(0.977187 0.276511 0)
(0.988759 0.280136 1.32157e-025)
(0.734467 0.00673053 0)
(0.755642 0.0215763 0)
(0.758092 0.0361639 0)
(0.759997 0.0506153 0)
(0.762443 0.0650277 0)
(0.765495 0.0793307 0)
(0.769157 0.0934934 0)
(0.773427 0.107489 0)
(0.778301 0.121289 0)
(0.783776 0.134866 0)
(0.789845 0.148188 0)
(0.796502 0.161226 0)
(0.803738 0.173947 0)
(0.811543 0.186319 0)
(0.819903 0.198311 0)
(0.828803 0.209888 0)
(0.838224 0.221019 0)
(0.848146 0.231669 0)
(0.858543 0.241808 0)
(0.86939 0.251404 0)
(0.880653 0.260429 0)
(0.892299 0.268853 0)
(0.904294 0.276656 0)
(0.916587 0.283807 0)
(0.92916 0.290298 0)
(0.94193 0.296099 0)
(0.95488 0.301215 0)
(0.967979 0.305588 0)
(0.981083 0.309335 1.43191e-025)
(0.701354 0.00742946 0)
(0.72161 0.0236899 0)
(0.724216 0.0397059 0)
(0.726297 0.055587 0)
(0.728966 0.0714274 0)
(0.732298 0.0871574 0)
(0.736301 0.102745 0)
(0.740974 0.118161 0)
(0.746316 0.133376 0)
(0.752327 0.148359 0)
(0.759004 0.163077 0)
(0.766342 0.177495 0)
(0.774336 0.191577 0)
(0.782976 0.205286 0)
(0.792252 0.218583 0)
(0.80215 0.231429 0)
(0.812653 0.243784 0)
(0.823738 0.255607 0)
(0.835382 0.266858 0)
(0.847551 0.277499 0)
(0.860217 0.28749 0)
(0.873338 0.296803 0)
(0.88686 0.305386 0)
(0.900781 0.313236 0)
(0.914954 0.320316 0)
(0.929457 0.326553 0)
(0.944135 0.332079 0)
(0.958881 0.336637 0)
(0.97388 0.340474 -1.52116e-025)
(0.667244 0.00814588 0)
(0.686563 0.0258423 0)
(0.689314 0.0433139 0)
(0.69156 0.0606568 0)
(0.694436 0.0779601 0)
(0.69803 0.0951563 0)
(0.702353 0.112213 0)
(0.707408 0.1291 0)
(0.713199 0.145788 0)
(0.719726 0.162243 0)
(0.726993 0.178429 0)
(0.734999 0.194308 0)
(0.743741 0.209839 0)
(0.753216 0.22498 0)
(0.763416 0.239686 0)
(0.774331 0.253911 0)
(0.785944 0.267603 0)
(0.79824 0.280718 0)
(0.811183 0.293199 0)
(0.824761 0.305001 0)
(0.838912 0.316082 0)
(0.853609 0.326364 0)
(0.868844 0.335874 0)
(0.884385 0.344474 0)
(0.900544 0.352194 0)
(0.91676 0.359058 0)
(0.933285 0.364832 0)
(0.950308 0.36971 0)
(0.966762 0.373763 1.63193e-025)
(0.632348 0.00887023 0)
(0.650716 0.0280054 0)
(0.653593 0.0469415 0)
(0.655988 0.0657601 0)
(0.659049 0.0845439 0)
(0.662878 0.103229 0)
(0.66749 0.121784 0)
(0.672893 0.140179 0)
(0.679095 0.158384 0)
(0.686103 0.176364 0)
(0.693924 0.194082 0)
(0.702564 0.211496 0)
(0.712028 0.228562 0)
(0.722315 0.24523 0)
(0.733427 0.261451 0)
(0.745355 0.277166 0)
(0.758095 0.292324 0)
(0.771614 0.306851 0)
(0.785927 0.320704 0)
(0.800934 0.333805 0)
(0.816693 0.346077 0)
(0.833096 0.357546 0)
(0.849952 0.367967 0)
(0.867783 0.377518 0)
(0.885324 0.38609 0)
(0.904013 0.393242 0)
(0.922861 0.399856 0)
(0.94093 0.4049 0)
(0.960914 0.408711 -3.47014e-025)
(0.596897 0.00959221 0)
(0.614301 0.0301499 0)
(0.617283 0.0505402 0)
(0.619804 0.0708298 0)
(0.62302 0.0910931 0)
(0.627048 0.111272 0)
(0.631907 0.131336 0)
(0.637612 0.151259 0)
(0.644175 0.171011 0)
(0.65161 0.190558 0)
(0.659931 0.209859 0)
(0.669152 0.228873 0)
(0.679285 0.24755 0)
(0.690341 0.265839 0)
(0.702325 0.283677 0)
(0.715246 0.301009 0)
(0.729081 0.317746 0)
(0.743874 0.333855 0)
(0.759486 0.349196 0)
(0.776117 0.363752 0)
(0.793413 0.377459 0)
(0.811532 0.390029 0)
(0.830831 0.401847 0)
(0.849458 0.41232 0)
(0.870819 0.421455 0)
(0.890655 0.430058 0)
(0.910989 0.436502 0)
(0.934407 0.441768 0)
(0.953401 0.446742 6.1908e-028)
(0.561131 0.0103013 0)
(0.577562 0.0322464 0)
(0.580622 0.0540622 0)
(0.583242 0.0757987 0)
(0.586579 0.0975217 0)
(0.590761 0.11918 0)
(0.595817 0.140747 0)
(0.601764 0.162201 0)
(0.608623 0.183512 0)
(0.616416 0.204648 0)
(0.625164 0.225571 0)
(0.634892 0.246237 0)
(0.645623 0.266596 0)
(0.657375 0.286586 0)
(0.670174 0.306153 0)
(0.684013 0.325197 0)
(0.698963 0.3437 0)
(0.714859 0.361452 0)
(0.73207 0.378553 0)
(0.749872 0.394697 0)
(0.769202 0.409833 0)
(0.789365 0.424202 0)
(0.809184 0.436945 0)
(0.833298 0.448591 0)
(0.852791 0.459629 0)
(0.877406 0.467627 0)
(0.902656 0.475467 0)
(0.921782 0.482217 0)
(0.950485 0.484991 1.40818e-027)
(0.525296 0.0109878 0)
(0.540749 0.0342681 0)
(0.543857 0.0574628 0)
(0.546545 0.0806035 0)
(0.549963 0.103748 0)
(0.55425 0.126853 0)
(0.559442 0.149898 0)
(0.565564 0.172864 0)
(0.572643 0.195729 0)
(0.58071 0.218462 0)
(0.589796 0.241027 0)
(0.599937 0.263383 0)
(0.611167 0.285474 0)
(0.623525 0.30725 0)
(0.637029 0.328614 0)
(0.651763 0.349554 0)
(0.667583 0.369814 0)
(0.684958 0.389624 0)
(0.702857 0.408335 0)
(0.723193 0.426465 0)
(0.743326 0.443464 0)
(0.764941 0.459053 0)
(0.790631 0.473652 0)
(0.809374 0.487358 0)
(0.840231 0.497693 0)
(0.863387 0.508488 0)
(0.885884 0.517683 0)
(0.921297 0.52103 0)
(0.940573 0.528494 2.06843e-025)
(0.489633 0.011643 0)
(0.504109 0.0361912 0)
(0.507231 0.060702 0)
(0.509955 0.0851876 0)
(0.51341 0.109698 0)
(0.517749 0.134199 0)
(0.523013 0.158677 0)
(0.529236 0.183122 0)
(0.53645 0.207514 0)
(0.544696 0.23183 0)
(0.554016 0.25604 0)
(0.564458 0.280101 0)
(0.576073 0.303971 0)
(0.588905 0.327568 0)
(0.60304 0.350879 0)
(0.618399 0.373651 0)
(0.635437 0.396177 0)
(0.653068 0.417546 0)
(0.673884 0.438941 0)
(0.693201 0.458492 0)
(0.717264 0.477777 0)
(0.741926 0.49512 0)
(0.761768 0.512475 0)
(0.79811 0.525053 0)
(0.815937 0.540196 0)
(0.847956 0.551519 0)
(0.883616 0.55688 0)
(0.90155 0.569863 0)
(0.941651 0.570408 -2.13803e-025)
(0.454373 0.0122598 0)
(0.467875 0.037996 0)
(0.470979 0.0637465 0)
(0.473703 0.0895033 0)
(0.477153 0.115309 0)
(0.481489 0.141139 0)
(0.48676 0.166991 0)
(0.493004 0.192859 0)
(0.500263 0.218734 0)
(0.508586 0.2446 0)
(0.518027 0.270432 0)
(0.528646 0.2962 0)
(0.540507 0.32185 0)
(0.553693 0.347359 0)
(0.568213 0.372533 0)
(0.584406 0.397619 0)
(0.601449 0.421697 0)
(0.621891 0.446281 0)
(0.640132 0.468433 0)
(0.666352 0.491944 0)
(0.68744 0.51163 0)
(0.711981 0.533738 0)
(0.748619 0.548395 0)
(0.763436 0.569527 0)
(0.805654 0.581805 0)
(0.834269 0.591907 0)
(0.8595 0.609923 0)
(0.90722 0.60805 0)
(0.928452 0.619507 2.28262e-025)
(0.41973 0.0128324 0)
(0.432268 0.0396676 0)
(0.435319 0.0665708 0)
(0.438011 0.0935133 0)
(0.441412 0.120531 0)
(0.445691 0.147612 0)
(0.450902 0.17476 0)
(0.45709 0.201982 0)
(0.464303 0.229277 0)
(0.472599 0.256639 0)
(0.482041 0.284054 0)
(0.492704 0.311495 0)
(0.50467 0.338942 0)
(0.518014 0.366284 0)
(0.532939 0.393653 0)
(0.549055 0.420382 0)
(0.568207 0.447747 0)
(0.585576 0.472768 0)
(0.612309 0.50021 0)
(0.629198 0.522351 0)
(0.660454 0.549875 0)
(0.689997 0.566375 0)
(0.707696 0.594618 0)
(0.756691 0.607802 0)
(0.776794 0.625997 0)
(0.816357 0.643775 0)
(0.857799 0.646733 0)
(0.883818 0.666697 0)
(0.935196 0.663725 0)
(0.385898 0.0133571 0)
(0.397485 0.0411958 0)
(0.400452 0.069157 0)
(0.403079 0.0971914 0)
(0.406391 0.125329 0)
(0.410563 0.15357 0)
(0.415652 0.181928 0)
(0.421708 0.210419 0)
(0.428786 0.239056 0)
(0.43695 0.267841 0)
(0.446277 0.296775 0)
(0.456845 0.325846 0)
(0.468765 0.355021 0)
(0.482143 0.384322 0)
(0.496967 0.41345 0)
(0.514169 0.443061 0)
(0.530849 0.471199 0)
(0.555818 0.501513 0)
(0.570096 0.527099 0)
(0.605884 0.558686 0)
(0.624533 0.578486 0)
(0.653516 0.613494 0)
(0.696839 0.627329 0)
(0.715562 0.654292 0)
(0.766543 0.671765 0)
(0.795914 0.68732 0)
(0.837481 0.705839 0)
(0.88773 0.705467 0)
(0.916286 0.723192 2.37892e-025)
(0.353046 0.0138316 0)
(0.363699 0.0425753 0)
(0.366552 0.0714955 0)
(0.369085 0.100523 0)
(0.372272 0.129683 0)
(0.37629 0.158985 0)
(0.3812 0.188456 0)
(0.387055 0.218122 0)
(0.393915 0.248007 0)
(0.401851 0.278129 0)
(0.410942 0.308497 0)
(0.421298 0.339127 0)
(0.432993 0.369991 0)
(0.446205 0.401076 0)
(0.461203 0.432447 0)
(0.476984 0.463537 0)
(0.498509 0.495661 0)
(0.512295 0.525561 0)
(0.547651 0.558954 0)
(0.558594 0.584829 0)
(0.597962 0.622457 0)
(0.627281 0.639156 0)
(0.653513 0.675929 0)
(0.706746 0.696092 0)
(0.728771 0.721376 0)
(0.784354 0.735261 0)
(0.823822 0.753001 0)
(0.866192 0.770922 0)
(0.9278 0.765859 -1.12011e-026)
(0.321314 0.0142552 0)
(0.331054 0.0438051 0)
(0.333768 0.0735839 0)
(0.336181 0.103502 0)
(0.339213 0.133583 0)
(0.343037 0.163845 0)
(0.347717 0.194326 0)
(0.353309 0.225064 0)
(0.359877 0.256096 0)
(0.367493 0.287451 0)
(0.376256 0.319169 0)
(0.386237 0.351231 0)
(0.397644 0.383757 0)
(0.410478 0.416514 0)
(0.424838 0.449916 0)
(0.442494 0.483245 0)
(0.456795 0.517281 0)
(0.487319 0.55109 0)
(0.495243 0.583825 0)
(0.538892 0.621525 0)
(0.554995 0.64624 0)