/*--------------------------------*- C++ -*----------------------------------*\
| =========                 |                                                 |
| \\      /  F ield         | OpenFOAM: The Open Source CFD Toolbox           |
|  \\    /   O peration     | Version:  5.x                                   |
|   \\  /    A nd           | Web:      www.OpenFOAM.org                      |
|    \\/     M anipulation  |                                                 |
\*---------------------------------------------------------------------------*/
/*   Windows 32 and 64 bit porting by blueCAPE: http://www.bluecape.com.pt   *\
|  Based on Windows porting (2.0.x v4) by Symscape: http://www.symscape.com   |
\*---------------------------------------------------------------------------*/
FoamFile
{
    version     2.0;
    format      ascii;
    class       volScalarField;
    location    "140";
    object      epsilon;
}
// * * * * * * * * * * * * * * * * * * * * * * * * * * * * * * * * * * * * * //

dimensions      [0 2 -3 0 0 0 0];

internalField   nonuniform List<scalar> 
43900
(
0.00152922
0.0015192
0.00151978
0.00151972
0.00151968
0.00151967
0.00151967
0.00151968
0.00151967
0.00151968
0.00151968
0.00151968
0.00151969
0.00151969
0.00151969
0.00151969
0.00151969
0.00151969
0.00151969
0.00151969
0.00151969
0.00151969
0.00151969
0.00151969
0.00151969
0.00151969
0.00151969
0.00151969
0.00151969
0.000373363
3.71471e-005
3.16427e-005
3.15291e-005
3.27607e-005
3.28017e-005
3.27994e-005
3.28042e-005
3.27959e-005
3.2806e-005
3.28065e-005
3.28078e-005
3.28088e-005
3.28095e-005
3.28103e-005
3.2811e-005
3.28117e-005
3.28124e-005
3.28132e-005
3.28141e-005
3.28148e-005
3.28154e-005
3.28159e-005
3.28163e-005
3.28167e-005
3.28171e-005
3.28174e-005
3.28177e-005
3.28178e-005
0.049221
0.00532382
0.000243239
9.11362e-006
1.57124e-006
1.32451e-006
1.37452e-006
1.41665e-006
1.41972e-006
1.41764e-006
1.41754e-006
1.41798e-006
1.41832e-006
1.41862e-006
1.4189e-006
1.41915e-006
1.41938e-006
1.41959e-006
1.41978e-006
1.41994e-006
1.42008e-006
1.42019e-006
1.42029e-006
1.42037e-006
1.42045e-006
1.42052e-006
1.42059e-006
1.42064e-006
1.42067e-006
0.144494
0.0422745
0.00895367
0.00110195
5.66104e-005
2.0704e-006
2.19574e-007
1.11825e-007
1.08743e-007
1.18964e-007
1.20402e-007
1.19909e-007
1.19829e-007
1.19869e-007
1.19913e-007
1.19951e-007
1.19986e-007
1.20017e-007
1.20045e-007
1.20068e-007
1.20089e-007
1.20107e-007
1.20124e-007
1.20139e-007
1.20153e-007
1.20166e-007
1.20178e-007
1.20189e-007
1.20198e-007
0.195153
0.0818585
0.0318299
0.00992011
0.0020849
0.000220119
9.68146e-006
3.51947e-007
3.79081e-008
1.74337e-008
1.66103e-008
1.8167e-008
1.84486e-008
1.84515e-008
1.84566e-008
1.84623e-008
1.84675e-008
1.84721e-008
1.84764e-008
1.84805e-008
1.8484e-008
1.84875e-008
1.84909e-008
1.84941e-008
1.84971e-008
1.84997e-008
1.85028e-008
1.85058e-008
1.85087e-008
0.221493
0.106946
0.0512934
0.0235267
0.00932879
0.00260802
0.000424094
2.95288e-005
1.1033e-006
4.74753e-008
7.02317e-009
4.17337e-009
4.25167e-009
4.32989e-009
4.33733e-009
4.33863e-009
4.33973e-009
4.34084e-009
4.34187e-009
4.3428e-009
4.34354e-009
4.34435e-009
4.34512e-009
4.34595e-009
4.34671e-009
4.34737e-009
4.34841e-009
4.34915e-009
4.34986e-009
0.232424
0.120741
0.0633622
0.0330233
0.0165743
0.00753557
0.00261118
0.000562064
5.61511e-005
2.52619e-006
9.22315e-008
5.949e-009
1.87465e-009
1.68424e-009
1.69692e-009
1.69843e-009
1.69869e-009
1.69897e-009
1.6993e-009
1.6997e-009
1.70028e-009
1.70059e-009
1.70083e-009
1.70112e-009
1.70149e-009
1.70228e-009
1.7025e-009
1.70264e-009
1.70282e-009
0.236789
0.128968
0.071437
0.0398528
0.0220535
0.0118057
0.00581889
0.00231672
0.000572869
6.73341e-005
3.28705e-006
1.15187e-007
5.16458e-009
1.36562e-009
1.18577e-009
1.17917e-009
1.17917e-009
1.17917e-009
1.17921e-009
1.17936e-009
1.17975e-009
1.18014e-009
1.18093e-009
1.18111e-009
1.18143e-009
1.18238e-009
1.1817e-009
1.1817e-009
1.18174e-009
0.23726
0.133643
0.0767542
0.0446349
0.026033
0.0150167
0.00837095
0.00431278
0.00184673
0.000472744
5.49765e-005
2.46742e-006
7.89611e-008
3.64134e-009
1.37359e-009
1.30653e-009
1.30505e-009
1.30505e-009
1.30507e-009
1.30514e-009
1.30542e-009
1.30607e-009
1.30788e-009
1.30798e-009
1.30818e-009
1.3089e-009
1.30739e-009
1.30739e-009
1.30732e-009
0.232338
0.132903
0.0777197
0.0462314
0.0277606
0.0166612
0.0098491
0.00559737
0.00292191
0.00126327
0.00030045
2.83949e-005
1.05095e-006
3.21876e-008
3.01387e-009
2.20857e-009
2.18823e-009
2.18817e-009
2.18817e-009
2.18824e-009
2.18851e-009
2.18973e-009
2.19503e-009
2.19311e-009
2.19208e-009
2.19143e-009
2.18784e-009
2.18709e-009
2.1871e-009
0.22561
0.130748
0.0774306
0.0466871
0.0285041
0.0174786
0.0106493
0.00634125
0.00358764
0.00182422
0.000723099
0.000132604
8.09487e-006
2.45092e-007
1.18688e-008
5.62721e-009
5.46789e-009
5.46674e-009
5.46674e-009
5.4668e-009
5.46743e-009
5.4731e-009
5.4768e-009
5.47428e-009
5.46202e-009
5.45577e-009
5.45478e-009
5.44322e-009
5.4407e-009
0.218393
0.127699
0.0763355
0.0464343
0.0286091
0.0177583
0.0110019
0.00671188
0.0039472
0.00215222
0.000999171
0.000302003
3.23745e-005
1.16804e-006
4.61561e-008
1.66597e-008
1.59081e-008
1.59012e-008
1.59014e-008
1.59032e-008
1.59026e-008
1.59131e-008
1.58936e-008
1.58935e-008
1.58284e-008
1.58199e-008
1.58015e-008
1.57587e-008
1.57588e-008
0.210744
0.123955
0.0745731
0.0457054
0.0283718
0.0177265
0.0110774
0.00684846
0.00411007
0.00231955
0.00115295
0.00041875
6.80513e-005
3.43635e-006
1.4076e-007
5.00826e-008
4.76883e-008
4.76551e-008
4.76553e-008
4.76668e-008
4.76428e-008
4.76434e-008
4.75373e-008
4.74869e-008
4.72577e-008
4.71988e-008
4.71303e-008
4.70332e-008
4.70329e-008
0.202729
0.119709
0.0723121
0.0445282
0.0278179
0.0175157
0.0110183
0.00685727
0.00416296
0.00239494
0.00123287
0.000488623
9.6403e-005
6.30744e-006
3.44654e-007
1.48304e-007
1.42596e-007
1.42437e-007
1.42402e-007
1.42403e-007
1.4222e-007
1.42228e-007
1.41782e-007
1.41381e-007
1.41001e-007
1.41005e-007
1.40444e-007
1.40372e-007
1.40374e-007
0.194395
0.115143
0.0697757
0.0431098
0.0270306
0.0171051
0.0108428
0.00680486
0.00416008
0.00242032
0.0012721
0.000529138
0.000117292
9.13728e-006
6.00182e-007
2.85008e-007
2.74369e-007
2.74294e-007
2.73852e-007
2.73853e-007
2.73439e-007
2.7316e-007
2.72763e-007
2.72056e-007
2.72055e-007
2.71617e-007
2.71015e-007
2.70755e-007
2.70651e-007
0.185815
0.110363
0.0670709
0.0415664
0.0261488
0.0166064
0.010572
0.00668069
0.00412332
0.00241875
0.00128944
0.000552688
0.000131824
1.16181e-005
8.42944e-007
3.92928e-007
3.77113e-007
3.76076e-007
3.76075e-007
3.75771e-007
3.74983e-007
3.75091e-007
3.7448e-007
3.74457e-007
3.74031e-007
3.72975e-007
3.72975e-007
3.72497e-007
3.72492e-007
0.177019
0.105426
0.0642546
0.0399447
0.0252127
0.0160696
0.01027
0.00651786
0.00404845
0.00240084
0.0012941
0.000568598
0.000144026
1.41956e-005
1.09349e-006
4.75785e-007
4.4974e-007
4.4875e-007
4.48299e-007
4.4821e-007
4.48312e-007
4.47463e-007
4.47299e-007
4.46939e-007
4.46246e-007
4.46263e-007
4.4579e-007
4.45262e-007
4.45242e-007
0.168022
0.100359
0.0613542
0.038269
0.0242423
0.0155112
0.00995479
0.00634716
0.00396359
0.00236756
0.00129236
0.00058001
0.000155444
1.70548e-005
1.38116e-006
5.37586e-007
4.99547e-007
4.97689e-007
4.97464e-007
4.97476e-007
4.965e-007
4.96102e-007
4.96215e-007
4.95845e-007
4.95757e-007
4.95334e-007
4.94448e-007
4.9425e-007
4.94417e-007
0.158824
0.0951736
0.0583837
0.0365525
0.0232487
0.0149404
0.00963374
0.00617431
0.00387848
0.00233378
0.00128819
0.000590141
0.000166345
2.01352e-005
1.72464e-006
5.91564e-007
5.32707e-007
5.28984e-007
5.28596e-007
5.28651e-007
5.28243e-007
5.28531e-007
5.28116e-007
5.27054e-007
5.27171e-007
5.26863e-007
5.26685e-007
5.27139e-007
5.25975e-007
0.149426
0.0898707
0.0553442
0.0347956
0.0222322
0.0143574
0.00930694
0.00599963
0.00379378
0.00230124
0.00128405
0.000600495
0.000177943
2.39517e-005
2.18584e-006
6.46295e-007
5.53864e-007
5.48643e-007
5.49437e-007
5.48257e-007
5.48589e-007
5.48527e-007
5.469e-007
5.48083e-007
5.47964e-007
5.46831e-007
5.47349e-007
5.46236e-007
5.46189e-007
0.139884
0.0844787
0.0522498
0.0330056
0.0211965
0.0137641
0.00897577
0.00582423
0.00371052
0.0022714
0.0012838
0.000613795
0.000192464
2.87946e-005
2.80475e-006
7.10212e-007
5.70668e-007
5.63841e-007
5.60649e-007
5.61387e-007
5.61544e-007
5.59817e-007
5.61585e-007
5.60955e-007
5.58983e-007
5.60398e-007
5.59846e-007
5.59718e-007
5.59416e-007
0.130231
0.079016
0.0491108
0.0311882
0.0201446
0.0131622
0.0086408
0.00564819
0.00362857
0.00224399
0.0012864
0.000630568
0.000208769
3.45352e-005
3.66937e-006
8.06551e-007
5.88611e-007
5.69321e-007
5.69645e-007
5.69921e-007
5.68789e-007
5.69947e-007
5.68657e-007
5.68164e-007
5.69352e-007
5.68153e-007
5.67771e-007
5.67877e-007
5.68319e-007
0.120526
0.0735091
0.0459384
0.0293466
0.0190761
0.0125494
0.00829931
0.00546894
0.00354588
0.00221769
0.00129132
0.000648682
0.000227009
4.19593e-005
4.8891e-006
9.4406e-007
6.04162e-007
5.78678e-007
5.75377e-007
5.74863e-007
5.75343e-007
5.7466e-007
5.75271e-007
5.74372e-007
5.73439e-007
5.74422e-007
5.74052e-007
5.73712e-007
5.72764e-007
0.110856
0.068003
0.0427557
0.0274929
0.0179973
0.0119294
0.00795383
0.00528834
0.00346379
0.00219311
0.0012984
0.000670536
0.000250487
5.1943e-005
6.71966e-006
1.17548e-006
6.35476e-007
5.84336e-007
5.81158e-007
5.803e-007
5.79671e-007
5.79998e-007
5.78447e-007
5.79163e-007
5.7984e-007
5.78055e-007
5.78592e-007
5.77687e-007
5.77423e-007
0.10128
0.0625296
0.0395796
0.0256355
0.016912
0.0113032
0.00760364
0.0051049
0.0033807
0.0021693
0.00130788
0.000695936
0.000275819
6.35966e-005
9.13987e-006
1.52207e-006
6.79817e-007
5.95767e-007
5.84849e-007
5.83487e-007
5.84645e-007
5.8427e-007
5.8486e-007
5.83223e-007
5.82209e-007
5.8314e-007
5.81961e-007
5.82624e-007
5.83151e-007
0.0918834
0.0571312
0.0364304
0.0237831
0.0158227
0.0106704
0.00724718
0.00491666
0.00329452
0.00214384
0.00131648
0.000720582
0.000303568
7.81857e-005
1.26499e-005
2.06633e-006
7.57339e-007
6.07343e-007
5.91748e-007
5.89828e-007
5.87992e-007
5.87596e-007
5.87315e-007
5.88573e-007
5.88157e-007
5.86402e-007
5.87398e-007
5.859e-007
5.85381e-007
0.0827553
0.0518557
0.0333337
0.0219495
0.0147369
0.010035
0.00688647
0.00472472
0.00320617
0.00211815
0.00132721
0.000750137
0.000336547
9.72443e-005
1.7882e-005
3.01847e-006
9.05397e-007
6.33098e-007
5.97726e-007
5.93917e-007
5.93929e-007
5.94448e-007
5.94232e-007
5.91915e-007
5.91481e-007
5.921e-007
5.90802e-007
5.92111e-007
5.89888e-007
0.0739697
0.0467434
0.0303116
0.0201462
0.0136601
0.00939906
0.00652186
0.00452847
0.00311442
0.00209035
0.00133678
0.000778595
0.000371055
0.000119324
2.47163e-005
4.32961e-006
1.12581e-006
6.70363e-007
6.10922e-007
6.00326e-007
5.98015e-007
5.98001e-007
5.97875e-007
6.00239e-007
5.98209e-007
5.95575e-007
5.96214e-007
5.9549e-007
5.96915e-007
0.0655984
0.0418343
0.0273858
0.0183846
0.0125976
0.00876457
0.00615332
0.00432681
0.00301769
0.00205897
0.00134482
0.000808614
0.000407842
0.000145474
3.42436e-005
6.5936e-006
1.56361e-006
7.49797e-007
6.25695e-007
6.09699e-007
6.06139e-007
6.06138e-007
6.03938e-007
6.03463e-007
6.05309e-007
6.0458e-007
6.01275e-007
6.00176e-007
6.00364e-007
0.0577073
0.0371658
0.0245774
0.0166763
0.0115554
0.00813403
0.00578135
0.00411912
0.00291481
0.00202248
0.00134912
0.000835231
0.000444676
0.000174389
4.60532e-005
9.44605e-006
2.15371e-006
8.68729e-007
6.56711e-007
6.19392e-007
6.12051e-007
6.12034e-007
6.14222e-007
6.14228e-007
6.10915e-007
6.09573e-007
6.10125e-007
6.08972e-007
6.0886e-007
0.0503494
0.0327704
0.0219062
0.015033
0.0105403
0.00751124
0.00540792
0.00390628
0.00280612
0.00198098
0.00134914
0.000862147
0.000482989
0.0002084
6.27987e-005
1.46982e-005
3.3912e-006
1.12773e-006
7.08041e-007
6.413e-007
6.24383e-007
6.20487e-007
6.19792e-007
6.19575e-007
6.23968e-007
6.20727e-007
6.15966e-007
6.1642e-007
6.15915e-007
0.043563
0.0286731
0.0193881
0.0134647
0.00955827
0.00689929
0.00503421
0.00368822
0.00269063
0.00193302
0.00134523
0.000884157
0.000520371
0.000244461
8.22908e-005
2.08623e-005
4.91816e-006
1.49589e-006
7.99331e-007
6.62317e-007
6.40258e-007
6.33447e-007
6.33254e-007
6.2879e-007
6.28245e-007
6.34558e-007
6.3121e-007
6.24411e-007
6.23952e-007
0.0373721
0.0248922
0.017036
0.0119801
0.00861465
0.00630129
0.00466162
0.00346513
0.00256783
0.00187782
0.0013355
0.000902804
0.000554478
0.000282409
0.000107176
3.08996e-005
7.88895e-006
2.23674e-006
9.86669e-007
7.12359e-007
6.55765e-007
6.45585e-007
6.44718e-007
6.49051e-007
6.4146e-007
6.3935e-007
6.45596e-007
6.4245e-007
6.33727e-007
0.0317871
0.0214388
0.0148594
0.0105864
0.00771464
0.00572055
0.00429199
0.00323769
0.00243747
0.0018142
0.00131759
0.000914822
0.000585844
0.000318572
0.000133131
4.22171e-005
1.13942e-005
3.22465e-006
1.25004e-006
7.92484e-007
6.91914e-007
6.62507e-007
6.55648e-007
6.56007e-007
6.63151e-007
6.56239e-007
6.52729e-007
6.59047e-007
6.54766e-007
0.0268043
0.0183169
0.0128643
0.00928934
0.00686287
0.00516049
0.0039276
0.00300722
0.00230012
0.00174222
0.00129151
0.000919689
0.000611052
0.000355897
0.000164935
5.9053e-005
1.78278e-005
5.18519e-006
1.80709e-006
9.45471e-007
7.414e-007
6.98156e-007
6.7606e-007
6.72015e-007
6.72165e-007
6.78787e-007
6.72982e-007
6.67833e-007
6.74039e-007
0.0224073
0.0155234
0.0110525
0.00809261
0.00606314
0.00462427
0.00357074
0.00277515
0.00215645
0.00166195
0.00125677
0.000916614
0.000631104
0.000387218
0.000196078
7.75906e-005
2.53345e-005
7.71554e-006
2.56074e-006
1.19368e-006
8.22897e-007
7.28664e-007
7.09593e-007
6.9281e-007
6.93206e-007
6.91895e-007
6.97055e-007
6.91851e-007
6.85741e-007
0.0185692
0.0130488
0.0094228
0.00699799
0.00531825
0.00411464
0.00322362
0.00254295
0.00200715
0.00157337
0.00121305
0.000906817
0.000643182
0.000415908
0.000226909
9.97368e-005
3.62145e-005
1.19186e-005
4.01994e-006
1.63094e-006
9.8545e-007
7.88744e-007
7.37456e-007
7.24874e-007
7.15322e-007
7.19961e-007
7.15691e-007
7.17613e-007
7.10681e-007
0.0152544
0.0108786
0.00797033
0.00600544
0.00463005
0.00363398
0.00288845
0.00231235
0.00185336
0.001477
0.00116016
0.000887558
0.000646342
0.000435576
0.000256591
0.000123112
4.89217e-005
1.73263e-005
5.9981e-006
2.34065e-006
1.20548e-006
9.03257e-007
7.91853e-007
7.55235e-007
7.48179e-007
7.41018e-007
7.46799e-007
7.42152e-007
7.44146e-007
0.0124216
0.00899398
0.00668772
0.00511319
0.00399944
0.00318424
0.00256739
0.00208527
0.00169654
0.00137372
0.00109828
0.000857766
0.000641782
0.000449238
0.000278142
0.000146667
6.38327e-005
2.44311e-005
8.96377e-006
3.48522e-006
1.65236e-006
1.04231e-006
8.92234e-007
8.17232e-007
7.83925e-007
7.7832e-007
7.74673e-007
7.80258e-007
7.71611e-007
0.0100255
0.00737298
0.00556529
0.00431797
0.00342636
0.00276686
0.00226241
0.00186372
0.00153843
0.00126488
0.00102836
0.000818851
0.000629313
0.000453588
0.000297093
0.00016643
8.03083e-005
3.36118e-005
1.31271e-005
5.17675e-006
2.27524e-006
1.3039e-006
9.78027e-007
9.12677e-007
8.5527e-007
8.27412e-007
8.1144e-007
8.09889e-007
8.21346e-007
0.0080188
0.00599176
0.00459168
0.00361518
0.00290984
0.00238268
0.00197521
0.0016496
0.00138085
0.00115202
0.000951526
0.000771402
0.000606316
0.000449853
0.000308042
0.000185362
9.473e-005
4.35168e-005
1.82933e-005
7.58899e-006
3.3644e-006
1.73709e-006
1.15597e-006
9.74794e-007
9.48832e-007
9.04609e-007
8.8581e-007
8.57817e-007
8.52855e-007
0.00635451
0.00482549
0.00375437
0.0029992
0.00244808
0.00203202
0.00170712
0.00144471
0.00122565
0.00103683
0.00086918
0.000716375
0.000574508
0.000439105
0.000308646
0.000196596
0.000109984
5.34304e-005
2.45951e-005
1.07059e-005
4.85324e-006
2.49091e-006
1.52036e-006
1.13571e-006
1.01173e-006
9.97376e-007
9.7025e-007
9.53685e-007
9.15009e-007
0.00498708
0.00384929
0.00304024
0.00246365
0.00203863
0.00171464
0.00145914
0.00125064
0.00107463
0.000921053
0.000782885
0.000655099
0.000534411
0.00041888
0.000304492
0.000201494
0.000119978
6.4355e-005
3.10009e-005
1.49386e-005
6.85052e-006
3.43866e-006
1.99926e-006
1.39781e-006
1.17644e-006
1.07121e-006
1.0646e-006
1.04469e-006
1.02158e-006
0.00387363
0.00303903
0.00243606
0.00200173
0.00167851
0.00142985
0.00123193
0.0010688
0.000929548
0.000806544
0.00069437
0.000589142
0.000488151
0.00038993
0.000293864
0.00020041
0.000125375
7.17911e-005
3.83374e-005
1.89569e-005
9.87122e-006
4.84863e-006
2.75601e-006
1.77505e-006
1.36534e-006
1.24116e-006
1.1509e-006
1.155e-006
1.13922e-006
0.00297481
0.00237196
0.00192889
0.00160648
0.00136441
0.00117663
0.00102585
0.000900376
0.000792074
0.000695197
0.000605607
0.000520345
0.000437178
0.000355366
0.000274458
0.000195669
0.000126878
7.65474e-005
4.37667e-005
2.38993e-005
1.25024e-005
7.14162e-006
3.82886e-006
2.48665e-006
1.71976e-006
1.42659e-006
1.33115e-006
1.25545e-006
1.26886e-006
0.00225526
0.00182707
0.00150649
0.001271
0.00109284
0.000953614
0.000840951
0.000746315
0.000663704
0.000588839
0.000518543
0.000450635
0.000383565
0.000316113
0.000249584
0.000185153
0.000125266
7.92972e-005
4.79271e-005
2.80566e-005
1.60388e-005
8.96014e-006
5.58945e-006
3.32102e-006
2.41183e-006
1.77463e-006
1.56906e-006
1.45674e-006
1.38958e-006
0.00168394
0.00138553
0.00115752
0.000988715
0.000860227
0.000759251
0.000676992
0.000607272
0.000545683
0.000489024
0.000435078
0.000381951
0.000328599
0.00027481
0.000219801
0.000167821
0.000119634
7.8934e-005
5.03753e-005
3.14903e-005
1.91336e-005
1.1721e-005
6.935e-006
4.7519e-006
3.11468e-006
2.46209e-006
1.93458e-006
1.762e-006
1.64054e-006
0.00123416
0.00103075
0.00087175
0.000753431
0.000663069
0.000591823
0.000533486
0.000483602
0.000438926
0.000397149
0.000356598
0.000316199
0.000274244
0.000231798
0.000188457
0.000146205
0.000108808
7.63318e-005
5.03437e-005
3.33082e-005
2.16456e-005
1.41261e-005
9.3348e-006
5.88198e-006
4.4576e-006
3.1331e-006
2.66575e-006
2.177e-006
2.02415e-006
0.000883429
0.000748423
0.000640096
0.000559486
0.000497992
0.000449526
0.000409721
0.000375352
0.000344047
0.000314173
0.000284673
0.000254123
0.000222617
0.000189491
0.00015544
0.000123372
9.36845e-005
7.00912e-005
4.90518e-005
3.3216e-005
2.30532e-005
1.57151e-005
1.12196e-005
7.90637e-006
5.42456e-006
4.46596e-006
3.34432e-006
3.01688e-006
2.51345e-006
0.000613142
0.000526388
0.000454624
0.000401785
0.000361832
0.00033053
0.000304796
0.000282288
0.000261277
0.00024082
0.000219968
0.00019724
0.000173969
0.000149442
0.000123457
9.87688e-005
7.7542e-005
5.85527e-005
4.47676e-005
3.20918e-005
2.29214e-005
1.66471e-005
1.22317e-005
9.49253e-006
7.17461e-006
5.35907e-006
4.69651e-006
3.75281e-006
3.46131e-006
0.000408104
0.000354408
0.000308529
0.000275865
0.000251699
0.000233029
0.00021765
0.00020388
0.000190639
0.000177111
0.000163007
0.000146048
0.000129814
0.000110958
9.30066e-005
7.43704e-005
5.92294e-005
4.6174e-005
3.58543e-005
2.8518e-005
2.1709e-005
1.64507e-005
1.27351e-005
1.01313e-005
8.65585e-006
7.05796e-006
5.7824e-006
5.151e-006
4.38201e-006
0.000255995
0.000223986
0.000196152
0.000177951
0.000165024
0.000155272
0.000147109
0.00013945
0.000131586
0.000123153
0.000113145
0.000101851
8.98475e-005
7.66771e-005
6.4112e-005
5.19995e-005
4.1728e-005
3.37045e-005
2.67302e-005
2.17401e-005
1.8191e-005
1.51731e-005
1.24608e-005
1.03857e-005
9.05461e-006
8.48635e-006
7.58588e-006
6.91813e-006
6.49463e-006
0.000146807
0.000128312
0.000113041
0.000104981
9.9548e-005
9.55856e-005
9.20138e-005
8.82868e-005
8.37081e-005
7.87997e-005
7.15237e-005
6.43342e-005
5.64845e-005
4.71698e-005
4.01783e-005
3.23084e-005
2.70381e-005
2.25026e-005
1.89185e-005
1.60931e-005
1.41537e-005
1.25383e-005
1.13535e-005
1.00267e-005
9.13718e-006
8.68316e-006
8.52659e-006
8.1141e-006
7.96938e-006
7.2711e-005
6.24621e-005
5.59401e-005
5.44527e-005
5.32493e-005
5.26361e-005
5.14626e-005
4.97972e-005
4.73605e-005
4.42778e-005
3.98034e-005
3.60447e-005
3.11353e-005
2.64795e-005
2.29575e-005
1.90089e-005
1.6185e-005
1.3395e-005
1.1559e-005
1.03316e-005
9.6396e-006
9.23373e-006
9.34545e-006
9.75327e-006
1.03104e-005
1.08187e-005
1.20062e-005
1.2472e-005
1.23304e-005
2.82249e-005
2.34856e-005
2.25144e-005
2.38422e-005
2.43285e-005
2.49084e-005
2.48306e-005
2.41852e-005
2.33924e-005
2.15074e-005
1.9588e-005
1.80506e-005
1.46896e-005
1.27017e-005
1.15513e-005
1.06688e-005
1.11117e-005
1.25603e-005
1.65293e-005
2.2398e-005
3.70961e-005
5.81309e-005
9.58291e-005
0.000157975
0.000221688
0.000334666
0.000406457
0.000489924
0.000454202
8.23113e-006
7.02759e-006
7.66488e-006
9.3357e-006
9.77383e-006
1.05709e-005
1.05117e-005
1.03381e-005
9.9178e-006
9.25252e-006
9.25392e-006
9.9582e-006
1.24386e-005
1.72903e-005
3.00347e-005
5.48059e-005
0.000117771
0.000210113
0.000411943
0.000646576
0.00112022
0.00168035
0.00253686
0.00371335
0.0049589
0.0071478
0.00857706
0.0119691
0.0121565
2.52286e-006
2.46768e-006
2.95718e-006
3.83049e-006
4.02895e-006
4.67106e-006
5.55277e-006
6.83375e-006
9.55778e-006
1.54202e-005
3.02869e-005
6.29597e-005
0.000151275
0.00028445
0.000575514
0.000978699
0.00175155
0.00272761
0.00428144
0.00617822
0.00907677
0.0126021
0.0175986
0.0240118
0.0320242
0.0441067
0.0557827
0.0810941
0.0952816
1.25646e-006
1.33642e-006
1.65077e-006
2.38582e-006
4.70203e-006
8.20002e-006
2.12869e-005
3.84133e-005
8.34486e-005
0.000181536
0.000385718
0.000731657
0.00141411
0.00230824
0.00381744
0.00583147
0.00884491
0.0126953
0.0181003
0.0249201
0.0344685
0.0462994
0.0629012
0.0835477
0.112734
0.151058
0.203658
0.289794
0.37614
1.01651e-006
1.37312e-006
2.39174e-006
5.91441e-006
2.27525e-005
5.24729e-005
0.000142255
0.000268607
0.000569195
0.00109152
0.00199775
0.00343557
0.00572431
0.0087131
0.0132804
0.0192877
0.0276754
0.0382802
0.0527284
0.0709072
0.0959723
0.12678
0.170655
0.223747
0.304591
0.402084
0.56776
0.77332
1.08728
0.00151969
0.00151969
0.00151969
0.00151969
0.00151969
0.00151969
0.00151969
0.00151969
0.00151969
0.00151969
0.00151969
0.00151969
0.00151969
0.00151969
0.00151969
0.00151969
0.00151969
0.00151969
0.00151969
0.00151969
0.00151969
0.00151969
0.00151969
0.00151969
0.00151969
0.00151969
0.00151969
0.00151969
0.00151969
0.00151969
0.00151969
0.0015197
0.0015197
0.0015197
0.0015197
0.0015197
0.0015197
0.0015197
0.0015197
0.0015197
0.0015197
0.0015197
0.0015197
0.0015197
0.0015197
0.0015197
0.0015197
0.0015197
0.0015197
0.0015197
0.0015197
0.0015197
0.0015197
0.0015197
0.0015197
0.0015197
0.0015197
0.0015197
0.0015197
0.0015197
0.0015197
0.0015197
0.0015197
0.0015197
0.0015197
0.0015197
0.0015197
0.0015197
0.00151971
0.00151971
0.00151971
0.00151971
0.00151971
0.00151971
0.00151971
0.00151971
0.00151971
0.00151971
0.00151971
0.00151971
0.00151971
0.00151971
0.00151971
0.00151971
0.00151971
0.00151971
0.00151971
0.00151971
0.00151971
0.00151971
0.00151971
0.00151971
0.00151971
0.00151971
0.00151971
0.00151971
0.00151971
0.00151971
0.00151971
0.00151971
0.00151971
0.00151971
0.00151971
0.00151971
0.00151971
0.00151971
0.00151971
0.00151971
0.00151971
0.00151971
0.00151971
0.00151971
0.00151971
0.00151971
0.00151971
0.00151971
0.00151971
0.00151971
0.00151971
0.00151971
0.00151971
0.00151971
0.00151971
0.00151971
0.00151971
0.00151971
0.00151971
0.00151971
0.00151971
0.00151971
0.00151971
0.00151971
0.00151971
0.00151971
0.00151971
0.00151972
0.00151972
0.00151973
0.00154202
3.2818e-005
3.28183e-005
3.28184e-005
3.28184e-005
3.28184e-005
3.28184e-005
3.28183e-005
3.28183e-005
3.28183e-005
3.28182e-005
3.28182e-005
3.28182e-005
3.28182e-005
3.28183e-005
3.28184e-005
3.28185e-005
3.28186e-005
3.28187e-005
3.28188e-005
3.2819e-005
3.28192e-005
3.28194e-005
3.28196e-005
3.28199e-005
3.28202e-005
3.28205e-005
3.28208e-005
3.28211e-005
3.28215e-005
3.28219e-005
3.28223e-005
3.28227e-005
3.28231e-005
3.28236e-005
3.2824e-005
3.28245e-005
3.28249e-005
3.28254e-005
3.28258e-005
3.28262e-005
3.28266e-005
3.2827e-005
3.28274e-005
3.28277e-005
3.2828e-005
3.28284e-005
3.28287e-005
3.2829e-005
3.28293e-005
3.28296e-005
3.28298e-005
3.28301e-005
3.28304e-005
3.28307e-005
3.28309e-005
3.28312e-005
3.28315e-005
3.28318e-005
3.28321e-005
3.28324e-005
3.28327e-005
3.28331e-005
3.28334e-005
3.28337e-005
3.2834e-005
3.28343e-005
3.28346e-005
3.28349e-005
3.28351e-005
3.28354e-005
3.28356e-005
3.28358e-005
3.2836e-005
3.28363e-005
3.28365e-005
3.28367e-005
3.28369e-005
3.28371e-005
3.28373e-005
3.28375e-005
3.28377e-005
3.28378e-005
3.2838e-005
3.28381e-005
3.28382e-005
3.28383e-005
3.28384e-005
3.28386e-005
3.28386e-005
3.28385e-005
3.28385e-005
3.28385e-005
3.28386e-005
3.28386e-005
3.28387e-005
3.28388e-005
3.28389e-005
3.2839e-005
3.28391e-005
3.28393e-005
3.28394e-005
3.28395e-005
3.28396e-005
3.28398e-005
3.28399e-005
3.28401e-005
3.28402e-005
3.28404e-005
3.28405e-005
3.28406e-005
3.28407e-005
3.28406e-005
3.28402e-005
3.28397e-005
3.28391e-005
3.28385e-005
3.28378e-005
3.28373e-005
3.28371e-005
3.28372e-005
3.28374e-005
3.28375e-005
3.28376e-005
3.28377e-005
3.28375e-005
3.28377e-005
3.28374e-005
3.28376e-005
3.28384e-005
3.28375e-005
3.28402e-005
3.2839e-005
3.28415e-005
3.28447e-005
3.28425e-005
3.28473e-005
3.286e-005
3.27658e-005
3.37399e-005
1.42074e-006
1.42081e-006
1.42086e-006
1.42091e-006
1.42095e-006
1.421e-006
1.42103e-006
1.42107e-006
1.4211e-006
1.42114e-006
1.42117e-006
1.4212e-006
1.42124e-006
1.42127e-006
1.4213e-006
1.42134e-006
1.42137e-006
1.42141e-006
1.42145e-006
1.42149e-006
1.42153e-006
1.42157e-006
1.42161e-006
1.42165e-006
1.4217e-006
1.42175e-006
1.42179e-006
1.42184e-006
1.42189e-006
1.42194e-006
1.42199e-006
1.42204e-006
1.4221e-006
1.42215e-006
1.42221e-006
1.42227e-006
1.42233e-006
1.42239e-006
1.42246e-006
1.42252e-006
1.42258e-006
1.42265e-006
1.42271e-006
1.42277e-006
1.42284e-006
1.4229e-006
1.42296e-006
1.42303e-006
1.42309e-006
1.42315e-006
1.42322e-006
1.42328e-006
1.42334e-006
1.42341e-006
1.42347e-006
1.42354e-006
1.4236e-006
1.42366e-006
1.42372e-006
1.42379e-006
1.42385e-006
1.4239e-006
1.42396e-006
1.42402e-006
1.42407e-006
1.42413e-006
1.42418e-006
1.42423e-006
1.42428e-006
1.42433e-006
1.42438e-006
1.42443e-006
1.42447e-006
1.42452e-006
1.42456e-006
1.42461e-006
1.42465e-006
1.42469e-006
1.42473e-006
1.42477e-006
1.42481e-006
1.42484e-006
1.42488e-006
1.42492e-006
1.42495e-006
1.42499e-006
1.42502e-006
1.42506e-006
1.42508e-006
1.42509e-006
1.4251e-006
1.42511e-006
1.42512e-006
1.42512e-006
1.42512e-006
1.42512e-006
1.42512e-006
1.42512e-006
1.42511e-006
1.4251e-006
1.42509e-006
1.42508e-006
1.42507e-006
1.42505e-006
1.42503e-006
1.42501e-006
1.42499e-006
1.42496e-006
1.42493e-006
1.4249e-006
1.42487e-006
1.42484e-006
1.42479e-006
1.42473e-006
1.42467e-006
1.4246e-006
1.42454e-006
1.42447e-006
1.42443e-006
1.4244e-006
1.42437e-006
1.42434e-006
1.4243e-006
1.42426e-006
1.42421e-006
1.42413e-006
1.42413e-006
1.42398e-006
1.42403e-006
1.42396e-006
1.42397e-006
1.42401e-006
1.42376e-006
1.42434e-006
1.42591e-006
1.42553e-006
1.33392e-006
1.82202e-006
0.000109223
1.2021e-007
1.20222e-007
1.20234e-007
1.20244e-007
1.20255e-007
1.20265e-007
1.20275e-007
1.20285e-007
1.20294e-007
1.20304e-007
1.20313e-007
1.20323e-007
1.20333e-007
1.20342e-007
1.20352e-007
1.20362e-007
1.20372e-007
1.20382e-007
1.20393e-007
1.20403e-007
1.20413e-007
1.20424e-007
1.20435e-007
1.20445e-007
1.20456e-007
1.20467e-007
1.20479e-007
1.2049e-007
1.20501e-007
1.20513e-007
1.20524e-007
1.20536e-007
1.20547e-007
1.20559e-007
1.20571e-007
1.20583e-007
1.20595e-007
1.20608e-007
1.2062e-007
1.20632e-007
1.20644e-007
1.20656e-007
1.20669e-007
1.20681e-007
1.20693e-007
1.20705e-007
1.20718e-007
1.2073e-007
1.20742e-007
1.20754e-007
1.20766e-007
1.20778e-007
1.2079e-007
1.20802e-007
1.20814e-007
1.20825e-007
1.20837e-007
1.20849e-007
1.2086e-007
1.20871e-007
1.20882e-007
1.20893e-007
1.20903e-007
1.20913e-007
1.20923e-007
1.20933e-007
1.20943e-007
1.20952e-007
1.20962e-007
1.20971e-007
1.2098e-007
1.20988e-007
1.20997e-007
1.21005e-007
1.21013e-007
1.21021e-007
1.21029e-007
1.21036e-007
1.21044e-007
1.21051e-007
1.21058e-007
1.21064e-007
1.21071e-007
1.21077e-007
1.21083e-007
1.21088e-007
1.21094e-007
1.21098e-007
1.21103e-007
1.21107e-007
1.21111e-007
1.21114e-007
1.21116e-007
1.21118e-007
1.2112e-007
1.21121e-007
1.21121e-007
1.21121e-007
1.21121e-007
1.2112e-007
1.21118e-007
1.21116e-007
1.21113e-007
1.2111e-007
1.21106e-007
1.21102e-007
1.21098e-007
1.21093e-007
1.21088e-007
1.21082e-007
1.21076e-007
1.2107e-007
1.21064e-007
1.21057e-007
1.2105e-007
1.21041e-007
1.21032e-007
1.21023e-007
1.21013e-007
1.21003e-007
1.20993e-007
1.20982e-007
1.2097e-007
1.20955e-007
1.2094e-007
1.2092e-007
1.209e-007
1.20886e-007
1.20852e-007
1.20862e-007
1.20844e-007
1.20806e-007
1.21036e-007
1.21317e-007
1.1472e-007
1.12339e-007
6.62537e-007
8.53025e-005
0.00530779
1.85114e-008
1.8515e-008
1.85184e-008
1.85216e-008
1.85246e-008
1.85278e-008
1.85309e-008
1.85339e-008
1.8537e-008
1.85401e-008
1.85432e-008
1.85463e-008
1.85495e-008
1.85527e-008
1.8556e-008
1.85593e-008
1.85627e-008
1.85661e-008
1.85695e-008
1.8573e-008
1.85766e-008
1.85802e-008
1.85839e-008
1.85876e-008
1.85914e-008
1.85952e-008
1.8599e-008
1.86029e-008
1.86068e-008
1.86108e-008
1.86148e-008
1.86188e-008
1.86228e-008
1.86268e-008
1.86309e-008
1.8635e-008
1.8639e-008
1.86431e-008
1.86472e-008
1.86513e-008
1.86553e-008
1.86594e-008
1.86634e-008
1.86675e-008
1.86715e-008
1.86755e-008
1.86795e-008
1.86834e-008
1.86874e-008
1.86913e-008
1.86952e-008
1.8699e-008
1.87028e-008
1.87066e-008
1.87104e-008
1.87141e-008
1.87177e-008
1.87213e-008
1.87249e-008
1.87284e-008
1.87318e-008
1.87352e-008
1.87385e-008
1.87418e-008
1.8745e-008
1.87482e-008
1.87514e-008
1.87545e-008
1.87575e-008
1.87604e-008
1.87633e-008
1.87662e-008
1.87689e-008
1.87716e-008
1.87743e-008
1.87768e-008
1.87793e-008
1.87818e-008
1.87841e-008
1.87864e-008
1.87886e-008
1.87907e-008
1.87928e-008
1.87947e-008
1.87966e-008
1.87984e-008
1.88001e-008
1.88017e-008
1.88033e-008
1.88049e-008
1.88063e-008
1.88077e-008
1.8809e-008
1.88102e-008
1.88112e-008
1.88121e-008
1.88129e-008
1.88136e-008
1.88141e-008
1.88145e-008
1.88147e-008
1.88148e-008
1.88148e-008
1.88146e-008
1.88143e-008
1.88139e-008
1.88133e-008
1.88126e-008
1.88117e-008
1.88107e-008
1.88095e-008
1.88082e-008
1.88071e-008
1.88058e-008
1.88043e-008
1.88027e-008
1.88008e-008
1.87987e-008
1.87964e-008