/*--------------------------------*- C++ -*----------------------------------*\
| =========                 |                                                 |
| \\      /  F ield         | OpenFOAM: The Open Source CFD Toolbox           |
|  \\    /   O peration     | Version:  5.x                                   |
|   \\  /    A nd           | Web:      www.OpenFOAM.org                      |
|    \\/     M anipulation  |                                                 |
\*---------------------------------------------------------------------------*/
/*   Windows 32 and 64 bit porting by blueCAPE: http://www.bluecape.com.pt   *\
|  Based on Windows porting (2.0.x v4) by Symscape: http://www.symscape.com   |
\*---------------------------------------------------------------------------*/
FoamFile
{
    version     2.0;
    format      ascii;
    class       volScalarField;
    location    "140";
    object      k;
}
// * * * * * * * * * * * * * * * * * * * * * * * * * * * * * * * * * * * * * //

dimensions      [0 2 -2 0 0 0 0];

internalField   nonuniform List<scalar> 
43900
(
0.000985199
0.000989566
0.000990244
0.000990188
0.000990128
0.000990122
0.000990122
0.000990133
0.000990125
0.000990133
0.000990133
0.000990134
0.000990134
0.000990135
0.000990135
0.000990136
0.000990136
0.000990137
0.000990137
0.000990138
0.000990138
0.000990139
0.000990139
0.00099014
0.00099014
0.00099014
0.00099014
0.000990141
0.000990141
0.00147411
5.31345e-005
3.88848e-005
3.81229e-005
4.08792e-005
4.09779e-005
4.09722e-005
4.09714e-005
4.09617e-005
4.09747e-005
4.09755e-005
4.09772e-005
4.09785e-005
4.09796e-005
4.09806e-005
4.09816e-005
4.09826e-005
4.09835e-005
4.09846e-005
4.09857e-005
4.09866e-005
4.09873e-005
4.0988e-005
4.09886e-005
4.09891e-005
4.09896e-005
4.099e-005
4.09903e-005
4.09904e-005
0.284732
0.0499823
0.00339372
8.76713e-005
4.25559e-006
3.06969e-006
3.18087e-006
3.37257e-006
3.38435e-006
3.37371e-006
3.37263e-006
3.37394e-006
3.37483e-006
3.37556e-006
3.37623e-006
3.37684e-006
3.37738e-006
3.37787e-006
3.37832e-006
3.3787e-006
3.37902e-006
3.37928e-006
3.37951e-006
3.37972e-006
3.3799e-006
3.38007e-006
3.38022e-006
3.38036e-006
3.38044e-006
0.864981
0.363792
0.111475
0.0199816
0.00138445
4.13393e-005
1.85461e-006
4.96021e-007
4.44515e-007
5.26159e-007
5.3795e-007
5.33538e-007
5.32651e-007
5.32812e-007
5.33001e-007
5.33166e-007
5.33314e-007
5.33447e-007
5.33563e-007
5.33665e-007
5.33755e-007
5.33833e-007
5.33904e-007
5.33968e-007
5.34028e-007
5.34087e-007
5.34137e-007
5.34184e-007
5.34226e-007
1.26268
0.713096
0.371615
0.157387
0.0450536
0.00646522
0.000346254
1.14691e-005
6.16255e-007
1.44502e-007
1.18972e-007
1.41261e-007
1.45695e-007
1.4565e-007
1.4567e-007
1.45714e-007
1.45754e-007
1.45788e-007
1.45821e-007
1.45852e-007
1.45876e-007
1.45903e-007
1.4593e-007
1.45955e-007
1.45978e-007
1.45995e-007
1.46021e-007
1.46045e-007
1.46068e-007
1.52243
0.958153
0.591963
0.347123
0.177775
0.0652882
0.0140581
0.00123638
5.10228e-005
1.86871e-006
1.47754e-007
5.63841e-008
5.06619e-008
5.25633e-008
5.28225e-008
5.28447e-008
5.28587e-008
5.28737e-008
5.28871e-008
5.28985e-008
5.29061e-008
5.29155e-008
5.29235e-008
5.29336e-008
5.2942e-008
5.2948e-008
5.29634e-008
5.29717e-008
5.298e-008
1.67699
1.11414
0.738769
0.481726
0.301024
0.171599
0.0768608
0.0213688
0.00271758
0.000138672
5.20379e-006
2.21603e-007
4.57652e-008
3.59053e-008
3.53775e-008
3.53642e-008
3.53643e-008
3.53652e-008
3.5368e-008
3.53747e-008
3.53893e-008
3.5397e-008
3.54068e-008
3.54117e-008
3.54209e-008
3.54464e-008
3.5441e-008
3.54411e-008
3.54419e-008
1.77912
1.22307
0.845079
0.581925
0.394209
0.257164
0.154927
0.0776429
0.0244407
0.00363823
0.000202527
7.3705e-006
2.8271e-007
4.44521e-008
3.68835e-008
3.66643e-008
3.66636e-008
3.66636e-008
3.66645e-008
3.66692e-008
3.66835e-008
3.66939e-008
3.67134e-008
3.67181e-008
3.67278e-008
3.67576e-008
3.67388e-008
3.67388e-008
3.67395e-008
1.84933
1.30138
0.923065
0.656177
0.463729
0.321945
0.21531
0.133685
0.0708032
0.0234072
0.00339686
0.000170823
5.60874e-006
2.23532e-007
5.92461e-008
5.44434e-008
5.43319e-008
5.43316e-008
5.4332e-008
5.43343e-008
5.43452e-008
5.43769e-008
5.44942e-008
5.44832e-008
5.44848e-008
5.45204e-008
5.43899e-008
5.43899e-008
5.43905e-008
1.85011
1.31781
0.948683
0.687105
0.497597
0.357323
0.251313
0.169663
0.105894
0.0560204
0.0174012
0.00202628
8.12715e-005
2.51312e-006
2.13009e-007
1.48721e-007
1.47098e-007
1.47094e-007
1.47093e-007
1.47097e-007
1.47111e-007
1.47198e-007
1.47709e-007
1.47472e-007
1.47474e-007
1.47537e-007
1.46909e-007
1.46909e-007
1.4691e-007
1.84205
1.3227
0.96066
0.703054
0.515904
0.377132
0.272163
0.191236
0.127802
0.0775579
0.037883
0.0090002
0.000650403
2.05055e-005
1.05082e-006
5.24539e-007
5.11269e-007
5.11216e-007
5.11517e-007
5.11485e-007
5.11486e-007
5.11573e-007
5.1297e-007
5.11056e-007
5.10499e-007
5.10504e-007
5.08923e-007
5.08926e-007
5.0897e-007
1.82125
1.31581
0.960937
0.707629
0.52333
0.386485
0.282859
0.202908
0.140168
0.0902909
0.0505176
0.0193295
0.00259179
0.000102217
4.40033e-006
1.80482e-006
1.73958e-006
1.73917e-006
1.74065e-006
1.74033e-006
1.74033e-006
1.73968e-006
1.7424e-006
1.73425e-006
1.72711e-006
1.7257e-006
1.72477e-006
1.7245e-006
1.72454e-006
1.78984
1.29876
0.953402
0.705274
0.523769
0.388916
0.286885
0.20814
0.146299
0.0970485
0.0575449
0.0260448
0.00538826
0.000309963
1.40629e-005
5.80821e-006
5.59437e-006
5.5924e-006
5.59251e-006
5.59256e-006
5.594e-006
5.59046e-006
5.59503e-006
5.56631e-006
5.53006e-006
5.52876e-006
5.5288e-006
5.52596e-006
5.52606e-006
1.75068
1.27368
0.937821
0.696765
0.520035
0.387783
0.287227
0.209699
0.148868
0.100339
0.0612671
0.029924
0.00753587
0.000580664
3.62802e-005
1.79342e-005
1.74144e-005
1.73817e-005
1.73633e-005
1.73633e-005
1.73566e-005
1.73568e-005
1.73679e-005
1.72769e-005
1.71509e-005
1.71507e-005
1.71506e-005
1.71375e-005
1.71541e-005
1.70651
1.24409
0.917951
0.683546
0.511798
0.383466
0.285542
0.209407
0.149488
0.101736
0.0631992
0.0321604
0.00907939
0.000844498
6.55887e-005
3.57987e-005
3.47777e-005
3.47305e-005
3.47202e-005
3.47314e-005
3.46953e-005
3.46916e-005
3.46887e-005
3.45428e-005
3.44328e-005
3.44178e-005
3.44177e-005
3.4373e-005
3.42992e-005
1.65892
1.21158
0.895653
0.668284
0.501432
0.376639
0.281551
0.207658
0.149055
0.102046
0.064089
0.0334149
0.0101096
0.00106865
9.24239e-005
4.99213e-005
4.84389e-005
4.83006e-005
4.82958e-005
4.82578e-005
4.82211e-005
4.82516e-005
4.81523e-005
4.8069e-005
4.79775e-005
4.79532e-005
4.79733e-005
4.78881e-005
4.78152e-005
1.60866
1.17698
0.871705
0.651725
0.49006
0.368951
0.276496
0.204594
0.147688
0.101813
0.0645633
0.0343258
0.0109714
0.00129639
0.000118638
6.05732e-005
5.81002e-005
5.79576e-005
5.78959e-005
5.78845e-005
5.79259e-005
5.78575e-005
5.78003e-005
5.77268e-005
5.764e-005
5.76628e-005
5.76386e-005
5.75436e-005
5.75024e-005
1.55607
1.14066
0.846498
0.63424
0.478012
0.360772
0.271097
0.201218
0.145794
0.101135
0.0646491
0.0349656
0.0117566
0.00154293
0.000147106
6.82519e-005
6.4651e-005
6.44501e-005
6.44088e-005
6.44079e-005
6.43461e-005
6.43011e-005
6.43004e-005
6.42366e-005
6.42128e-005
6.41789e-005
6.40983e-005
6.40335e-005
6.40438e-005
1.50122
1.10278
0.82021
0.616019
0.465474
0.35228
0.265511
0.197733
0.143832
0.100276
0.0646313
0.0355173
0.012484
0.0018016
0.000179534
7.44854e-005
6.89806e-005
6.86101e-005
6.85651e-005
6.85743e-005
6.85521e-005
6.85754e-005
6.85268e-005
6.83969e-005
6.84001e-005
6.8373e-005
6.83556e-005
6.83776e-005
6.82557e-005
1.44406
1.06332
0.792843
0.597074
0.452466
0.343499
0.259767
0.194183
0.141874
0.0994703
0.064668
0.0360883
0.0132481
0.0021159
0.000221652
8.03084e-005
7.17015e-005
7.11947e-005
7.12749e-005
7.11722e-005
7.12121e-005
7.12047e-005
7.10324e-005
7.11269e-005
7.11176e-005
7.10049e-005
7.10507e-005
7.09428e-005
7.0932e-005
1.38476
1.02238
0.764465
0.577449
0.439019
0.334458
0.253893
0.190601
0.139954
0.0987506
0.0648035
0.0367862
0.0141785
0.0025062
0.000276736
8.65443e-005
7.3728e-005
7.31046e-005
7.2792e-005
7.28514e-005
7.28734e-005
7.27148e-005
7.28769e-005
7.28191e-005
7.26201e-005
7.27388e-005
7.26884e-005
7.26722e-005
7.26397e-005
1.32336
0.980002
0.735102
0.557165
0.425147
0.325164
0.247895
0.18699
0.138074
0.0981231
0.0650752
0.03764
0.0152038
0.00296179
0.00035244
9.54578e-005
7.5669e-005
7.3864e-005
7.3898e-005
7.39327e-005
7.38255e-005
7.39239e-005
7.37957e-005
7.3745e-005
7.38611e-005
7.37502e-005
7.3704e-005
7.37106e-005
7.37512e-005
1.26002
0.93625
0.704768
0.5362
0.410809
0.315565
0.241713
0.18329
0.136181
0.0975392
0.0654125
0.0385591
0.016347
0.00354338
0.000457805
0.000107791
7.71629e-005
7.49102e-005
7.46046e-005
7.4543e-005
7.45908e-005
7.45237e-005
7.45792e-005
7.44972e-005
7.43997e-005
7.44953e-005
7.44651e-005
7.44386e-005
7.43447e-005
1.1951
0.891333
0.673587
0.51463
0.396054
0.305696
0.235383
0.179536
0.134308
0.0970307
0.0658728
0.0396713
0.0177864
0.00431097
0.000614044
0.000128151
8.01185e-005
7.54901e-005
7.52296e-005
7.51585e-005
7.50852e-005
7.51091e-005
7.49424e-005
7.50241e-005
7.50977e-005
7.49282e-005
7.49756e-005
7.48981e-005
7.48682e-005
1.12879
0.845378
0.641633
0.49249
0.380888
0.295544
0.22887
0.175685
0.132411
0.096565
0.0664388
0.0409344
0.0193166
0.00519281
0.000817824
0.000158216
8.40286e-005
7.66145e-005
7.56077e-005
7.54869e-005
7.56007e-005
7.55685e-005
7.56281e-005
7.54704e-005
7.53571e-005
7.54507e-005
7.53484e-005
7.54141e-005
7.54613e-005
1.06147
0.798596
0.609009
0.469814
0.365301
0.285072
0.222127
0.171682
0.130427
0.0960612
0.0669943
0.0421948
0.0209819
0.00628146
0.00111182
0.000205449
9.08871e-005
7.76598e-005
7.62879e-005
7.61233e-005
7.5942e-005
7.58991e-005
7.58727e-005
7.59913e-005
7.59608e-005
7.57986e-005
7.58848e-005
7.57444e-005
7.56923e-005
0.993611
0.751269
0.575887
0.446704
0.349352
0.274314
0.215173
0.167541
0.128379
0.0955718
0.0676568
0.0436767
0.022918
0.00767363
0.00154247
0.000286661
0.000103681
7.99629e-005
7.68427e-005
7.65046e-005
7.65078e-005
7.65593e-005
7.65368e-005
7.63174e-005
7.62788e-005
7.63412e-005
7.62217e-005
7.63425e-005
7.6147e-005
0.925616
0.703657
0.54242
0.423242
0.333077
0.263271
0.207988
0.163227
0.126215
0.0950169
0.0682852
0.0451259
0.024914
0.00924935
0.00209882
0.000398481
0.000122639
8.31942e-005
7.80494e-005
7.71183e-005
7.68964e-005
7.6893e-005
7.6883e-005
7.71001e-005
7.69225e-005
7.66719e-005
7.67318e-005
7.66725e-005
7.68043e-005
0.85795
0.656041
0.508776
0.399517
0.316507
0.251941
0.200543
0.158695
0.123882
0.0943489
0.0688719
0.046636
0.0270003
0.011069
0.00285771
0.000588073
0.00016002
9.00635e-005
7.93466e-005
7.79747e-005
7.76669e-005
7.7661e-005
7.74648e-005
7.74052e-005
7.75736e-005
7.75105e-005
7.72159e-005
7.71078e-005
7.71266e-005
0.791101
0.608731
0.47514
0.37563
0.299689
0.240329
0.192819
0.153907
0.121331
0.0935048
0.0693156
0.0480127
0.0290646
0.0130374
0.0037893
0.000826856
0.000210101
0.000100207
8.2075e-005
7.8847e-005
7.82055e-005
7.82008e-005
7.8402e-005
7.83993e-005
7.80963e-005
7.79726e-005
7.80272e-005
7.79338e-005
7.79177e-005
0.725551
0.56204
0.441713
0.351705
0.282694
0.228471
0.184827
0.148862
0.118557
0.0924891
0.0696726
0.0494096
0.031182
0.0152878
0.00507412
0.00125774
0.000314191
0.000122231
8.64768e-005
8.08036e-005
7.93386e-005
7.89991e-005
7.8924e-005
7.89044e-005
7.92915e-005
7.90094e-005
7.85693e-005
7.8616e-005
7.85757e-005
0.661746
0.516267
0.408688
0.327859
0.265583
0.216388
0.176559
0.14353
0.115507
0.0912226
0.0697505
0.0505993
0.0332305
0.0176174
0.00655093
0.00176547
0.000442578
0.000153284
9.42075e-005
8.26064e-005
8.07532e-005
8.01878e-005
8.01621e-005
7.97491e-005
7.96886e-005
8.02489e-005
7.99594e-005
7.93581e-005
7.93048e-005
0.600104
0.471696
0.376254
0.304213
0.248424
0.20411
0.168014
0.137885
0.112143
0.0896634
0.069624
0.0516007
0.0350895
0.0199938
0.00836288
0.0025625
0.000688363
0.000215534
0.000110085
8.69279e-005
8.21123e-005
8.12739e-005
8.12008e-005
8.15764e-005
8.09139e-005
8.06974e-005
8.12485e-005
8.09875e-005
8.02052e-005
0.541001
0.428594
0.344597
0.280888
0.231294
0.191674
0.159202
0.131915
0.108433
0.0877719
0.0692361
0.0523373
0.0367797
0.0222319
0.0102457
0.00346611
0.000979691
0.00029813
0.000132147
9.36877e-005
8.52499e-005
8.27614e-005
8.21728e-005
8.22042e-005
8.28238e-005
8.22348e-005
8.1902e-005
8.24592e-005
8.21002e-005
0.484764
0.387204
0.313892
0.258011
0.214275
0.179132
0.150147
0.125624
0.104367
0.0855223
0.068485
0.052808
0.0381867
0.0244543
0.012445
0.00476682
0.00150214
0.000461223
0.000178722
0.000106536
8.94987e-005
8.58964e-005
8.40069e-005
8.36427e-005
8.36461e-005
8.42131e-005
8.37285e-005
8.32559e-005
8.37996e-005
0.431656
0.347735
0.2843
0.235701
0.197454
0.16654
0.14088
0.119022
0.0999358
0.0828812
0.0673207
0.0527959
0.0392925
0.0263312
0.0145667
0.0061763
0.00210915
0.000670486
0.000241424
0.000127175
9.62962e-005
8.84851e-005
8.6924e-005
8.54906e-005
8.55406e-005
8.53941e-005
8.58402e-005
8.54099e-005
8.48486e-005
0.38188
0.310358
0.255963
0.21407
0.180916
0.153958
0.131438
0.112122
0.0951306
0.079827
0.0657436
0.0525155
0.0399977
0.0279818
0.0166133
0.00782078
0.00296807
0.00101209
0.000361423
0.000163331
0.00010978
9.36132e-005
8.93256e-005
8.82837e-005
8.74356e-005
8.78489e-005
8.74821e-005
8.76419e-005
8.70616e-005
0.335577
0.27521
0.229003
0.193222
0.164746
0.141452
0.121867
0.104952
0.0899609
0.0763523
0.0637273
0.0518093
0.0402636
0.029152
0.0185115
0.00951947
0.00396755
0.00145235
0.000524826
0.000221825
0.000127882
0.000103014
9.40094e-005
9.0887e-005
9.02989e-005
8.96553e-005
9.01564e-005
8.97731e-005
8.99431e-005
0.292825
0.242389
0.20352
0.173254
0.149028
0.129092
0.112222
0.0975502
0.0844503
0.072463
0.0612481
0.0505534
0.0400867
0.0299342
0.0199145
0.0111745
0.00510615
0.00202105
0.000766213
0.000315286
0.000164131
0.000114319
0.000102109
9.61417e-005
9.34048e-005
9.29914e-005
9.25626e-005
9.30302e-005
9.23193e-005
0.253645
0.211955
0.179591
0.154248
0.133844
0.116952
0.102567
0.0899699
0.0786374
0.0681836
0.0583196
0.0488279
0.0395211
0.0302005
0.0210752
0.0125765
0.00633563
0.00273792
0.00110074
0.000453478
0.000215772
0.000135971
0.000109193
0.000103874
9.9416e-005
9.72148e-005
9.57986e-005
9.55721e-005
9.64886e-005
0.218006
0.18393
0.157272
0.136272
0.119269
0.105108
0.0929722
0.0822713
0.0725723
0.0635521
0.0549665
0.0466302
0.0384112
0.0300104
0.0217377
0.0138361
0.00743104
0.00350977
0.0015114
0.000646118
0.000302282
0.000170393
0.000123495
0.000108907
0.000106872
0.000103356
0.000102108
9.96265e-005
9.91333e-005
0.185826
0.158305
0.136591
0.119384
0.105371
0.0936319
0.0835091
0.0745223
0.0663151
0.0586188
0.0512277
0.0439827
0.0367729
0.0294165
0.0217678
0.0145765
0.00849512
0.00427353
0.00200313
0.000895131
0.000420943
0.000229216
0.000151913
0.000121567
0.000111826
0.000110712
0.000108706
0.00010748
0.00010451
0.156981
0.135035
0.117557
0.103622
0.0922088
0.0825942
0.0742527
0.0667967
0.0599352
0.0534458
0.0471559
0.0409288
0.0346613
0.0282727
0.021506
0.0148751
0.00919661
0.00506136
0.0025007
0.00122002
0.000580005
0.000305674
0.000189819
0.000142206
0.000124549
0.000116437
0.00011593
0.000114455
0.000112833
0.131313
0.114049
0.100156
0.0890115
0.0798345
0.0720618
0.0652784
0.0591736
0.053511
0.0481074
0.0428187
0.0375298
0.0321482
0.026606
0.0208299
0.0147881
0.00957286
0.00560828
0.00303875
0.00153432
0.000805671
0.000414309
0.000248593
0.000171262
0.000139489
0.00012972
0.000122616
0.000122911
0.000121795
0.108638
0.0952548
0.0843587
0.0755657
0.0682895
0.0620963
0.0566607
0.0517351
0.047128
0.0426894
0.0382995
0.0338628
0.0292975
0.0245567
0.0195964
0.0144401
0.00961516
0.0059374
0.00343377
0.00189331
0.00100874
0.000580398
0.000327884
0.000223738
0.000165497
0.000143525
0.000136732
0.000130512
0.000131319
0.0887478
0.0785396
0.0701173
0.063284
0.0576061
0.0527529
0.0484708
0.0445629
0.0408746
0.0372834
0.0336899
0.0300163
0.0261985
0.0221756
0.0179762
0.0136841
0.00947533
0.00606591
0.00371274
0.0021865
0.00126134
0.000718548
0.000452606
0.000284071
0.000215638
0.000168668
0.000152245
0.000146325
0.000140387
0.0714283
0.063781
0.057375
0.052156
0.0478076
0.0440794
0.0407742
0.037735
0.0348368
0.0319794
0.0290852
0.0260832
0.022922
0.0195805
0.0160146
0.0124506
0.00902875
0.00601398
0.00382573
0.00240814
0.00147455
0.000913226
0.000554191
0.00038333
0.000263697
0.000215493
0.00017984
0.000164168
0.00016017
0.0564623
0.0508512
0.0460667
0.0421626
0.0389086
0.0361153
0.0336284
0.0313221
0.0290942
0.0268649
0.0245701
0.0221602
0.0195647
0.0168079
0.0138761
0.0109032
0.00817623
0.00576907
0.0038035
0.00249417
0.00162998
0.00106632
0.000713197
0.000463392
0.000353164
0.000259773
0.000225978
0.000196836
0.000180639
0.0436409
0.0396228
0.0361233
0.0332785
0.0309165
0.0288918
0.0270822
0.0253853
0.0237177
0.0220165
0.0202345
0.0183075
0.0162343
0.013977
0.0115803
0.00922412
0.00701211
0.00523022
0.0036644
0.00247533
0.00169552
0.00116404
0.000827028
0.000591339
0.000416985
0.000345455
0.000268847
0.00024593
0.000216825
0.0327703
0.0299724
0.0274748
0.0254752
0.0238331
0.0224328
0.0211746
0.0199745
0.018765
0.0175011
0.0161398
0.0146126
0.0129718
0.0111826
0.00927652
0.00741172
0.0057751
0.0043273
0.00329467
0.00236357
0.00167708
0.00120265
0.000885784
0.000683583
0.000525052
0.000400419
0.000351355
0.000288345
0.000272947
0.0236759
0.0217842
0.0200551
0.0187261
0.0176585
0.0167564
0.0159353
0.0151275
0.0142835
0.0133626
0.0123417
0.0111328
0.0098736
0.00843673
0.00702946
0.00560277
0.00441113
0.00340464
0.00260422
0.00205044
0.00156611
0.00118029
0.000901165
0.000716004
0.00060343
0.000497657
0.00041491
0.000373753
0.000320678
0.0162049
0.0149544
0.0138103
0.0130136
0.0123952
0.0118776
0.0113864
0.0108742
0.0103022
0.00964748
0.00885794
0.00796658
0.00697489
0.00590782
0.00489111
0.00392372
0.00311458
0.00248052
0.00194731
0.00156621
0.00128879
0.00107343
0.00087561
0.00071775
0.000618401
0.000567545
0.000503125
0.000461007
0.000432099
0.0102267
0.009404
0.00871293
0.008339
0.00805289
0.00781374
0.00755087
0.0072467
0.00686053
0.00640401
0.0057912
0.00516883
0.00445698
0.00369853
0.00308956
0.00246828
0.00201481
0.00164664
0.00136766
0.00115392
0.000997137
0.000873832
0.000788146
0.000693255
0.000620017
0.000571729
0.00055613
0.000520063
0.000509658
0.0056506
0.00510985
0.00478369
0.00472997
0.00466016
0.00460458
0.00447477
0.0043016
0.00405283
0.00372931
0.00331854
0.00294996
0.00248411
0.00209091
0.00176809
0.00145778
0.00123907
0.00104867
0.000867324
0.000746553
0.000680261
0.000621275
0.000599966
0.000592291
0.000596277
0.000593115
0.000605745
0.000604391
0.000602047
0.00248252
0.00217385
0.00213623
0.00225464
0.0022848
0.00231188
0.00226618
0.00217447
0.00205665
0.00185667
0.00165676
0.0015105
0.00123851
0.00103561
0.000900624
0.000769659
0.000726161
0.000725357
0.000784631
0.000870468
0.00108321
0.00135328
0.00187679
0.00258197
0.00335139
0.00430691
0.00499793
0.00509926
0.00457664
0.000814061
0.000719976
0.000782806
0.000931078
0.000958112
0.00101026
0.000983497
0.000966448
0.00091046
0.000803234
0.000739354
0.000739924
0.000757285
0.000846692
0.00111349
0.00153061
0.00259335
0.0039366
0.00671665
0.00960751
0.014715
0.0202084
0.0275482
0.0366973
0.0450323
0.0583135
0.0647733
0.0787044
0.0741129
0.000271924
0.000267512
0.000313105
0.00039584
0.000405382
0.000448501
0.000479426
0.000526547
0.000607835
0.000780405
0.00112801
0.00179252
0.00347645
0.00549749
0.00965555
0.0146288
0.0229539
0.0323476
0.0454113
0.0599247
0.0792237
0.101236
0.127658
0.160773
0.193804
0.245124
0.281561
0.36766
0.377213
0.000144746
0.00015221
0.000180448
0.000235711
0.000394257
0.000531012
0.00101426
0.00142166
0.00241353
0.00431608
0.00761507
0.0122504
0.0200726
0.0290945
0.0421409
0.0577002
0.0781733
0.101993
0.131396
0.165761
0.207749
0.257374
0.316426
0.389438
0.471854
0.586875
0.699831
0.916833
1.02521
0.000119027
0.000146822
0.000213556
0.00038755
0.00113599
0.00189851
0.00407406
0.00605839
0.0103786
0.0167829
0.0257604
0.0379892
0.0547386
0.0746388
0.100699
0.131732
0.170132
0.214939
0.269104
0.332709
0.409786
0.50042
0.610787
0.743363
0.90649
1.11467
1.3733
1.74353
2.06866
0.000990141
0.000990141
0.000990141
0.000990141
0.000990141
0.000990141
0.000990141
0.000990141
0.000990141
0.000990141
0.000990141
0.000990141
0.000990141
0.000990141
0.000990141
0.000990141
0.000990141
0.000990141
0.000990141
0.000990141
0.000990141
0.000990141
0.000990142
0.000990142
0.000990142
0.000990142
0.000990142
0.000990143
0.000990143
0.000990143
0.000990144
0.000990144
0.000990144
0.000990145
0.000990145
0.000990145
0.000990146
0.000990146
0.000990146
0.000990147
0.000990147
0.000990147
0.000990148
0.000990148
0.000990148
0.000990148
0.000990149
0.000990149
0.000990149
0.000990149
0.000990149
0.00099015
0.00099015
0.00099015
0.00099015
0.00099015
0.000990151
0.000990151
0.000990151
0.000990151
0.000990152
0.000990152
0.000990152
0.000990152
0.000990152
0.000990153
0.000990153
0.000990153
0.000990153
0.000990153
0.000990154
0.000990154
0.000990154
0.000990154
0.000990154
0.000990154
0.000990155
0.000990155
0.000990155
0.000990155
0.000990155
0.000990155
0.000990155
0.000990155
0.000990156
0.000990156
0.000990156
0.000990156
0.000990156
0.000990156
0.000990156
0.000990156
0.000990156
0.000990156
0.000990156
0.000990156
0.000990156
0.000990156
0.000990156
0.000990156
0.000990156
0.000990157
0.000990157
0.000990157
0.000990157
0.000990157
0.000990157
0.000990157
0.000990158
0.000990158
0.000990158
0.000990158
0.000990157
0.000990157
0.000990157
0.000990156
0.000990156
0.000990155
0.000990155
0.000990155
0.000990155
0.000990155
0.000990155
0.000990156
0.000990155
0.000990156
0.000990155
0.000990156
0.000990156
0.000990156
0.000990158
0.000990157
0.000990159
0.000990162
0.00099016
0.000990164
0.000990163
0.00099018
0.00100822
4.09907e-005
4.0991e-005
4.09912e-005
4.09912e-005
4.09913e-005
4.09912e-005
4.09912e-005
4.09912e-005
4.09911e-005
4.09911e-005
4.09911e-005
4.09911e-005
4.09911e-005
4.09912e-005
4.09913e-005
4.09914e-005
4.09916e-005
4.09917e-005
4.09919e-005
4.09921e-005
4.09923e-005
4.09926e-005
4.09929e-005
4.09932e-005
4.09936e-005
4.0994e-005
4.09944e-005
4.09949e-005
4.09953e-005
4.09958e-005
4.09963e-005
4.09968e-005
4.09974e-005
4.09979e-005
4.09985e-005
4.09991e-005
4.09997e-005
4.10002e-005
4.10008e-005
4.10013e-005
4.10018e-005
4.10023e-005
4.10028e-005
4.10032e-005
4.10037e-005
4.10041e-005
4.10045e-005
4.10049e-005
4.10053e-005
4.10057e-005
4.10061e-005
4.10064e-005
4.10068e-005
4.10072e-005
4.10075e-005
4.10079e-005
4.10083e-005
4.10087e-005
4.10091e-005
4.10095e-005
4.101e-005
4.10104e-005
4.10108e-005
4.10112e-005
4.10116e-005
4.1012e-005
4.10124e-005
4.10127e-005
4.10131e-005
4.10134e-005
4.10137e-005
4.1014e-005
4.10143e-005
4.10146e-005
4.10149e-005
4.10151e-005
4.10154e-005
4.10157e-005
4.10159e-005
4.10162e-005
4.10164e-005
4.10166e-005
4.10168e-005
4.1017e-005
4.10172e-005
4.10173e-005
4.10175e-005
4.10177e-005
4.10177e-005
4.10176e-005
4.10176e-005
4.10176e-005
4.10177e-005
4.10177e-005
4.10178e-005
4.10179e-005
4.10181e-005
4.10182e-005
4.10183e-005
4.10185e-005
4.10186e-005
4.10187e-005
4.10189e-005
4.1019e-005
4.10192e-005
4.10193e-005
4.10195e-005
4.10196e-005
4.10198e-005
4.10199e-005
4.102e-005
4.10198e-005
4.10193e-005
4.10187e-005
4.10179e-005
4.10172e-005
4.10164e-005
4.10157e-005
4.10155e-005
4.10155e-005
4.10157e-005
4.10158e-005
4.10159e-005
4.10161e-005
4.10158e-005
4.1016e-005
4.10157e-005
4.10158e-005
4.10168e-005
4.10157e-005
4.10191e-005
4.10176e-005
4.10205e-005
4.10247e-005
4.10215e-005
4.10277e-005
4.10569e-005
4.08378e-005
4.20939e-005
3.38058e-006
3.38076e-006
3.38089e-006
3.381e-006
3.38111e-006
3.38121e-006
3.3813e-006
3.38139e-006
3.38148e-006
3.38156e-006
3.38165e-006
3.38173e-006
3.38181e-006
3.38189e-006
3.38198e-006
3.38206e-006
3.38215e-006
3.38224e-006
3.38234e-006
3.38243e-006
3.38253e-006
3.38263e-006
3.38274e-006
3.38284e-006
3.38296e-006
3.38307e-006
3.38318e-006
3.3833e-006
3.38342e-006
3.38354e-006
3.38367e-006
3.38379e-006
3.38392e-006
3.38405e-006
3.38418e-006
3.38433e-006
3.38448e-006
3.38463e-006
3.38478e-006
3.38493e-006
3.38509e-006
3.38524e-006
3.38539e-006
3.38554e-006
3.38569e-006
3.38585e-006
3.386e-006
3.38615e-006
3.38631e-006
3.38646e-006
3.38662e-006
3.38677e-006
3.38692e-006
3.38708e-006
3.38723e-006
3.38739e-006
3.38754e-006
3.38769e-006
3.38784e-006
3.38799e-006
3.38813e-006
3.38827e-006
3.38841e-006
3.38854e-006
3.38867e-006
3.3888e-006
3.38893e-006
3.38905e-006
3.38918e-006
3.38929e-006
3.38941e-006
3.38952e-006
3.38963e-006
3.38974e-006
3.38985e-006
3.38995e-006
3.39005e-006
3.39015e-006
3.39024e-006
3.39034e-006
3.39043e-006
3.39052e-006
3.39061e-006
3.39069e-006
3.39078e-006
3.39086e-006
3.39094e-006
3.39103e-006
3.39108e-006
3.39112e-006
3.39114e-006
3.39116e-006
3.39117e-006
3.39118e-006
3.39118e-006
3.39118e-006
3.39117e-006
3.39116e-006
3.39115e-006
3.39112e-006
3.3911e-006
3.39106e-006
3.39102e-006
3.39098e-006
3.39093e-006
3.39088e-006
3.39082e-006
3.39075e-006
3.39068e-006
3.3906e-006
3.39053e-006
3.39045e-006
3.39033e-006
3.39019e-006
3.39005e-006
3.3899e-006
3.38975e-006
3.3896e-006
3.38949e-006
3.38942e-006
3.38935e-006
3.38927e-006
3.38918e-006
3.38908e-006
3.38897e-006
3.38876e-006
3.38876e-006
3.38842e-006
3.38849e-006
3.38837e-006
3.38836e-006
3.38843e-006
3.38777e-006
3.38895e-006
3.39695e-006
3.39431e-006
3.02437e-006
5.44163e-006
0.000743522
5.34278e-007
5.3433e-007
5.3438e-007
5.34428e-007
5.34474e-007
5.34519e-007
5.34562e-007
5.34604e-007
5.34646e-007
5.34688e-007
5.3473e-007
5.34772e-007
5.34814e-007
5.34857e-007
5.349e-007
5.34943e-007
5.34987e-007
5.35031e-007
5.35076e-007
5.3512e-007
5.35166e-007
5.35212e-007
5.35258e-007
5.35305e-007
5.35352e-007
5.354e-007
5.35448e-007
5.35496e-007
5.35545e-007
5.35595e-007
5.35645e-007
5.35694e-007
5.35745e-007
5.35795e-007
5.35847e-007
5.35898e-007
5.3595e-007
5.36002e-007
5.36054e-007
5.36106e-007
5.36158e-007
5.36211e-007
5.36263e-007
5.36315e-007
5.36368e-007
5.3642e-007
5.36472e-007
5.36524e-007
5.36576e-007
5.36628e-007
5.36679e-007
5.3673e-007
5.36781e-007
5.36832e-007
5.36883e-007
5.36932e-007
5.36982e-007
5.37031e-007
5.3708e-007
5.37127e-007
5.37173e-007
5.37217e-007
5.37261e-007
5.37304e-007
5.37347e-007
5.37389e-007
5.3743e-007
5.3747e-007
5.37509e-007
5.37548e-007
5.37586e-007
5.37623e-007
5.37659e-007
5.37694e-007
5.37729e-007
5.37762e-007
5.37795e-007
5.37826e-007
5.37856e-007
5.37886e-007
5.37915e-007
5.37943e-007
5.37969e-007
5.37995e-007
5.38019e-007
5.38042e-007
5.38064e-007
5.38084e-007
5.38103e-007
5.3812e-007
5.38135e-007
5.38148e-007
5.38159e-007
5.38167e-007
5.38173e-007
5.38177e-007
5.38179e-007
5.38178e-007
5.38175e-007
5.38169e-007
5.38161e-007
5.3815e-007
5.38138e-007
5.38124e-007
5.38108e-007
5.3809e-007
5.3807e-007
5.38049e-007
5.38025e-007
5.37998e-007
5.37972e-007
5.37947e-007
5.37922e-007
5.37894e-007
5.37863e-007
5.3783e-007
5.37793e-007
5.37754e-007
5.37714e-007
5.37673e-007
5.3763e-007
5.37581e-007
5.3753e-007
5.37464e-007
5.374e-007
5.3732e-007
5.37225e-007
5.37175e-007
5.37024e-007
5.37065e-007
5.36986e-007
5.36794e-007
5.38552e-007
5.40847e-007
4.86328e-007
4.94865e-007
6.89464e-006
0.00105594
0.0412039
1.46087e-007
1.46118e-007
1.46146e-007
1.46171e-007
1.46195e-007
1.46221e-007
1.46246e-007
1.4627e-007
1.46295e-007
1.4632e-007
1.46345e-007
1.4637e-007
1.46396e-007
1.46421e-007
1.46448e-007
1.46474e-007
1.46501e-007
1.46529e-007
1.46557e-007
1.46585e-007
1.46614e-007
1.46643e-007
1.46673e-007
1.46703e-007
1.46733e-007
1.46763e-007
1.46794e-007
1.46826e-007
1.46857e-007
1.46889e-007
1.46921e-007
1.46953e-007
1.46985e-007
1.47017e-007
1.4705e-007
1.47083e-007
1.47116e-007
1.47148e-007
1.47181e-007
1.47214e-007
1.47246e-007
1.47279e-007
1.47311e-007
1.47344e-007
1.47376e-007
1.47408e-007
1.4744e-007
1.47472e-007
1.47503e-007
1.47534e-007
1.47566e-007
1.47596e-007
1.47627e-007
1.47657e-007
1.47687e-007
1.47716e-007
1.47746e-007
1.47774e-007
1.47803e-007
1.4783e-007
1.47858e-007
1.47885e-007
1.47911e-007
1.47938e-007
1.47964e-007
1.47989e-007
1.48014e-007
1.48039e-007
1.48063e-007
1.48087e-007
1.4811e-007
1.48132e-007
1.48155e-007
1.48176e-007
1.48197e-007
1.48218e-007
1.48237e-007
1.48257e-007
1.48276e-007
1.48294e-007
1.48312e-007
1.48328e-007
1.48345e-007
1.48361e-007
1.48376e-007
1.4839e-007
1.48404e-007
1.48416e-007
1.48429e-007
1.48442e-007
1.48454e-007
1.48466e-007
1.48476e-007
1.48486e-007
1.48495e-007
1.48502e-007
1.48509e-007
1.48515e-007
1.4852e-007
1.48524e-007
1.48526e-007
1.48528e-007
1.48528e-007
1.48527e-007
1.48526e-007
1.48523e-007
1.4852e-007
1.48515e-007
1.48509e-007
1.48502e-007
1.48493e-007
1.48484e-007
1.48475e-007
1.48467e-007
1.48457e-007
1.48445e-007
1.48432e-007
1.48417e-007
1.484e-007
1.4838e-007
1.48359e-007
1.48334e-007
1.48306e-007
1.48272e-007
1.48234e-007
1.48196e-007
1.48134e-007
1.48105e-007
1.48049e-007
1.47979e-007
1.48086e-007
1.48294e-007
1.42714e-007
1.26837e-007
3.0162e-007
1.01998e-005
0.000869045
0.0276557
0.231326
5.29898e-008
5.30069e-008
5.30217e-008
5.30334e-008
5.30469e-008
5.30585e-008
5.30697e-008
5.30825e-008
5.30949e-008
5.31077e-008
5.31207e-008
5.31344e-008
5.3148e-008
5.31619e-008
5.31766e-008
5.31911e-008
5.3206e-008
5.32212e-008
5.32372e-008
5.3253e-008
5.32692e-008
5.32857e-008
5.33023e-008
5.33194e-008
5.33367e-008
5.33542e-008
5.3372e-008
5.33897e-008
5.34078e-008
5.34262e-008
5.34446e-008
5.34632e-008
5.34821e-008
5.35008e-008
5.35197e-008
5.35389e-008
5.35582e-008
5.35775e-008
5.35967e-008
5.36159e-008
5.36353e-008
5.36546e-008
5.36737e-008
5.36931e-008
5.37121e-008
5.3731e-008
5.37499e-008
5.37689e-008
5.37877e-008
5.38063e-008
5.38247e-008
5.38431e-008
5.38615e-008
5.38796e-008
5.38975e-008
5.39152e-008
5.39326e-008
5.395e-008
5.39673e-008
5.39842e-008
5.40011e-008
5.40179e-008
5.40343e-008
5.40504e-008
5.40664e-008
5.40821e-008
5.40976e-008
5.41127e-008
5.41278e-008
5.41424e-008
5.41566e-008
5.41708e-008
5.41847e-008
5.41982e-008
5.42114e-008
5.42243e-008
5.42371e-008
5.42494e-008
5.42613e-008
5.4273e-008
5.42845e-008
5.42956e-008
5.43064e-008
5.43169e-008
5.43271e-008
5.43367e-008
5.43459e-008
5.43548e-008
5.43635e-008
5.43721e-008
5.43804e-008
5.43884e-008
5.43962e-008