/*--------------------------------*- C++ -*----------------------------------*\
| =========                 |                                                 |
| \\      /  F ield         | OpenFOAM: The Open Source CFD Toolbox           |
|  \\    /   O peration     | Version:  5.x                                   |
|   \\  /    A nd           | Web:      www.OpenFOAM.org                      |
|    \\/     M anipulation  |                                                 |
\*---------------------------------------------------------------------------*/
/*   Windows 32 and 64 bit porting by blueCAPE: http://www.bluecape.com.pt   *\
|  Based on Windows porting (2.0.x v4) by Symscape: http://www.symscape.com   |
\*---------------------------------------------------------------------------*/
FoamFile
{
    version     2.0;
    format      ascii;
    class       volScalarField;
    location    "140";
    object      nut;
}
// * * * * * * * * * * * * * * * * * * * * * * * * * * * * * * * * * * * * * //

dimensions      [0 2 -1 0 0 0 0];

internalField   nonuniform List<scalar> 
43900
(
5.71241e-005
5.80119e-005
5.80691e-005
5.80651e-005
5.80595e-005
5.80591e-005
5.80591e-005
5.80599e-005
5.80593e-005
5.80599e-005
5.80599e-005
5.806e-005
5.806e-005
5.80601e-005
5.80601e-005
5.80601e-005
5.80602e-005
5.80602e-005
5.80602e-005
5.80603e-005
5.80603e-005
5.80604e-005
5.80604e-005
5.80604e-005
5.80604e-005
5.80605e-005
5.80605e-005
5.80605e-005
5.80605e-005
0.000523804
6.84024e-006
4.3006e-006
4.1486e-006
4.59086e-006
4.60728e-006
4.60635e-006
4.60549e-006
4.60446e-006
4.60597e-006
4.60608e-006
4.60628e-006
4.60644e-006
4.60657e-006
4.60669e-006
4.60681e-006
4.60693e-006
4.60704e-006
4.60717e-006
4.6073e-006
4.60741e-006
4.60749e-006
4.60757e-006
4.60763e-006
4.60769e-006
4.60775e-006
4.60779e-006
4.60783e-006
4.60785e-006
0.14824
0.042233
0.00426148
7.59044e-005
1.03734e-006
6.40291e-007
6.62495e-007
7.22606e-007
7.26089e-007
7.22589e-007
7.22178e-007
7.22516e-007
7.22722e-007
7.22882e-007
7.23027e-007
7.23157e-007
7.23274e-007
7.23379e-007
7.23474e-007
7.23556e-007
7.23624e-007
7.23679e-007
7.23727e-007
7.23771e-007
7.2381e-007
7.23846e-007
7.23878e-007
7.23908e-007
7.23924e-007
0.46602
0.281754
0.12491
0.0326092
0.00304719
7.42875e-005
1.40984e-006
1.98018e-007
1.63536e-007
2.0944e-007
2.16317e-007
2.13659e-007
2.13092e-007
2.13149e-007
2.13222e-007
2.13286e-007
2.13342e-007
2.13393e-007
2.13438e-007
2.13477e-007
2.13512e-007
2.13542e-007
2.13569e-007
2.13594e-007
2.13618e-007
2.13641e-007
2.1366e-007
2.13679e-007
2.13696e-007
0.735279
0.559081
0.390475
0.22473
0.0876228
0.0170904
0.00111453
3.36373e-005
9.01636e-007
1.07796e-007
7.66923e-008
9.88566e-008
1.03554e-007
1.03473e-007
1.03474e-007
1.03505e-007
1.03533e-007
1.03555e-007
1.03578e-007
1.03599e-007
1.03614e-007
1.03632e-007
1.03651e-007
1.03668e-007
1.03685e-007
1.03694e-007
1.03713e-007
1.03731e-007
1.03747e-007
0.9418
0.772589
0.614852
0.460944
0.3049
0.147096
0.0419404
0.00465905
0.000212363
6.62e-006
2.79762e-007
6.85598e-008
5.43309e-008
5.7429e-008
5.78973e-008
5.79285e-008
5.79445e-008
5.79626e-008
5.79784e-008
5.79909e-008
5.79976e-008
5.80074e-008
5.80146e-008
5.80257e-008
5.80341e-008
5.80382e-008
5.80582e-008
5.80666e-008
5.80753e-008
1.08899
0.925271
0.775229
0.632445
0.492051
0.351687
0.203618
0.0731168
0.0118372
0.000685103
2.64243e-005
7.42935e-007
1.00552e-007
6.88897e-008
6.63798e-008
6.62707e-008
6.62612e-008
6.62535e-008
6.6251e-008
6.62607e-008
6.62928e-008
6.63096e-008
6.63371e-008
6.63441e-008
6.6364e-008
6.64289e-008
6.63998e-008
6.63946e-008
6.63909e-008
1.20307
1.04392
0.899733
0.764746
0.634187
0.504164
0.37124
0.234193
0.0938454
0.0176925
0.00112306
4.24455e-005
1.39281e-006
1.30225e-007
1.03254e-007
1.02602e-007
1.02598e-007
1.02597e-007
1.02599e-007
1.02613e-007
1.02658e-007
1.02683e-007
1.02723e-007
1.02734e-007
1.0276e-007
1.02844e-007
1.02798e-007
1.02798e-007
1.02799e-007
1.29732
1.14052
0.999091
0.868181
0.743442
0.621199
0.498419
0.372951
0.244312
0.104308
0.0188896
0.00106437
3.58559e-005
1.23498e-006
2.29987e-007
2.0418e-007
2.03576e-007
2.03573e-007
2.03574e-007
2.03579e-007
2.03617e-007
2.03753e-007
2.04351e-007
2.04253e-007
2.04233e-007
2.04388e-007
2.03645e-007
2.03646e-007
2.03661e-007
1.32592
1.17601
1.04221
0.919077
0.802731
0.689698
0.577132
0.462844
0.345396
0.223583
0.0907043
0.0130137
0.000565637
1.76596e-005
1.35492e-006
9.01311e-007
8.89947e-007
8.89921e-007
8.8991e-007
8.89925e-007
8.89991e-007
8.90542e-007
8.94575e-007
8.92491e-007
8.92925e-007
8.93956e-007
8.87818e-007
8.88125e-007
8.88126e-007
1.35359
1.2043
1.07268
0.952846
0.840377
0.73236
0.626009
0.519045
0.409737
0.296768
0.178621
0.0549781
0.00470324
0.000154402
8.37328e-006
4.40053e-006
4.3025e-006
4.30253e-006
4.30758e-006
4.30701e-006
4.30652e-006
4.30352e-006
4.32414e-006
4.2939e-006
4.29416e-006
4.29917e-006
4.27335e-006
4.28249e-006
4.28522e-006
1.36691
1.22023
1.08869
0.970543
0.861568
0.757018
0.654508
0.552075
0.447974
0.340914
0.229874
0.111346
0.018674
0.000805062
3.77557e-005
1.75972e-005
1.71203e-005
1.71196e-005
1.71486e-005
1.71403e-005
1.7141e-005
1.71169e-005
1.71916e-005
1.70313e-005
1.69607e-005
1.69422e-005
1.69437e-005
1.69843e-005
1.69849e-005
1.36809
1.22472
1.09701
0.979468
0.870232
0.767946
0.668681
0.569328
0.468682
0.36544
0.258492
0.14579
0.0383976
0.00251631
0.000126447
6.06233e-005
5.90654e-005
5.90649e-005
5.9067e-005
5.90537e-005
5.9114e-005
5.90385e-005
5.92669e-005
5.87224e-005
5.82412e-005
5.82864e-005
5.83719e-005
5.84324e-005
5.84349e-005
1.36063
1.21965
1.09464
0.98125
0.87495
0.772665
0.673875
0.577145
0.479116
0.378346
0.274019
0.164933
0.0530174
0.00481104
0.000343714
0.000195187
0.000191405
0.000190898
0.000190543
0.000190541
0.00019064
0.000190633
0.000191476
0.000190012
0.000187756
0.000187747
0.000188495
0.000188302
0.000188665
1.34827
1.20978
1.08687
0.975443
0.872134
0.773696
0.676767
0.579969
0.483453
0.384876
0.282583
0.17592
0.0632539
0.00702461
0.000645086
0.000404687
0.000396742
0.000395776
0.000396179
0.000396432
0.000396209
0.000396527
0.000397038
0.00039473
0.000392221
0.00039251
0.00039338
0.000392736
0.000391203
1.33294
1.19708
1.07643
0.966992
0.865397
0.768804
0.674838
0.580921
0.484944
0.387478
0.286688
0.181821
0.0697774
0.00884665
0.000912037
0.000570823
0.000559963
0.000558306
0.000558196
0.00055777
0.000558092
0.000558636
0.000557248
0.000555355
0.000553873
0.000554879
0.000555345
0.000554084
0.000552404
1.31568
1.18258
1.06433
0.957
0.857278
0.762385
0.66996
0.577992
0.484893
0.388586
0.289897
0.1865
0.0752182
0.0106552
0.00115844
0.000694054
0.000675517
0.000673689
0.00067293
0.0006728
0.00067361
0.000673292
0.00067221
0.000671042
0.000670063
0.00067057
0.000670718
0.0006693
0.000668372
1.29698
1.16681
1.05111
0.946024
0.848294
0.755201
0.664447
0.574115
0.482648
0.388815
0.291061
0.18971
0.0800267
0.0125629
0.00141013
0.000779874
0.000753037
0.000751158
0.000750536
0.000750497
0.000750529
0.00075008
0.000749895
0.000748965
0.000748545
0.000748391
0.000747852
0.000746637
0.000746626
1.27707
1.15002
1.03705
0.934358
0.838756
0.747578
0.658586
0.569917
0.480057
0.387775
0.291843
0.192383
0.0843219
0.0145078
0.00168205
0.000844079
0.00080391
0.000800896
0.000800432
0.000800565
0.000800663
0.000800771
0.000800265
0.00079884
0.000798738
0.000798571
0.000798435
0.000798263
0.000797177
1.25598
1.13227
1.02222
0.922091
0.828765
0.739639
0.652532
0.565641
0.477504
0.386962
0.293115
0.195194
0.0887711
0.0168227
0.00202286
0.000898118
0.000835401
0.000831474
0.000832141
0.000831532
0.000831961
0.000831883
0.000830324
0.000830738
0.0008307
0.000829786
0.000830071
0.000829237
0.000829055
1.23373
1.11358
1.00664
0.909248
0.81836
0.731435
0.646356
0.561377
0.475092
0.386391
0.294402
0.198421
0.0940055
0.0196319
0.00245742
0.000949142
0.000857283
0.000853051
0.000850586
0.000850856
0.000851133
0.000850045
0.000851151
0.000850755
0.000849097
0.000849725
0.000849386
0.000849199
0.000848898
1.21027
1.09391
0.990285
0.895818
0.807536
0.722969
0.640066
0.557146
0.47286
0.386156
0.296276
0.202213
0.0996505
0.0228607
0.00304664
0.0010168
0.000875489
0.000862484
0.000862786
0.000863179
0.00086239
0.000862934
0.000861894
0.000861458
0.000862369
0.000861597
0.000861095
0.00086109
0.000861367
1.18555
1.07321
0.973104
0.881737
0.796222
0.714163
0.633581
0.55286
0.470707
0.3861
0.298214
0.206284
0.105943
0.0269308
0.00385812
0.00110767
0.000886965
0.000872744
0.000870605
0.000869946
0.000870334
0.000869802
0.000870172
0.000869619
0.000868755
0.0008695
0.000869354
0.000869252
0.000868495
1.15956
1.05146
0.955071
0.866988
0.784411
0.705024
0.626924
0.548562
0.468701
0.386368
0.300778
0.211239
0.113667
0.0322008
0.00505004
0.0012574
0.000909093
0.000877727
0.000876447
0.000876086
0.000875325
0.000875389
0.000873845
0.000874668
0.000875362
0.000874107
0.000874399
0.000873961
0.000873663
1.13226
1.02863
0.936147
0.851522
0.772042
0.695479
0.62001
0.544159
0.466753
0.386868
0.303752
0.216696
0.121753
0.0381605
0.00658601
0.00148016
0.00093477
0.000886723
0.000879692
0.000878932
0.000879836
0.000879653
0.000880151
0.000878944
0.000877834
0.00087861
0.000878004
0.000878535
0.00087884
1.10363
1.00467
0.916276
0.835269
0.759036
0.685441
0.612742
0.539538
0.464715
0.387388
0.306834
0.222371
0.13052
0.0454189
0.00879475
0.00183844
0.000981649
0.000893719
0.000885151
0.000884203
0.000882745
0.000882341
0.000882151
0.000883019
0.000882933
0.000881798
0.000882307
0.000881292
0.00088086
1.07369
0.979575
0.895434
0.818196
0.745355
0.67487
0.605091
0.534696
0.462641
0.388102
0.310404
0.228876
0.14046
0.054498
0.0119745
0.00245014
0.00106857
0.000908969
0.00088909
0.000886935
0.000886991
0.000887409
0.000887211
0.000885586
0.000885337
0.00088586
0.000885029
0.000885876
0.000884665
1.04244
0.95333
0.873586
0.800253
0.730933
0.66369
0.596963
0.529511
0.460352
0.388709
0.313933
0.235387
0.150553
0.0645264
0.0160402
0.00330072
0.00120235
0.000929221
0.00089742
0.000891601
0.000889902
0.000889845
0.000889802
0.000891309
0.000890217
0.000888339
0.000888773
0.000888479
0.000889407
1.00989
0.925917
0.850689
0.781371
0.715683
0.651791
0.588231
0.523841
0.457706
0.389105
0.317441
0.242072
0.160874
0.0758011
0.0214634
0.00472044
0.00147388
0.000973636
0.000905601
0.000897501
0.000895658
0.000895525
0.000894249
0.000893576
0.000894733
0.000894355
0.000892447
0.00089158
0.000891736
0.976059
0.897324
0.826703
0.761487
0.699518
0.639072
0.578777
0.517553
0.454544
0.389068
0.320519
0.248398
0.170973
0.0877207
0.0280608
0.00651406
0.00184464
0.0010403
0.000923187
0.000903331
0.000899351
0.000899269
0.000900682
0.000900611
0.000898509
0.000897638
0.00089808
0.000897628
0.000897425
0.940988
0.867551
0.801598
0.740548
0.682369
0.62545
0.568514
0.510562
0.450805
0.388637
0.323824
0.25485
0.181181
0.100933
0.0368988
0.00968638
0.00261986
0.00119233
0.000950569
0.00091631
0.000907321
0.00090522
0.000904514
0.000904381
0.000906845
0.000905105
0.00090197
0.000902375
0.000902189
0.904707
0.836595
0.775338
0.718489
0.664145
0.61081
0.557303
0.502702
0.446281
0.387446
0.325492
0.260617
0.190987
0.114266
0.046935
0.0134462
0.00358442
0.00141363
0.000999279
0.000927265
0.000916658
0.000913584
0.000913278
0.000910308
0.000909716
0.000913376
0.000911607
0.000907727
0.000907172
0.867257
0.804456
0.747889
0.695243
0.644752
0.595032
0.545
0.493807
0.440777
0.385318
0.326675
0.265437
0.199854
0.127396
0.0587295
0.0191257
0.00540578
0.00186922
0.00110542
0.000954688
0.000925359
0.000920856
0.000920434
0.000922768
0.000918585
0.00091669
0.000920265
0.000918838
0.000913576
0.828682
0.771141
0.719221
0.67075
0.624101
0.578004
0.531469
0.48372
0.434135
0.382181
0.327437
0.269481
0.207814
0.139633
0.0709657
0.0256117
0.00758116
0.00248069
0.00125728
0.000996822
0.000945318
0.000930482
0.000926889
0.000927091
0.000930981
0.000927453
0.000924909
0.000928548
0.000926498
0.789039
0.736665
0.689315
0.644962
0.602118
0.559626
0.516591
0.472306
0.426208
0.377832
0.326839
0.272899
0.214777
0.151227
0.0845116
0.0346305
0.0113911
0.00369232
0.00159081
0.0010804
0.000972351
0.00095113
0.00093948
0.000936957
0.000936824
0.000940305
0.00093753
0.000934123
0.000937651
0.748391
0.701055
0.658164
0.61784
0.578734
0.539806
0.500247
0.459422
0.416816
0.371996
0.324553
0.273688
0.220171
0.161149
0.0973948
0.0442477
0.0158032
0.00524391
0.0020485
0.00121943
0.00101418
0.000967065
0.000958324
0.000949434
0.000950003
0.000948547
0.000951388
0.000948955
0.000944869
0.706814
0.66435
0.625774
0.589358
0.553897
0.518461
0.482328
0.444927
0.405791
0.364511
0.320678
0.273715
0.223862
0.169432
0.109472
0.0551935
0.0218931
0.00773489
0.00292452
0.00147212
0.00110066
0.000999954
0.000973774
0.000967701
0.000961873
0.000964731
0.000962399
0.000963331
0.00095989
0.664402
0.62661
0.592172
0.559517
0.527578
0.495537
0.462752
0.428714
0.392998
0.355228
0.315046
0.272183
0.225739
0.175596
0.120195
0.066247
0.0289592
0.0109567
0.00413295
0.00189203
0.00122095
0.00105737
0.00100448
0.000984383
0.000980848
0.00097626
0.000979563
0.000977333
0.000978409
0.621268
0.587918
0.557414
0.528345
0.499783
0.471014
0.441475
0.410711
0.378339
0.344015
0.307407
0.268148
0.225349
0.179516
0.128326
0.0766244
0.036761
0.0150471
0.00589456
0.00256697
0.0014673
0.00112845
0.00105169
0.00101794
0.00100163
0.000999932
0.000995394
0.00099828
0.000994099
0.577553
0.548385
0.521586
0.495906
0.470554
0.444913
0.418493
0.390892
0.361763
0.33079
0.297665
0.262044
0.223375
0.180972
0.134553
0.0855326
0.0449844
0.0200721
0.00830707
0.00357518
0.00184165
0.00127612
0.00109719
0.00106399
0.00104004
0.00102798
0.0010179
0.00101503
0.00102016
0.533422
0.508154
0.48481
0.462305
0.439976
0.4173
0.393855
0.369283
0.343272
0.31553
0.28577
0.253686
0.219008
0.180183
0.138058
0.0929507
0.0524632
0.0254767
0.0112385
0.00495088
0.00244433
0.00150426
0.00118739
0.00109507
0.00108339
0.0010628
0.00105931
0.00104135
0.00103707
0.489071
0.467401
0.447247
0.427689
0.408184
0.388295
0.367661
0.345965
0.322925
0.29827
0.271733
0.243033
0.211837
0.17736
0.138169
0.0972694
0.0590543
0.0307629
0.0146829
0.00673587
0.00328592
0.00189834
0.00136611
0.00117113
0.00111241
0.00110604
0.00109614
0.00109016
0.00107432
0.444723
0.426337
0.409099
0.392251
0.375361
0.358072
0.340072
0.321084
0.300848
0.279116
0.255633
0.23014
0.202328
0.171747
0.136705
0.0988319
0.063445
0.0358257
0.0181548
0.00896739
0.00441959
0.00244551
0.00162201
0.00130205
0.00118673
0.00113908
0.00113618
0.00112857
0.00112161
0.400629
0.385205
0.370606
0.356229
0.341744
0.326859
0.311311
0.29485
0.277241
0.258248
0.237639
0.215167
0.190547
0.163386
0.132883
0.0982076
0.0657833
0.0394304
0.0216776
0.0111765
0.00591817
0.00318619
0.00201808
0.00148715
0.00128257
0.00122019
0.00117571
0.00117717
0.00117191
0.357062
0.344278
0.332043
0.319902
0.307613
0.294941
0.281657
0.26754
0.252369
0.235926
0.217991
0.198335
0.176704
0.152724
0.125927
0.0959097
0.0655796
0.0414481
0.024246
0.013499
0.00732505
0.0042452
0.00252706
0.00181178
0.00143337
0.00129957
0.00126402
0.00122107
0.00122317
0.314313
0.303854
0.293716
0.283585
0.27329
0.262641
0.251439
0.23948
0.226556
0.21246
0.196996
0.179941
0.161048
0.140007
0.116526
0.0910211
0.0645058
0.0417616
0.0258852
0.0153358
0.00892767
0.00518608
0.00329848
0.00218688
0.00173519
0.00144277
0.0013295
0.00132281
0.00127648
0.272682
0.264247
0.255953
0.247617
0.239124
0.230319
0.221019
0.211032
0.200161
0.188215
0.174992
0.160309
0.143907
0.125561
0.105013
0.0831333
0.0613257
0.0412384
0.026149
0.016574
0.0102273
0.00640377
0.0039858
0.00278304
0.00200928
0.00169747
0.00150463
0.00137662
0.00140741
0.232482
0.225784
0.219091
0.212351
0.205483
0.19835
0.19078
0.182581
0.173566
0.163554
0.152363
0.139775
0.125618
0.109688
0.0919524
0.0731791
0.0552951
0.0392418
0.0258622
0.016809
0.0110469
0.00724432
0.00490407
0.00328561
0.00251822
0.00193846
0.00172407
0.00160174
0.00145086
0.194026
0.188792
0.183473
0.178148
0.172743
0.167123
0.16111
0.154514
0.147153
0.138858
0.129443
0.118701
0.106549
0.0927862
0.0776453
0.062069
0.0472359
0.0351252
0.0246373
0.016602
0.0112232
0.00775998
0.00548663
0.00398051
0.00288482
0.00240497
0.00194511
0.0018043
0.00168342
0.157631
0.153596
0.149438
0.145373
0.141285
0.137024
0.132393
0.127205
0.121294
0.114468
0.106581
0.0974329
0.0870509
0.0753099
0.0627333
0.0500565
0.0387102
0.0287825
0.0218224
0.015667
0.0110435
0.0078195
0.00577314
0.0044304
0.00345819
0.00269267
0.00236569
0.00199394
0.00193713
0.123619
0.120509
0.117327
0.114403
0.111499
0.108441
0.105003
0.101019
0.0963159
0.0907363
0.0840985
0.0763757
0.0675883
0.0577342
0.047816
0.0379881
0.0295668
0.0225937
0.0170238
0.0132684
0.0101683
0.00762135
0.00573917
0.00455414
0.00378604
0.00315808
0.00267943
0.00244073
0.00211206
0.0923217
0.0898582
0.0875098
0.0856524
0.0837917
0.0817719
0.0793184
0.0763169
0.0725928
0.0680181
0.0624128
0.0560819
0.0487317
0.0409667
0.0335829
0.0266464
0.0209224
0.0164301
0.0127676
0.010155
0.00821765
0.00683457
0.00553756
0.00446431
0.00380113
0.00341603
0.00300323
0.00276483
0.00258735
0.0641165
0.0620298
0.0604413
0.0596157
0.0586292
0.0574868
0.0557678
0.0535337
0.0506046
0.0468406
0.0422017
0.0373754
0.0316516
0.0260997
0.0213818
0.0169713
0.0135124
0.0108444
0.00889832
0.00744651
0.00632238
0.00548101
0.0049241
0.00431392
0.00378649
0.00338801
0.00326453
0.00299994
0.00293343
0.0395213
0.0376221
0.0368167
0.0369777
0.0367054
0.0362526
0.035018
0.0334424
0.0312136
0.0282693
0.024901
0.0217288
0.0178373
0.0148595
0.0122554
0.0100617
0.00853727
0.0073889
0.00585711
0.00485509
0.0043205
0.00376213
0.00346654
0.00323715
0.00310358
0.00292647
0.00275053
0.00263599
0.00264562
0.0196516
0.0181092
0.0182422
0.0191889
0.0193118
0.0193119
0.0186143
0.0175955
0.0162738
0.0144253
0.0126116
0.011376
0.00939798
0.00759926
0.00631974
0.00499717
0.00427098
0.00377004
0.0033521
0.00304465
0.00284671
0.00283539
0.00330809
0.00379802
0.00455985
0.00498841
0.00553106
0.0047767
0.00415037
0.00724597
0.00663854
0.00719524
0.00835734
0.00845299
0.00868948
0.00828166
0.00813128
0.00752227
0.00627577
0.00531644
0.00494807
0.00414944
0.00373156
0.00371529
0.00384721
0.00513955
0.00663791
0.00985623
0.0128483
0.0173965
0.0218729
0.0269236
0.0326396
0.0368048
0.0428162
0.0440247
0.0465777
0.0406652
0.00263781
0.00261
0.00298362
0.00368153
0.00367097
0.00387573
0.00372542
0.00365139
0.00347901
0.00355461
0.00378107
0.00459314
0.00719031
0.00956237
0.0145794
0.0196795
0.0270729
0.0345257
0.0433491
0.0523108
0.0622331
0.0731925
0.0833411
0.0968824
0.105558
0.122605
0.127905
0.150019
0.134403
0.00150074
0.00156023
0.00177525
0.00209587
0.00297519
0.00309483
0.00434939
0.00473532
0.00628246
0.00923545
0.0135307
0.0184601
0.0256428
0.0330053
0.0418676
0.051383
0.0621822
0.0737463
0.0858461
0.0992339
0.112693
0.128764
0.143261
0.163375
0.177747
0.205206
0.216435
0.261056
0.251487
0.00125435
0.00141292
0.00171614
0.00228553
0.0051046
0.00618205
0.010501
0.0122981
0.0170318
0.0232243
0.0298954
0.0378064
0.0471092
0.0575438
0.068719
0.080974
0.0941286
0.108617
0.123606
0.140501
0.157474
0.177772
0.196745
0.222273
0.242801
0.278113
0.298956
0.353788
0.354223
5.80605e-005
5.80605e-005
5.80605e-005
5.80605e-005
5.80605e-005
5.80605e-005
5.80605e-005
5.80605e-005
5.80605e-005
5.80605e-005
5.80605e-005
5.80605e-005
5.80605e-005
5.80605e-005
5.80605e-005
5.80605e-005
5.80605e-005
5.80605e-005
5.80605e-005
5.80605e-005
5.80605e-005
5.80606e-005
5.80606e-005
5.80606e-005
5.80606e-005
5.80606e-005
5.80606e-005
5.80607e-005
5.80607e-005
5.80607e-005
5.80607e-005
5.80608e-005
5.80608e-005
5.80608e-005
5.80608e-005
5.80609e-005
5.80609e-005
5.80609e-005
5.80609e-005
5.8061e-005
5.8061e-005
5.8061e-005
5.8061e-005
5.80611e-005
5.80611e-005
5.80611e-005
5.80611e-005
5.80611e-005
5.80611e-005
5.80612e-005
5.80612e-005
5.80612e-005
5.80612e-005
5.80612e-005
5.80612e-005
5.80613e-005
5.80613e-005
5.80613e-005
5.80613e-005
5.80613e-005
5.80613e-005
5.80614e-005
5.80614e-005
5.80614e-005
5.80614e-005
5.80614e-005
5.80614e-005
5.80615e-005
5.80615e-005
5.80615e-005
5.80615e-005
5.80615e-005
5.80615e-005
5.80615e-005
5.80616e-005
5.80616e-005
5.80616e-005
5.80616e-005
5.80616e-005
5.80616e-005
5.80616e-005
5.80616e-005
5.80616e-005
5.80616e-005
5.80616e-005
5.80617e-005
5.80617e-005
5.80617e-005
5.80617e-005
5.80617e-005
5.80617e-005
5.80617e-005
5.80617e-005
5.80617e-005
5.80617e-005
5.80617e-005
5.80617e-005
5.80617e-005
5.80617e-005
5.80617e-005
5.80617e-005
5.80617e-005
5.80617e-005
5.80618e-005
5.80618e-005
5.80618e-005
5.80618e-005
5.80618e-005
5.80618e-005
5.80618e-005
5.80618e-005
5.80618e-005
5.80618e-005
5.80618e-005
5.80617e-005
5.80617e-005
5.80616e-005
5.80616e-005
5.80616e-005
5.80616e-005
5.80616e-005
5.80616e-005
5.80616e-005
5.80617e-005
5.80616e-005
5.80617e-005
5.80616e-005
5.80617e-005
5.80617e-005
5.80617e-005
5.80618e-005
5.80618e-005
5.80619e-005
5.80621e-005
5.8062e-005
5.80623e-005
5.80622e-005
5.80636e-005
5.93282e-005
4.60788e-006
4.60792e-006
4.60793e-006
4.60794e-006
4.60795e-006
4.60795e-006
4.60794e-006
4.60794e-006
4.60794e-006
4.60793e-006
4.60793e-006
4.60794e-006
4.60794e-006
4.60795e-006
4.60796e-006
4.60798e-006
4.60799e-006
4.60801e-006
4.60803e-006
4.60806e-006
4.60808e-006
4.60812e-006
4.60815e-006
4.60819e-006
4.60823e-006
4.60828e-006
4.60832e-006
4.60837e-006
4.60843e-006
4.60848e-006
4.60854e-006
4.6086e-006
4.60866e-006
4.60872e-006
4.60879e-006
4.60885e-006
4.60892e-006
4.60899e-006
4.60905e-006
4.60911e-006
4.60917e-006
4.60923e-006
4.60928e-006
4.60934e-006
4.60939e-006
4.60944e-006
4.60949e-006
4.60953e-006
4.60958e-006
4.60963e-006
4.60967e-006
4.60972e-006
4.60976e-006
4.6098e-006
4.60985e-006
4.60989e-006
4.60994e-006
4.60999e-006
4.61003e-006
4.61008e-006
4.61014e-006
4.61019e-006
4.61024e-006
4.61029e-006
4.61033e-006
4.61038e-006
4.61042e-006
4.61046e-006
4.6105e-006
4.61054e-006
4.61058e-006
4.61061e-006
4.61065e-006
4.61068e-006
4.61072e-006
4.61075e-006
4.61078e-006
4.61081e-006
4.61084e-006
4.61087e-006
4.6109e-006
4.61093e-006
4.61095e-006
4.61097e-006
4.61099e-006
4.61101e-006
4.61103e-006
4.61105e-006
4.61106e-006
4.61105e-006
4.61105e-006
4.61105e-006
4.61106e-006
4.61106e-006
4.61107e-006
4.61108e-006
4.61109e-006
4.61111e-006
4.61112e-006
4.61113e-006
4.61115e-006
4.61116e-006
4.61117e-006
4.61119e-006
4.6112e-006
4.61122e-006
4.61123e-006
4.61125e-006
4.61126e-006
4.61127e-006
4.61127e-006
4.61126e-006
4.6112e-006
4.61113e-006
4.61104e-006
4.61095e-006
4.61086e-006
4.61078e-006
4.61076e-006
4.61077e-006
4.61078e-006
4.6108e-006
4.6108e-006
4.61082e-006
4.61079e-006
4.61081e-006
4.61077e-006
4.61078e-006
4.61089e-006
4.61076e-006
4.61113e-006
4.61097e-006
4.61128e-006
4.61179e-006
4.61135e-006
4.61209e-006
4.61686e-006
4.58086e-006
4.72648e-006
7.23956e-007
7.23994e-007
7.24021e-007
7.24046e-007
7.2407e-007
7.24092e-007
7.24113e-007
7.24133e-007
7.24153e-007
7.24171e-007
7.2419e-007
7.24209e-007
7.24227e-007
7.24246e-007
7.24265e-007
7.24284e-007
7.24304e-007
7.24324e-007
7.24345e-007
7.24366e-007
7.24388e-007
7.24411e-007
7.24433e-007
7.24457e-007
7.24481e-007
7.24506e-007
7.24531e-007
7.24557e-007
7.24583e-007
7.2461e-007
7.24637e-007
7.24664e-007
7.24691e-007
7.24719e-007
7.24749e-007
7.24781e-007
7.24813e-007
7.24846e-007
7.24878e-007
7.24911e-007
7.24944e-007
7.24977e-007
7.2501e-007
7.25042e-007
7.25076e-007
7.25109e-007
7.25142e-007
7.25175e-007
7.25208e-007
7.25242e-007
7.25276e-007
7.25309e-007
7.25342e-007
7.25376e-007
7.2541e-007
7.25443e-007
7.25476e-007
7.25509e-007
7.25542e-007
7.25574e-007
7.25605e-007
7.25635e-007
7.25664e-007
7.25693e-007
7.25722e-007
7.2575e-007
7.25777e-007
7.25804e-007
7.2583e-007
7.25855e-007
7.2588e-007
7.25905e-007
7.25929e-007
7.25952e-007
7.25975e-007
7.25997e-007
7.26019e-007
7.2604e-007
7.2606e-007
7.2608e-007
7.261e-007
7.26119e-007
7.26138e-007
7.26156e-007
7.26174e-007
7.26192e-007
7.2621e-007
7.26227e-007
7.2624e-007
7.26247e-007
7.26253e-007
7.26257e-007
7.26259e-007
7.26261e-007
7.26261e-007
7.2626e-007
7.26258e-007
7.26255e-007
7.26251e-007
7.26246e-007
7.26238e-007
7.2623e-007
7.26221e-007
7.26211e-007
7.262e-007
7.26187e-007
7.26174e-007
7.26159e-007
7.26142e-007
7.26125e-007
7.26109e-007
7.26091e-007
7.26067e-007
7.26038e-007
7.26008e-007
7.25977e-007
7.25946e-007
7.25914e-007
7.25891e-007
7.25875e-007
7.25859e-007
7.25843e-007
7.25822e-007
7.25801e-007
7.25775e-007
7.25732e-007
7.25728e-007
7.25658e-007
7.25667e-007
7.25649e-007
7.25636e-007
7.25653e-007
7.25494e-007
7.25702e-007
7.28328e-007
7.27393e-007
6.17139e-007
1.46267e-006
0.000455529
2.13716e-007
2.13736e-007
2.13756e-007
2.13774e-007
2.13793e-007
2.1381e-007
2.13827e-007
2.13844e-007
2.13861e-007
2.13877e-007
2.13894e-007
2.1391e-007
2.13927e-007
2.13944e-007
2.13961e-007
2.13978e-007
2.13995e-007
2.14012e-007
2.14029e-007
2.14047e-007
2.14064e-007
2.14082e-007
2.141e-007
2.14118e-007
2.14137e-007
2.14155e-007
2.14174e-007
2.14193e-007
2.14212e-007
2.14231e-007
2.1425e-007
2.1427e-007
2.14289e-007
2.14309e-007
2.14329e-007
2.14348e-007
2.14368e-007
2.14388e-007
2.14408e-007
2.14428e-007
2.14448e-007
2.14468e-007
2.14489e-007
2.14509e-007
2.14529e-007
2.14549e-007
2.14569e-007
2.14589e-007
2.14609e-007
2.14628e-007
2.14648e-007
2.14668e-007
2.14687e-007
2.14707e-007
2.14726e-007
2.14745e-007
2.14764e-007
2.14783e-007
2.14801e-007
2.1482e-007
2.14837e-007
2.14854e-007
2.1487e-007
2.14887e-007
2.14903e-007
2.14919e-007
2.14935e-007
2.1495e-007
2.14965e-007
2.14979e-007
2.14994e-007
2.15008e-007
2.15022e-007
2.15035e-007
2.15048e-007
2.15061e-007
2.15073e-007
2.15085e-007
2.15096e-007
2.15107e-007
2.15118e-007
2.15129e-007
2.15139e-007
2.15148e-007
2.15157e-007
2.15165e-007
2.15173e-007
2.15181e-007
2.15188e-007
2.15195e-007
2.15201e-007
2.15205e-007
2.15209e-007
2.15213e-007
2.15215e-007
2.15216e-007
2.15217e-007
2.15216e-007
2.15214e-007
2.15212e-007
2.15208e-007
2.15204e-007
2.15199e-007
2.15193e-007
2.15186e-007
2.15179e-007
2.15171e-007
2.15162e-007
2.15153e-007
2.15142e-007
2.15132e-007
2.15122e-007
2.15113e-007
2.15103e-007
2.15091e-007
2.15079e-007
2.15066e-007
2.15051e-007
2.15036e-007
2.15021e-007
2.15005e-007
2.14986e-007
2.14967e-007
2.14941e-007
2.14916e-007
2.14887e-007
2.14847e-007
2.14831e-007
2.14771e-007
2.14785e-007
2.14754e-007
2.1467e-007
2.15667e-007
2.17005e-007
1.85551e-007
1.96193e-007
6.45737e-006
0.00117641
0.0287876
1.03759e-007
1.03783e-007
1.03804e-007
1.03822e-007
1.03839e-007
1.03858e-007
1.03876e-007
1.03893e-007
1.03911e-007
1.03929e-007
1.03947e-007
1.03965e-007
1.03984e-007
1.04003e-007
1.04021e-007
1.04041e-007
1.04061e-007
1.0408e-007
1.041e-007
1.04121e-007
1.04142e-007
1.04163e-007
1.04185e-007
1.04206e-007
1.04228e-007
1.0425e-007
1.04273e-007
1.04295e-007
1.04318e-007
1.04341e-007
1.04364e-007
1.04387e-007
1.0441e-007
1.04434e-007
1.04458e-007
1.04481e-007
1.04505e-007
1.04529e-007
1.04552e-007
1.04576e-007
1.04599e-007
1.04623e-007
1.04646e-007
1.04669e-007
1.04693e-007
1.04716e-007
1.04739e-007
1.04762e-007
1.04784e-007
1.04807e-007
1.04829e-007
1.04851e-007
1.04873e-007
1.04895e-007
1.04917e-007
1.04938e-007
1.04959e-007
1.04979e-007
1.05e-007
1.0502e-007
1.05039e-007
1.05059e-007
1.05078e-007
1.05097e-007
1.05116e-007
1.05134e-007
1.05152e-007
1.05169e-007
1.05187e-007
1.05204e-007
1.0522e-007
1.05237e-007
1.05253e-007
1.05268e-007
1.05283e-007
1.05298e-007
1.05312e-007
1.05326e-007
1.0534e-007
1.05353e-007
1.05365e-007
1.05378e-007
1.05389e-007
1.05401e-007
1.05412e-007
1.05422e-007
1.05432e-007
1.05441e-007
1.0545e-007
1.0546e-007
1.05469e-007
1.05477e-007
1.05485e-007
1.05492e-007
1.05499e-007
1.05505e-007
1.0551e-007
1.05515e-007
1.05518e-007
1.05522e-007
1.05524e-007
1.05525e-007
1.05526e-007
1.05526e-007
1.05526e-007
1.05524e-007
1.05522e-007
1.0552e-007
1.05516e-007
1.05512e-007
1.05506e-007
1.055e-007
1.05495e-007
1.05489e-007
1.05483e-007
1.05476e-007
1.05468e-007
1.05458e-007
1.05447e-007
1.05435e-007
1.05421e-007
1.05404e-007
1.05386e-007
1.05363e-007
1.05337e-007
1.05312e-007
1.0527e-007
1.05249e-007
1.05214e-007
1.05164e-007
1.05253e-007
1.05603e-007
9.9584e-008
8.78937e-008
3.12519e-007
1.88524e-005
0.00144393
0.0310931
0.162368
5.80854e-008
5.81073e-008
5.81254e-008
5.8138e-008
5.81536e-008
5.81664e-008
5.81784e-008
5.81928e-008
5.82065e-008
5.82208e-008
5.82353e-008
5.82509e-008
5.8266e-008
5.82816e-008
5.82982e-008
5.83144e-008
5.83312e-008
5.83484e-008
5.83666e-008
5.83844e-008
5.84026e-008
5.84212e-008
5.844e-008
5.84593e-008
5.8479e-008
5.84987e-008
5.85189e-008
5.85388e-008
5.85594e-008
5.85801e-008
5.8601e-008
5.8622e-008
5.86434e-008
5.86646e-008
5.86859e-008
5.87076e-008
5.87294e-008
5.87513e-008
5.8773e-008
5.87947e-008
5.88167e-008
5.88386e-008
5.88603e-008
5.88823e-008
5.89039e-008
5.89252e-008
5.89466e-008
5.89681e-008
5.89895e-008
5.90107e-008
5.90315e-008
5.90524e-008
5.90733e-008
5.90938e-008
5.91142e-008
5.91343e-008
5.9154e-008
5.91738e-008
5.91934e-008
5.92127e-008
5.92318e-008
5.92511e-008
5.92697e-008
5.9288e-008
5.93064e-008
5.93241e-008
5.93418e-008
5.93591e-008
5.93764e-008
5.93931e-008
5.94091e-008
5.94255e-008
5.94414e-008
5.94567e-008
5.94719e-008
5.94868e-008
5.95014e-008
5.95156e-008
5.95292e-008
5.95426e-008
5.95557e-008
5.95687e-008
5.95811e-008
5.95932e-008
5.96051e-008
5.96161e-008
5.96269e-008
5.96372e-008
5.96474e-008
5.96574e-008
5.96672e-008
5.96766e-008
5.96858e-008
5.96945e-008
5.97028e-008
5.97105e-008
5.97179e-008
5.97247e-008
5.97315e-008
5.97369e-008
5.9742e-008
5.97465e-008
5.97506e-008
5.97542e-008
5.97572e-008
5.97592e-008
5.97613e-008
5.97621e-008
5.97628e-008
5.97627e-008
5.97614e-008
5.97594e-008
5.97572e-008
5.97548e-008
5.97517e-008
5.97477e-008
5.9743e-008
5.97376e-008
5.97311e-008
5.97233e-008
5.97145e-008
5.97036e-008
5.96923e-008
5.96762e-008
5.9659e-008
5.96404e-008
5.96163e-008
5.9593e-008
5.95862e-008
5.95208e-008
5.90978e-008
5.2827e-008
7.66302e-008
7.47182e-007
5.87143e-005
0.00283102
0.0436126
0.197675
0.451317
6.64074e-008
6.63326e-008
6.62939e-008
6.62856e-008
6.62781e-008
6.62441e-008
6.62226e-008
6.62026e-008
6.61805e-008
6.61576e-008
6.61328e-008
6.61066e-008
6.60801e-008
6.60523e-008
6.60234e-008
6.59926e-008