/*--------------------------------*- C++ -*----------------------------------*\
| =========                 |                                                 |
| \\      /  F ield         | OpenFOAM: The Open Source CFD Toolbox           |
|  \\    /   O peration     | Version:  5.x                                   |
|   \\  /    A nd           | Web:      www.OpenFOAM.org                      |
|    \\/     M anipulation  |                                                 |
\*---------------------------------------------------------------------------*/
/*   Windows 32 and 64 bit porting by blueCAPE: http://www.bluecape.com.pt   *\
|  Based on Windows porting (2.0.x v4) by Symscape: http://www.symscape.com   |
\*---------------------------------------------------------------------------*/
FoamFile
{
    version     2.0;
    format      ascii;
    class       volScalarField;
    location    "140";
    object      p;
}
// * * * * * * * * * * * * * * * * * * * * * * * * * * * * * * * * * * * * * //

dimensions      [0 2 -2 0 0 0 0];

internalField   nonuniform List<scalar> 
43900
(
0.412199
0.411844
0.411804
0.411673
0.411485
0.411232
0.411049
0.41071
0.410459
0.410151
0.409827
0.409503
0.409163
0.408811
0.408451
0.408082
0.407705
0.407321
0.406929
0.406532
0.406128
0.405719
0.405304
0.404884
0.40446
0.404031
0.403598
0.40316
0.402719
0.410114
0.417937
0.41201
0.415161
0.41278
0.413508
0.412651
0.412461
0.412069
0.411647
0.411261
0.41085
0.410436
0.410023
0.409608
0.40919
0.408769
0.408346
0.407919
0.407489
0.407056
0.406619
0.40618
0.405737
0.405292
0.404843
0.404391
0.403937
0.403479
0.403512
0.424957
0.413784
0.420216
0.414946
0.417656
0.415195
0.415627
0.414535
0.414161
0.413611
0.413088
0.412586
0.412095
0.411609
0.411128
0.410652
0.410179
0.409709
0.40924
0.408771
0.408303
0.407834
0.407364
0.406892
0.406419
0.405945
0.405468
0.404989
0.398629
0.425512
0.41903
0.418873
0.418491
0.418042
0.416877
0.416927
0.416083
0.415763
0.415196
0.414694
0.414195
0.413695
0.413194
0.412696
0.412198
0.411703
0.411208
0.410714
0.41022
0.409725
0.40923
0.408734
0.408236
0.407737
0.407236
0.406732
0.406226
0.400192
0.423385
0.418434
0.417824
0.417876
0.417491
0.417307
0.417063
0.416546
0.416251
0.415802
0.415393
0.414969
0.414529
0.41408
0.413623
0.413157
0.412683
0.412203
0.411717
0.411225
0.410728
0.410227
0.40972
0.409209
0.408694
0.408175
0.407652
0.407124
0.404641
0.422088
0.419069
0.418812
0.41873
0.4183
0.418094
0.417872
0.417631
0.417372
0.417037
0.416714
0.41637
0.416012
0.41564
0.415253
0.414852
0.414437
0.414009
0.413569
0.413116
0.412652
0.412177
0.411692
0.411198
0.410694
0.41018
0.409658
0.409128
0.410611
0.423892
0.422077
0.421598
0.421572
0.421439
0.421158
0.42077
0.420499
0.420259
0.419974
0.41969
0.419394
0.419083
0.418756
0.418414
0.418057
0.417685
0.417298
0.416896
0.416479
0.416047
0.415601
0.415141
0.414666
0.414178
0.413676
0.413161
0.412634
0.416432
0.427418
0.42619
0.425655
0.425544
0.425452
0.425277
0.424968
0.424644
0.424345
0.424058
0.423761
0.423448
0.423121
0.422779
0.422422
0.422049
0.421661
0.421256
0.420835
0.420399
0.419947
0.419479
0.418995
0.418496
0.417982
0.417453
0.416909
0.41635
0.424744
0.43185
0.431257
0.430725
0.430474
0.430279
0.430056
0.429784
0.429434
0.429014
0.428626
0.428264
0.427894
0.427513
0.427116
0.426704
0.426274
0.425827
0.425362
0.42488
0.424381
0.423864
0.42333
0.42278
0.422212
0.421627
0.421026
0.420409
0.419775
0.433881
0.437988
0.437688
0.437167
0.436813
0.43651
0.436188
0.435835
0.435447
0.435011
0.434531
0.434063
0.433622
0.433185
0.432734
0.432262
0.431768
0.431252
0.430714
0.430156
0.429577
0.428978
0.428358
0.427719
0.42706
0.426382
0.425686
0.424971
0.424237
0.442848
0.446276
0.446015
0.445474
0.445067
0.444705
0.444323
0.443909
0.443462
0.442983
0.442471
0.441937
0.441424
0.44095
0.440467
0.439958
0.43942
0.43885
0.438254
0.437628
0.436977
0.436299
0.435593
0.434866
0.434111
0.433334
0.432533
0.431709
0.430865
0.453519
0.455722
0.455484
0.45497
0.454536
0.454129
0.453699
0.453234
0.452733
0.452194
0.451618
0.451028
0.450436
0.449889
0.449369
0.44882
0.448234
0.447614
0.446954
0.446264
0.445538
0.444777
0.443989
0.443163
0.442312
0.44143
0.440515
0.439579
0.43861
0.465102
0.466324
0.46605
0.465542
0.465069
0.4646
0.464095
0.463544
0.462945
0.462294
0.461588
0.460846
0.460109
0.459422
0.458778
0.45812
0.45743
0.45669
0.455917
0.455102
0.454254
0.453373
0.452441
0.451494
0.450504
0.449472
0.448426
0.447335
0.446216
0.477558
0.478172
0.477823
0.477289
0.476762
0.47622
0.475632
0.474986
0.474276
0.473498
0.472646
0.471734
0.470813
0.46994
0.469142
0.468336
0.467481
0.466584
0.465632
0.464652
0.463635
0.462556
0.461465
0.460321
0.459133
0.457929
0.456665
0.455381
0.454065
0.49098
0.491282
0.490857
0.490275
0.489682
0.489063
0.488389
0.487647
0.48683
0.485929
0.484938
0.483863
0.482766
0.481738
0.480773
0.479801
0.478793
0.47771
0.476592
0.475436
0.474206
0.472955
0.471637
0.47028
0.468908
0.467452
0.46598
0.464472
0.462911
0.505422
0.50557
0.505076
0.504435
0.503772
0.503067
0.502297
0.501449
0.500515
0.499485
0.498352
0.497126
0.495872
0.494646
0.493528
0.492408
0.491208
0.489967
0.48867
0.487294
0.485895
0.484404
0.482877
0.481333
0.479683
0.478013
0.476304
0.474529
0.472732
0.520874
0.520961
0.520401
0.519688
0.518945
0.518149
0.517274
0.516307
0.515242
0.514069
0.512777
0.511364
0.509882
0.508497
0.507159
0.505828
0.504457
0.502998
0.501465
0.499905
0.498237
0.496516
0.494774
0.492922
0.491039
0.489116
0.487107
0.485073
0.482992
0.537348
0.537427
0.536801
0.536004
0.535168
0.534267
0.533273
0.53217
0.530947
0.529594
0.528098
0.526469
0.524787
0.523115
0.521572
0.520025
0.518402
0.516688
0.514924
0.513073
0.511135
0.509176
0.507107
0.504966
0.502808
0.500545
0.498238
0.495906
0.493482
0.554784
0.554892
0.554197
0.553305
0.552362
0.551344
0.550214
0.548957
0.547562
0.546019
0.544319
0.542461
0.540512
0.538599
0.536779
0.534978
0.533061
0.531089
0.529049
0.52686
0.524665
0.522373
0.519929
0.517513
0.51499
0.512348
0.509746
0.507004
0.504166
0.573169
0.573325
0.572559
0.571563
0.570508
0.569364
0.568092
0.566673
0.565096
0.563348
0.561416
0.559294
0.55703
0.554823
0.552716
0.550602
0.548422
0.546163
0.543696
0.541239
0.538723
0.535946
0.533279
0.530482
0.527447
0.524547
0.521476
0.518253
0.515174
0.592404
0.592623
0.591781
0.590674
0.589495
0.588211
0.586779
0.585175
0.583385
0.581394
0.579186
0.576761
0.574215
0.57168
0.569262
0.566868
0.564389
0.561618
0.558891
0.556165
0.553055
0.5501
0.547003
0.543595
0.540399
0.536979
0.533392
0.529959
0.526303
0.612375
0.61267
0.611748
0.61052
0.609208
0.607774
0.606169
0.604368
0.602357
0.600123
0.597654
0.594951
0.59207
0.589107
0.586385
0.58364
0.580581
0.577651
0.574649
0.571231
0.56791
0.564451
0.560741
0.557166
0.553349
0.549406
0.545523
0.54144
0.537235
0.633006
0.633382
0.632381
0.631034
0.629591
0.628009
0.626233
0.624236
0.622003
0.619516
0.616751
0.613694
0.610401
0.607158
0.603865
0.6006
0.597455
0.594012
0.590361
0.586716
0.582852
0.57886
0.574833
0.570618
0.566312
0.561934
0.55741
0.552768
0.548174
0.654112
0.654579
0.653498
0.652026
0.650444
0.648703
0.64674
0.644525
0.642039
0.639262
0.636176
0.632765
0.629098
0.625284
0.621732
0.618204
0.61436
0.610475
0.606495
0.602241
0.597926
0.593423
0.588814
0.584139
0.579234
0.57424
0.569181
0.564065
0.558866
0.675533
0.676098
0.674936
0.673338
0.671615
0.669711
0.667557
0.665121
0.662381
0.659319
0.655911
0.652153
0.648092
0.644
0.63982
0.635609
0.631535
0.627197
0.622534
0.617884
0.612962
0.607888
0.602744
0.597377
0.591982
0.586417
0.580691
0.574921
0.568941
0.697131
0.697794
0.696558
0.694844
0.69299
0.690934
0.688603
0.685958
0.68298
0.679646
0.67593
0.671811
0.667344
0.662532
0.657894
0.653446
0.648619
0.643686
0.638725
0.633356
0.627853
0.622236
0.616384
0.610498
0.60441
0.598127
0.591767
0.585317
0.578825
0.718681
0.719446
0.718139
0.716312
0.714328
0.71212
0.709606
0.706745
0.703513
0.699884
0.695829
0.691317
0.686357
0.681301
0.676097
0.670816
0.665624
0.660261
0.65457
0.64869
0.642533
0.636247
0.629775
0.623191
0.616435
0.609442
0.602437
0.595274
0.587891
0.740015
0.74088
0.73951
0.737583
0.735483
0.733136
0.730454
0.727393
0.723925
0.720023
0.715657
0.710802
0.705455
0.699698
0.694001
0.688341
0.682476
0.676425
0.670199
0.663639
0.656882
0.649913
0.642792
0.635397
0.627816
0.620292
0.61238
0.604283
0.596284
0.760937
0.761896
0.760471
0.758454
0.756249
0.753775
0.750935
0.747684
0.74399
0.739824
0.735149
0.729934
0.724195
0.718133
0.711711
0.705381
0.699005
0.692306
0.685494
0.67835
0.670773
0.663057
0.655189
0.647097
0.638833
0.630258
0.621556
0.61289
0.604041
0.781271
0.782313
0.780844
0.778756
0.776465
0.773882
0.770907
0.76749
0.763598
0.759199
0.754259
0.748731
0.742591
0.735873
0.729112
0.722163
0.715174
0.707898
0.700091
0.69224
0.684335
0.675855
0.66706
0.658038
0.648988
0.639765
0.630236
0.620495
0.610588
0.800847
0.801957
0.800456
0.798314
0.795955
0.793283
0.790193
0.786633
0.782566
0.777957
0.772765
0.766948
0.760476
0.753485
0.746004
0.738459
0.730611
0.722687
0.71461
0.706046
0.697042
0.687765
0.678216
0.668528
0.658522
0.648185
0.637825
0.627204
0.61633
0.81952
0.82068
0.819158
0.816981
0.814574
0.811834
0.808653
0.804975
0.800761
0.795969
0.790553
0.784462
0.777636
0.770104
0.762225
0.75394
0.745668
0.737321
0.728174
0.718752
0.709297
0.6992
0.68877
0.678115
0.667073
0.655887
0.644527
0.632834
0.620854
0.837166
0.838353
0.836821
0.834628
0.832192
0.829404
0.826153
0.822382
0.818046
0.813097
0.807491
0.80118
0.794109
0.786261
0.777763
0.769236
0.760295
0.750919
0.741306
0.731107
0.720643
0.709908
0.698524
0.686867
0.674855
0.662684
0.650292
0.637426
0.624342
0.853692
0.85488
0.853349
0.85116
0.848716
0.845903
0.842609
0.838775
0.834356
0.829302
0.823564
0.817078
0.809794
0.801735
0.792973
0.78355
0.77399
0.763948
0.753611
0.742949
0.73148
0.719649
0.707507
0.694843
0.681901
0.668532
0.654762
0.640752
0.626563
0.869032
0.870192
0.868672
0.866505
0.864072
0.861254
0.857941
0.854072
0.849599
0.84447
0.838632
0.83202
0.824536
0.816143
0.806898
0.797112
0.786964
0.776545
0.765527
0.753828
0.741531
0.728755
0.715611
0.701889
0.687743
0.67327
0.658259
0.643023
0.627661
0.883149
0.884252
0.882753
0.880624
0.878218
0.875415
0.872105
0.868229
0.863734
0.858565
0.852658
0.845945
0.838354
0.829823
0.820383
0.810191
0.799502
0.788254
0.77641
0.764012
0.750852
0.73715
0.722878
0.708064
0.692828
0.677019
0.660793
0.644036
0.627041
0.896034
0.89705
0.89558
0.893504
0.891142
0.88837
0.885085
0.881226
0.876739
0.871564
0.865634
0.858882
0.851211
0.842546
0.832888
0.822333
0.810992
0.799174
0.786756
0.773608
0.759792
0.744969
0.72941
0.713379
0.696813
0.67958
0.661763
0.643729
0.62524
0.907701
0.908604
0.907169
0.90516
0.902854
0.900129
0.896887
0.893068
0.888614
0.883462
0.877543
0.87078
0.86308
0.854317
0.84445
0.83364
0.822039
0.809651
0.796607
0.782541
0.767576
0.751963
0.735294
0.71789
0.699821
0.681064
0.661778
0.641952
0.621695
0.918187
0.91895
0.917559
0.915627
0.913388
0.910725
0.907543
0.903785
0.899391
0.894296
0.888424
0.881689
0.873999
0.865239
0.85535
0.844293
0.832264
0.819399
0.805541
0.790655
0.774873
0.758202
0.740575
0.721705
0.701918
0.681522
0.660378
0.638736
0.616431
0.927543
0.928146
0.926804
0.924958
0.922797
0.920208
0.917103
0.913427
0.909117
0.904105
0.898312
0.891649
0.88401
0.875268
0.865308
0.854191
0.841895
0.828484
0.814021
0.798466
0.781836
0.76391
0.744685
0.724546
0.70312
0.680837
0.657771
0.633888
0.609702
0.935833
0.936261
0.934974
0.933222
0.931148
0.928644
0.925632
0.922056
0.917853
0.91295
0.907266
0.900708
0.893158
0.884483
0.874549
0.863262
0.850847
0.837202
0.822138
0.805784
0.788003
0.768813
0.748271
0.726472
0.703467
0.679064
0.653841
0.627653
0.601005
0.943131
0.943372
0.942146
0.940496
0.938516
0.936108
0.933204
0.929747
0.925673
0.920905
0.915358
0.908933
0.901511
0.892945
0.883062
0.871846
0.859098
0.845078
0.829708
0.812567
0.793763
0.773293
0.751292
0.727731
0.702565
0.676039
0.64843
0.619831
0.590422
0.949513
0.949563
0.948405
0.946861
0.944982
0.942682
0.939899
0.936579
0.932654
0.928045
0.922662
0.916397
0.909129
0.900697
0.890939
0.879657
0.866952
0.852574
0.836599
0.818899
0.799055
0.777312
0.753687
0.728103
0.700784
0.671757
0.641545
0.610044
0.577688
0.955055
0.954917
0.953834
0.952401
0.95063
0.948447
0.9458
0.942633
0.938878
0.934451
0.929256
0.923179
0.916087
0.907817
0.898159
0.887013
0.874095
0.859674
0.843087
0.824625
0.804003
0.780744
0.755431
0.727743
0.698041
0.666576
0.633077
0.598437
0.562591
0.959835
0.959521
0.95852
0.9572
0.955542
0.953487
0.950988
0.94799
0.944423
0.940199
0.935214
0.929348
0.922455
0.914362
0.904851
0.893717
0.880876
0.866015
0.84927
0.82994
0.808191
0.783756
0.756529
0.726809
0.694427
0.659957
0.623241
0.584637
0.545307
0.963925
0.963452
0.962542
0.961338
0.959796
0.957877
0.95554
0.952727
0.949364
0.94536
0.940606
0.934968
0.928289
0.920378
0.911009
0.899937
0.887037
0.871996
0.854698
0.834786
0.811952
0.786148
0.757081
0.725071
0.690029
0.652103
0.611692
0.569076
0.525081
0.967402
0.966782
0.965978
0.964888
0.963467
0.961693
0.959528
0.956912
0.953768
0.95
0.94549
0.94009
0.933635
0.925908
0.916685
0.905613
0.892714
0.877403
0.859643
0.839056
0.815212
0.788057
0.757107
0.72268
0.684628
0.643224
0.598534
0.551328
0.502275
0.97033
0.969583
0.9689
0.967919
0.966621
0.964999
0.963018
0.960611
0.957697
0.954175
0.949916
0.944756
0.938519
0.930985
0.921852
0.910853
0.897769
0.882373
0.863985
0.842919
0.817972
0.78938
0.756715
0.719765
0.678564
0.6331
0.583892
0.531142
0.476191
0.972766
0.971923
0.971373
0.97049
0.969319
0.967856
0.966069
0.963878
0.961201
0.95793
0.953926
0.948992
0.942958
0.935634
0.926493
0.915586
0.902385
0.886599
0.86795
0.846041
0.820383
0.79031
0.755934
0.716423
0.671771
0.62208
0.567443
0.508708
0.446518
0.974761
0.97387
0.973453
0.972655
0.971617
0.970318
0.968733
0.966762
0.964324
0.961303
0.957547
0.952811
0.946976
0.939799
0.93067
0.919698
0.906459
0.890228
0.871324
0.848662
0.822192
0.791008
0.754743
0.712787
0.664545
0.610088
0.549624
0.483402
0.413389
0.976361
0.975488
0.975187
0.974457
0.973563
0.97243
0.971058
0.969302
0.967101
0.964318
0.960796
0.956203
0.950569
0.943473
0.934278
0.923317
0.909823
0.893348
0.874072
0.850873
0.82362
0.791329
0.753477
0.70899
0.65724
0.597595
0.530233
0.455791
0.375415
0.977609
0.976832
0.976608
0.975938
0.975205
0.974234
0.973083
0.971529
0.969553
0.966987
0.96367
0.95915
0.953738
0.946559
0.9374
0.926296
0.912587
0.895933
0.876316
0.852629
0.82467
0.791407
0.752108
0.705298
0.650019
0.58503
0.509886
0.425053
0.333031
0.978556
0.977932
0.977741
0.977134
0.976579
0.97576
0.974834
0.973456
0.971685
0.969304
0.966137
0.961655
0.956389
0.949086
0.939923
0.928671
0.914732
0.898025
0.877964
0.853951
0.825418
0.791309
0.750728
0.701715
0.643215
0.57256
0.489099
0.391998
0.284379
0.979247
0.978789
0.978603
0.978076
0.977708
0.977023
0.976317
0.975067
0.973483
0.971214
0.968127
0.963713
0.958423
0.951007
0.941906
0.930407
0.916451
0.899487
0.879218
0.854865
0.825915
0.790955
0.749275
0.698246
0.636777
0.56047
0.468172
0.357251
0.22964
0.979711
0.979376
0.979207
0.978788
0.978583
0.978017
0.977482
0.976322
0.974894
0.972657
0.969625
0.965269
0.959799
0.95239
0.943265
0.931628
0.917658
0.900461
0.880081
0.855391
0.826001
0.790303
0.747581
0.694786
0.630472
0.548791
0.447294
0.319544
0.167849
0.979963
0.9797
0.979571
0.979292
0.979173
0.97875
0.978273
0.977225
0.975847
0.973628
0.970624
0.966359
0.960612
0.953342
0.943995
0.932374
0.918077
0.900765
0.879876
0.854998
0.824645
0.788534
0.743988
0.690015
0.621917
0.536088
0.423865
0.276299
0.086895
0.98007
0.979849
0.979767
0.979622
0.979501
0.979223
0.978683
0.977801
0.976357
0.974163
0.971045
0.966889
0.960809
0.953572
0.943873
0.932168
0.91734
0.899779
0.878183
0.852885
0.821464
0.784566
0.738171
0.682466
0.610789
0.520164
0.397841
0.227615
-0.018361
0.980086
0.979902
0.979843
0.979839
0.97963
0.979513
0.978796
0.97806
0.976502
0.974276
0.970968
0.966662
0.960309
0.952776
0.942722
0.930649
0.91541
0.897395
0.875231
0.849262
0.817005
0.779018
0.731233
0.673385
0.598939
0.503074
0.374014
0.187014
-0.11691
0.980102
0.979926
0.979891
0.97989
0.979621
0.979429
0.978627
0.977838
0.97593
0.973474
0.969892
0.965231
0.958487
0.950638
0.940227
0.927787
0.912104
0.893699
0.870965
0.844554
0.811396
0.772949
0.723569
0.665398
0.587483
0.491419
0.355501
0.176176
-0.0362275
0.402194
0.401584
0.400967
0.400344
0.399715
0.399081
0.398442
0.397798
0.397149
0.396496
0.395838
0.395177
0.394512
0.393844
0.393172
0.392497
0.391819
0.391138
0.390455
0.389769
0.389081
0.388391
0.387699
0.387005
0.38631
0.385614
0.384916
0.384218
0.383519
0.382819
0.382119
0.381419
0.380719
0.380019
0.379319
0.37862
0.377922
0.377225
0.376529
0.375834
0.375141
0.37445
0.37376
0.373073
0.372389
0.371707
0.371028
0.370352
0.36968
0.369011
0.368346
0.367685
0.367028
0.366376
0.365728
0.365085
0.364447
0.363815
0.363188
0.362567
0.361951
0.361342
0.360738
0.360141
0.359551
0.358968
0.358391
0.357822
0.35726
0.356705
0.356158
0.355619
0.355088
0.354565
0.354051
0.353545
0.353047
0.352559
0.352079
0.351609
0.351147
0.350695
0.350252
0.34982
0.349396
0.348983
0.348579
0.348186
0.347803
0.34743
0.347068
0.346716
0.346375
0.346044
0.345724
0.345415
0.345117
0.34483
0.344554
0.344288
0.344034
0.34379
0.343557
0.343336
0.343125
0.342925
0.342736
0.342558
0.34239
0.342233
0.342086
0.34195
0.341823
0.341706
0.341599
0.341501
0.341413
0.341334
0.341265
0.341205
0.341153
0.341109
0.341074
0.341046
0.341024
0.341011
0.341001
0.341004
0.341003
0.34102
0.341035
0.341058
0.341091
0.341121
0.341168
0.341204
0.341282
0.341302
0.341462
0.402937
0.402307
0.401673
0.401033
0.400388
0.399739
0.399084
0.398425
0.39776
0.397092
0.396418
0.395741
0.395059
0.394373
0.393684
0.39299
0.392293
0.391593
0.39089
0.390184
0.389475
0.388764
0.38805
0.387334
0.386617
0.385898
0.385177
0.384455
0.383732
0.383009
0.382285
0.381561
0.380836
0.380112
0.379389
0.378666
0.377944
0.377223
0.376504
0.375786
0.37507
0.374356
0.373645
0.372936
0.37223
0.371527
0.370827
0.370131
0.369438
0.368749
0.368064
0.367384
0.366707
0.366036
0.365369
0.364707
0.364051
0.3634
0.362755
0.362115
0.361482
0.360855
0.360234
0.35962
0.359013
0.358413
0.357821
0.357235
0.356658
0.356088
0.355526
0.354972
0.354427
0.35389
0.353362
0.352842
0.352331
0.351829
0.351337
0.350854
0.35038
0.349916
0.349462
0.349018
0.348584
0.34816
0.347747
0.347344
0.346951
0.346569
0.346198
0.345837
0.345487
0.345147
0.344819
0.344502
0.344195
0.3439
0.343617
0.343344
0.343083
0.342833
0.342595
0.342368
0.342152
0.341948
0.341756
0.341575
0.341406
0.341248
0.341101
0.340967
0.340844
0.340732
0.340633
0.340544
0.340467
0.3404
0.340345
0.3403
0.340265
0.34024
0.340224
0.340217
0.340219
0.340227
0.34025
0.340261
0.3403
0.340323
0.340352
0.340384
0.340417
0.340442
0.340493
0.340474
0.340483
0.340443
0.340429
0.404422
0.403765
0.403104
0.402438
0.401767
0.401091
0.40041
0.399724
0.399034
0.398339
0.397639
0.396935
0.396226
0.395512
0.394795
0.394073
0.393347
0.392617
0.391883
0.391146
0.390406
0.389662
0.388916
0.388166
0.387415
0.386661
0.385905
0.385147
0.384388
0.383628
0.382867
0.382105
0.381343
0.38058
0.379818
0.379056
0.378295
0.377535
0.376775
0.376018
0.375261
0.374507
0.373755
0.373005
0.372258
0.371514
0.370773
0.370036
0.369302
0.368572
0.367846
0.367125
0.366408
0.365697
0.36499
0.364289
0.363593
0.362903
0.36222
0.361542
0.360871
0.360207
0.35955
0.358899
0.358256
0.357621
0.356993
0.356373
0.355761
0.355158
0.354563
0.353976
0.353398
0.35283
0.35227
0.35172
0.351179
0.350647
0.350126
0.349614
0.349113
0.348621
0.34814
0.347669
0.347208
0.346759
0.346319
0.345891
0.345474
0.345067
0.344672
0.344288
0.343916
0.343555
0.343206
0.342869
0.342544
0.342231
0.34193
0.341641
0.341365
0.341101
0.340849
0.340611
0.340385
0.340172
0.339972
0.339785
0.339612
0.339451
0.339305
0.339172
0.339052
0.338947
0.338855
0.338777
0.338713
0.338662
0.338625
0.338602
0.338593
0.338596
0.338617
0.338643
0.338695
0.338746
0.338819
0.338907
0.338995
0.339107
0.339228
0.339344
0.339463
0.339629
0.339593
0.340056
0.339696
0.340817
0.339479
0.405628
0.404934
0.404234
0.403529
0.402818
0.402102
0.40138
0.400653
0.39992
0.399182
0.398438
0.397689
0.396935
0.396176
0.395412
0.394644
0.393871
0.393094
0.392313
0.391528
0.39074
0.389948
0.389153
0.388355
0.387555
0.386752
0.385946
0.385139
0.38433
0.38352
0.382708
0.381896
0.381082
0.380269
0.379454
0.378641
0.377827
0.377014
0.376203
0.375392
0.374583
0.373776
0.372971
0.372168
0.371368
0.370571
0.369778
0.368987
0.368201
0.367419
0.366641
0.365868
0.3651
0.364337
0.36358
0.362828
0.362083
0.361343
0.360611
0.359885
0.359166
0.358454
0.35775
0.357053
0.356365
0.355684
0.355012
0.354349
0.353694
0.353048
0.352412
0.351785
0.351167
0.35056
0.349962
0.349374
0.348797
0.34823
0.347674
0.347129
0.346595
0.346072
0.34556
0.34506
0.344572
0.344095
0.343631
0.343178
0.342738
0.342311
0.341896
0.341495
0.341106
0.340731
0.340369
0.34002
0.339685
0.339364
0.339056
0.338763
0.338484
0.338219
0.337968
0.337732
0.337511
0.337304
0.337112
0.336936
0.336775
0.336629
0.336499
0.336384
0.336285
0.336201
0.336134
0.336082
0.336047
0.336029
0.336027
0.336042
0.336075
0.336126
0.336197
0.336288
0.336391
0.336536
0.336677
0.336854
0.337076
0.33729
0.337505
0.337961
0.337761
0.33902
0.337729
0.340773
0.337293
0.343696
0.335556
0.406498
0.405768
0.40503
0.404285
0.403532
0.402772
0.402003
0.401227
0.400443
0.399652
0.398853
0.398048
0.397235
0.396415
0.395589
0.394757
0.393919
0.393076
0.392227
0.391373
0.390514
0.389651
0.388784
0.387913
0.387038
0.386161
0.385281
0.384399
0.383514
0.382628
0.381741
0.380852
0.379964
0.379074
0.378186
0.377297
0.37641
0.375523
0.374638
0.373755
0.372875
0.371996
0.371121
0.370249
0.36938
0.368515
0.367655
0.366798
0.365947
0.3651
0.364259
0.363423
0.362594
0.36177
0.360953
0.360142
0.359339
0.358543
0.357754
0.356973
0.3562
0.355435
0.354679
0.353932
0.353194
0.352465
0.351746
0.351036
0.350336
0.349646
0.348966
0.348297
0.347639
0.346991
0.346355
0.34573
0.345116
0.344514
0.343924
0.343346
0.342781
0.342228
0.341687
0.34116
0.340645
0.340144
0.339656
0.339182
0.338721
0.338275
0.337842
0.337424
0.337019
0.33663
0.336254
0.335894
0.335548
0.335218
0.334902
0.334602
0.334317
0.334048
0.333795
0.333558
0.333337
0.333132
0.332944
0.332773
0.332619
0.332481
0.332362
0.33226
0.332177
0.332112
0.332067
0.332041
0.332036
0.332051
0.332088
0.332146
0.332229
0.332336
0.332464
0.332627
0.33281
0.333027
0.333293
0.333563
0.33383
0.334418
0.334272
0.335855
0.334455
0.338245
0.333981
0.34178
0.331975
0.346747
0.322978
0.408494
0.407749
0.406991
0.40622
0.405437
0.404641
0.403833
0.403015
0.402185
0.401345
0.400495
0.399635
0.398766
0.397887
0.397
0.396105
0.395201
0.39429
0.393372
0.392447
0.391515
0.390578
0.389635
0.388686
0.387734
0.386776
0.385816
0.384852
0.383885
0.382916
0.381945
0.380972
0.379998
0.379024
0.37805
0.377075
0.376101
0.375128
0.374157
0.373187
0.37222
0.371255
0.370293
0.369335
0.368381
0.367431
0.366485
0.365544
0.364609
0.363679
0.362755
0.361837
0.360926
0.360022
0.359126
0.358237
0.357356
0.356483
0.355618
0.354763
0.353916
0.353079
0.352251
0.351433
0.350626
0.349828
0.349041
0.348265
0.3475
0.346746
0.346004
0.345273
0.344554
0.343847
0.343153
0.342471
0.341801
0.341145
0.340501
0.339871
0.339254
0.33865
0.33806
0.337483
0.33692
0.336372
0.335837
0.335317
0.334811
0.33432
0.333843
0.333381
0.332934
0.332503
0.332087
0.331686
0.331301
0.330932
0.330579
0.330242
0.329922
0.329618
0.329331
0.329062
0.32881
0.328575
0.328359
0.328161
0.327981
0.327821
0.327679
0.327558
0.327457
0.327376
0.327317
0.32728
0.327266
0.327275
0.327307
0.327366
0.327447
0.327559
0.327692
0.327856
0.328054
0.328258
0.328504
0.328855
0.328915
0.329741
0.329244
0.330928
0.329523
0.332287
0.330044
0.333614
0.329554
0.340398
0.308968
0.411998
0.411246
0.410473
0.40968
0.408867
0.408036
0.407187
0.406322
0.405441
0.404545
0.403634
0.40271
0.401773
0.400823
0.399862
0.398889
0.397906
0.396913
0.395911
0.3949
0.393881
0.392855
0.391822
0.390782
0.389737
0.388687
0.387632
0.386572
0.385509
0.384442
0.383373
0.382301
0.381227
0.380152
0.379077
0.378001
0.376926
0.375852
0.374779
0.373708
0.372639
0.371573
0.370511
0.369452
0.368397
0.367348
0.366303
0.365264
0.36423
0.363204
0.362184
0.361171
0.360166
0.359168
0.358179
0.357198
0.356226
0.355263
0.35431
0.353366
0.352433
0.351509
0.350597
0.349695
0.348804
0.347925
0.347058
0.346203
0.34536
0.344529
0.343711
0.342906
0.342114
0.341335
0.340569
0.339817
0.339079
0.338355
0.337645
0.336949
0.336267
0.3356
0.334948
0.334311
0.333689
0.333081
0.332489
0.331912
0.33135
0.330804
0.330274
0.329759
0.32926
0.328777
0.328311
0.327861
0.327427
0.32701
0.326609
0.326226
0.32586
0.325511
0.32518
0.324866
0.32457
0.324292
0.324033
0.323792
0.323569
0.323366
0.323182
0.323017
0.322871
0.322746
0.32264
0.322555
0.322489
0.322445
0.322419
0.322418
0.322433
0.322472
0.322527
0.322594
0.322694
0.3228
0.322871
0.323146
0.323032
0.323593
0.323218
0.324036
0.323559
0.32426
0.324422
0.324407
0.32473
0.331269
0.300378
0.415676
0.414875
0.414048
0.413197
0.412322
0.411424
0.410505
0.409565
0.408604
0.407623
0.406624
0.405607
0.404574
0.403525
0.402461
0.401384
0.400294
0.39919
0.398074
0.396946
0.395807
0.394658
0.393499
0.392332
0.391158
0.389978
0.388792
0.387601
0.386406
0.385208
0.384008
0.382806
0.381602
0.380399
0.379196
0.377994
0.376794
0.375595
0.3744
0.373208
0.372019
0.370835
0.369656
0.368482
0.367314
0.366152
0.364997
0.363849
0.362709
0.361577
0.360453
0.359338
0.358232
0.357136
0.35605
0.354975
0.35391
0.352857
0.351814
0.350783
0.349765
0.348758
0.347764
0.346783
0.345814
0.344859
0.343917
0.342989
0.342075
0.341174
0.340288
0.339416
0.338559
0.337716
0.336888
0.336075
0.335278
0.334495
0.333728
0.332976
0.332241
0.331521
0.330817
0.330129
0.329457
0.328801
0.328161
0.327538
0.326932
0.326342
0.325768
0.325211
0.324671
0.324148
0.323641
0.323152
0.322679
0.322223
0.321784
0.321363
0.320958
0.320571
0.3202
0.319847
0.319511
0.319192
0.318891
0.318606
0.318339
0.318088
0.317855
0.317638
0.317438
0.317255
0.317087
0.316935
0.316798
0.316677
0.31657
0.316472
0.316394
0.316322
0.316274
0.316227
0.316188
0.316208
0.316115
0.316262
0.316088
0.316364
0.316153
0.316479
0.3164
0.316379
0.316806
0.315814
0.3151
0.322142
0.294315
0.41901
0.4181
0.417162
0.416196
0.415204
0.414188
0.413148
0.412083
0.410996
0.409888
0.40876
0.407612
0.406448
0.405267
0.404067
0.402848
0.401612
0.400359
0.39909
0.397807
0.396513
0.39521
0.393898
0.392579
0.391253
0.389922
0.388585
0.387245
0.3859
0.384553
0.383204
0.381854
0.380503
0.379153
0.377804
0.376457
0.375113
0.373772
0.372435
0.371103
0.369777
0.368456
0.367143
0.365837
0.364538
0.363248
0.361967
0.360696
0.359435
0.358184
0.356943
0.355715
0.354498
0.353293
0.3521
0.350921
0.349754
0.348602
0.347462
0.346337
0.345227
0.344131
0.343049
0.341983
0.340932
0.339896
0.338876
0.337871
0.336882
0.335909
0.334953
0.334012
0.333088
0.332181
0.33129
0.330416
0.329559
0.328718
0.327895
0.327089
0.3263
0.325528
0.324773
0.324036
0.323315
0.322612
0.321926
0.321258
0.320607
0.319973
0.319356
0.318757
0.318175
0.317611
0.317063
0.316533
0.31602
0.315524
0.315045
0.314584
0.314138
0.31371
0.313299
0.312904
0.312525
0.312163
0.311817
0.311486
0.311172
0.310873
0.31059
0.310322
0.310069
0.30983
0.309606
0.309396
0.3092
0.309018
0.30885
0.308692
0.308554
0.308415
0.308308
0.308217
0.308095
0.30809
0.307928
0.308024
0.307827
0.308011
0.307809
0.307981
0.308163
0.307837
0.308244
0.307443
0.306009
0.312368
0.288643
0.423351
0.422298
0.421213
0.420099
0.418955
0.417781
0.416578
0.415348
0.414092
0.412809
0.411499
0.410164
0.408801
0.407427
0.406065
0.40471
0.40335
0.401981
0.400596
0.399173
0.397709
0.396231
0.394744
0.393249
0.391746
0.390238
0.388724
0.387207
0.385688
0.384166
0.382645
0.381124
0.379604
0.378086
0.376572
0.375061
0.373555
0.372055
0.37056
0.369072
0.367592
0.36612
0.364657
0.363203
0.36176
0.360326
0.358904
0.357494
0.356096
0.354711
0.353338
0.35198
0.350635
0.349305
0.34799
0.346689
0.345405
0.344136
0.342883
0.341647
0.340428
0.339226
0.338041
0.336874
0.335724
0.334593
0.333479
0.332384
0.331307
0.330248
0.329208
0.328187
0.327185
0.326201
0.325236
0.32429
0.323363
0.322455
0.321565
0.320695
0.319843
0.31901
0.318195
0.3174
0.316622
0.315864
0.315124
0.314403
0.313699
0.313015
0.312348
0.3117
0.31107
0.310457
0.309863
0.309286
0.308727
0.308186
0.307662
0.307155
0.306665
0.306193
0.305737
0.305298
0.304876
0.30447
0.30408
0.303706
0.303349
0.303007
0.302681
0.30237
0.302076
0.301796
0.301533
0.301284
0.301052
0.300834
0.300635
0.300447
0.300279
0.30013
0.299981
0.29988
0.299737
0.299718
0.299563
0.299623
0.29948
0.299578
0.299531
0.299462
0.299776
0.299342
0.299102
0.298526
0.297561
0.302444
0.283456
0.429844
0.428631
0.427383
0.426099
0.424781
0.423432
0.422053
0.420645
0.419209
0.417749
0.416266
0.414763
0.413243
0.411688
0.410084
0.408441
0.406774
0.405091
0.403401
0.401728
0.400073
0.398412
0.39674
0.395061
0.393376
0.391685
0.38999
0.388292
0.386591
0.384889
0.383186
0.381484
0.379784
0.378086
0.376393
0.374704
0.373022
0.371347
0.36968
0.368021
0.366373
0.364736
0.36311
0.361497
0.359896
0.35831
0.356737
0.35518
0.353639
0.352113
0.350604
0.349112
0.347637
0.34618
0.34474
0.34332
0.341917
0.340534
0.33917
0.337825
0.3365
0.335194
0.333909
0.332643
0.331398
0.330173
0.328969
0.327785
0.326622
0.32548
0.324359
0.323259
0.322179
0.321121
0.320084
0.319067
0.318071
0.317096
0.316142
0.315208
0.314295
0.313402
0.31253
0.311677
0.310846
0.310034
0.309242
0.30847
0.307718
0.306985
0.306272
0.305578
0.304903
0.304247
0.30361
0.302992
0.302392
0.301811
0.301248
0.300703
0.300175
0.299666
0.299174
0.298699
0.298242
0.297801
0.297378
0.296972
0.296582
0.296208
0.295852
0.295511
0.295187
0.294879
0.294587
0.29431
0.29405
0.293805
0.293577
0.293363
0.293158
0.292991
0.292788
0.292681
0.292477
0.292388
0.292199
0.29217
0.291984
0.291951
0.291842
0.291683
0.291866
0.291169
0.290783
0.290311
0.289617
0.293249
0.278791
0.437441
0.436052
0.434615
0.433139
0.431622
0.430066
0.428471
0.42684
0.425177
0.423482
0.421762
0.42001