/*--------------------------------*- C++ -*----------------------------------*\
| =========                 |                                                 |
| \\      /  F ield         | OpenFOAM: The Open Source CFD Toolbox           |
|  \\    /   O peration     | Version:  5.x                                   |
|   \\  /    A nd           | Web:      www.OpenFOAM.org                      |
|    \\/     M anipulation  |                                                 |
\*---------------------------------------------------------------------------*/
/*   Windows 32 and 64 bit porting by blueCAPE: http://www.bluecape.com.pt   *\
|  Based on Windows porting (2.0.x v4) by Symscape: http://www.symscape.com   |
\*---------------------------------------------------------------------------*/
FoamFile
{
    version     2.0;
    format      ascii;
    class       surfaceScalarField;
    location    "140";
    object      phi;
}
// * * * * * * * * * * * * * * * * * * * * * * * * * * * * * * * * * * * * * //

dimensions      [0 3 -1 0 0 0 0];

internalField   nonuniform List<scalar> 
87341
(
0.365066
39.558
0.513316
39.7748
0.488268
39.9481
0.583247
39.8281
0.614892
39.8914
0.648851
39.8891
0.682994
39.8889
0.703394
39.9026
0.735357
39.8911
0.755836
39.9026
0.776065
39.9028
0.794821
39.9043
0.812565
39.9053
0.829609
39.906
0.845962
39.9067
0.861632
39.9074
0.876625
39.908
0.890999
39.9087
0.904464
39.9096
0.916997
39.9105
0.928753
39.9113
0.939873
39.9119
0.950422
39.9125
0.960458
39.913
0.970031
39.9135
0.979199
39.9139
0.98801
39.9142
0.996526
39.9145
39.9147
1.00491
0.95444
38.6035
1.34433
39.3849
1.45136
39.8411
1.60623
39.6732
1.65348
39.8441
1.8265
39.7161
1.93043
39.785
2.07016
39.7629
2.15844
39.8028
2.25003
39.811
2.33387
39.819
2.41183
39.8263
2.48375
39.8334
2.54899
39.8408
2.6081
39.8476
2.66175
39.8537
2.7106
39.8592
2.75513
39.8641
2.79622
39.8685
2.83454
39.8722
2.87057
39.8753
2.90474
39.8777
2.93732
39.8799
2.96851
39.8818
2.99843
39.8835
3.02719
39.8851
3.05489
39.8865
3.08158
39.8878
39.8885
3.10775
1.97741
36.6261
3.22599
38.1363
3.94154
39.1255
3.97566
39.6391
4.12913
39.6907
4.06316
39.782
4.09195
39.7562
4.09464
39.7602
4.13104
39.7664
4.17849
39.7635
4.22444
39.773
4.27229
39.7785
4.31931
39.7864
4.3657
39.7944
4.41153
39.8017
4.45676
39.8085
4.50135
39.8146
4.54537
39.8201
4.58925
39.8246
4.63293
39.8285
4.67624
39.8319
4.7188
39.8352
4.76054
39.8382
4.80142
39.8409
4.84146
39.8435
4.88067
39.8459
4.91908
39.8481
4.95672
39.8502
39.8523
4.99286
1.65031
34.9758
3.39596
36.3907
4.75096
37.7705
5.53756
38.8525
5.7445
39.4837
5.78469
39.7418
5.77306
39.7678
5.74882
39.7845
5.73659
39.7786
5.72021
39.7799
5.71302
39.7802
5.70828
39.7832
5.7082
39.7864
5.71519
39.7874
5.72948
39.7874
5.75079
39.7872
5.77819
39.7872
5.811
39.7873
5.84735
39.7883
5.88617
39.7897
5.92676
39.7914
5.9687
39.7932
6.01154
39.7953
6.05497
39.7975
6.09876
39.7997
6.14254
39.8021
6.18603
39.8046
6.2291
39.8071
39.8105
6.27093
1.0513
33.9245
2.37638
35.0656
3.89753
36.2494
5.27599
37.474
6.22179
38.5379
6.67154
39.2921
6.80304
39.6363
6.83494
39.7526
6.84758
39.766
6.86119
39.7663
6.87233
39.7691
6.88631
39.7692
6.90539
39.7674
6.92589
39.7669
6.94772
39.7656
6.97098
39.7639
6.99575
39.7624
7.02196
39.7611
7.05007
39.7601
7.08028
39.7595
7.11249
39.7591
7.14671
39.759
7.18276
39.7593
7.22043
39.7598
7.2595
39.7606
7.29989
39.7617
7.3415
39.763
7.38414
39.7645
39.7655
7.42921
0.824417
33.1001
1.80626
34.0837
2.94212
35.1135
4.23249
36.1836
5.50896
37.2615
6.51968
38.2814
7.09039
39.0656
7.32644
39.5165
7.42309
39.6693
7.50196
39.6874
7.58567
39.6854
7.6594
39.6955
7.73163
39.6951
7.80353
39.695
7.87425
39.6949
7.94321
39.695
8.01045
39.6952
8.07583
39.6957
8.13984
39.6961
8.20295
39.6964
8.26522
39.6969
8.32681
39.6974
8.388
39.6981
8.44881
39.699
8.50933
39.7001
8.56977
39.7013
8.63006
39.7027
8.69025
39.7043
39.7038
8.75193
0.719028
32.3811
1.54072
33.262
2.46358
34.1906
3.49145
35.1558
4.61324
36.1397
5.77567
37.1189
6.77104
38.0702
7.42324
38.8643
7.71628
39.3763
7.84158
39.5621
7.94085
39.5861
8.04731
39.5891
8.15075
39.5917
8.25312
39.5926
8.35457
39.5934
8.45545
39.5941
8.55581
39.5948
8.6556
39.5959
8.75539
39.5963
8.85479
39.597
8.95403
39.5976
9.05312
39.5984
9.15146
39.5997
9.24942
39.6011
9.34693
39.6026
9.44352
39.6047
9.5396
39.6066
9.63492
39.609
39.6098
9.7289
0.639928
31.7411
1.3413
32.5607
2.11397
33.418
2.95974
34.31
3.87549
35.2239
4.84957
36.1449
5.86446
37.0553
6.79804
37.9307
7.4691
38.7052
7.80186
39.2293
7.9518
39.4361
8.0808
39.4601
8.21201
39.4605
8.34257
39.462
8.47342
39.4626
8.60393
39.4636
8.7343
39.4645
8.8654
39.4648
8.9957
39.466
9.12615
39.4665
9.25653
39.4673
9.3856
39.4693
9.51491
39.4704
9.64334
39.4726
9.77052
39.4754
9.8978
39.4774
10.0236
39.4808
10.1482
39.4844
39.4878
10.2702
0.578251
31.1629
1.20267
31.9363
1.87382
32.7468
2.59376
33.59
3.36174
34.456
4.17371
35.3329
5.02181
36.2072
5.89054
37.062
6.72386
37.8719
7.34637
38.6068
7.66864
39.1139
7.84086
39.2878
8.00065
39.3007
8.16458
39.2981
8.32919
39.298
8.49599
39.2968
8.66459
39.2959
8.83224
39.2972
9.00206
39.2962
9.17073
39.2979
9.33777
39.3002
9.50632
39.3007
9.6718
39.3049
9.83612
39.3083
10.001
39.3106
10.1619
39.3165
10.322
39.3207
10.4816
39.3249
39.3331
10.6363
0.547284
30.6156
1.13043
31.3531
1.74538
32.1319
2.39306
32.9424
3.07312
33.7759
3.78326
34.6227
4.51877
35.4717
5.27099
36.3098
6.02253
37.1204
6.74864
37.8807
7.30151
38.561
7.59183
38.9975
7.78849
39.104
7.97935
39.1073
8.17583
39.1015
8.37338
39.0992
8.57002
39.0992
8.77249
39.0947
8.97111
39.0976
9.17045
39.0985
9.37312
39.0975
9.56946
39.1044
9.76818
39.1062
9.96716
39.1093
10.1595
39.1183
10.3547
39.1213
10.5477
39.1277
10.7347
39.1379
39.1414
10.9263
0.52248
30.0931
1.06641
30.8092
1.63455
31.5637
2.22605
32.3509
2.83979
33.1622
3.47395
33.9886
4.12537
34.8203
4.78893
35.6462
5.45635
36.453
6.11392
37.2232
6.74215
37.9328
7.2017
38.538
7.48434
38.8214
7.73807
38.8535
7.98398
38.8556
8.22963
38.8536
8.48121
38.8476
8.72157
38.8544
8.9673
38.8519
9.21282
38.853
9.4476
38.8628
9.69053
38.8615
9.92834
38.8684
10.158
38.8797
10.3957
38.8806
10.6252
38.8917
10.8494
38.9035
11.0797
38.9076
38.9187
11.3025
0.486162
29.607
0.991493
30.3039
1.51518
31.04
2.05636
31.8097
2.6132
32.6053
3.18361
33.4182
3.76534
34.2386
4.35521
35.0563
4.94842
35.8597
5.53762
36.634
6.11171
37.3587
6.64104
38.0086
7.03174
38.4307
7.35312
38.5322
7.67399
38.5347
7.99422
38.5333
8.29638
38.5455
8.60944
38.5413
8.91293
38.5484
9.20464
38.5613
9.50814
38.5593
9.79722
38.5724
10.0793
38.5863
10.3711
38.5879
10.646
38.6056
10.9182
38.6195
11.1961
38.6257
11.4573
38.6463
38.6574
11.7186
0.466631
29.1403
0.948492
29.822
1.44494
30.5436
1.95566
31.2989
2.4795
32.0815
3.01421
32.8835
3.55706
33.6957
4.10539
34.508
4.65631
35.3088
5.2055
36.0848
5.74605
36.8181
6.26815
37.4865
6.70623
37.9926
7.09543
38.143
7.46982
38.1603
7.82706
38.1761
8.19979
38.1727
8.55637
38.1847
8.90125
38.2035
9.25845
38.2041
9.59486
38.2228
9.92567
38.2416
10.2664
38.2456
10.5835
38.2708
10.9002
38.2889
11.2215
38.2982
11.521
38.3261
11.8223
38.345
38.3568
12.123
0.467132
28.6732
0.947085
29.342
1.43894
30.0517
1.94206
30.7958
2.45612
31.5674
2.98031
32.3593
3.51271
33.1633
4.05038
33.9703
4.59007
34.7691
5.12822
35.5466
5.65977
36.2866
6.17866
36.9676
6.65474
37.5165
7.07921
37.7185
7.48072
37.7588
7.89719
37.7596
8.29236
37.7776
8.6753
37.8018
9.07657
37.8022
9.45233
37.8283
9.82085
37.8543
10.2044
37.858
10.557
37.893
10.9116
37.9162
11.2752
37.9253
11.6104
37.963
11.948
37.9885
12.289
38.004
38.0406
12.6051
0.48018
28.193
0.971938
28.8503
1.4744
29.5493
1.9865
30.2837
2.50723
31.0467
3.03591
31.8306
3.57193
32.6273
4.11382
33.4284
4.65888
34.2241
5.2039
35.0016
5.74553
35.745
6.27934
36.4338
6.7837
37.0122
7.22714
37.275
7.6824
37.3035
8.11471
37.3273
8.53557
37.3567
8.9798
37.3575
9.38484
37.3972
9.7851
37.4281
10.209
37.4305
10.5921
37.4749
10.9814
37.5037
11.3805
37.5171
11.7435
37.5623
12.1108
37.5957
12.4855
37.6137
12.8279
37.6616
37.6905
13.1781
0.500508
27.6925
1.01218
28.3386
1.53398
29.0275
2.06479
29.7529
2.60342
30.5081
3.1486
31.2854
3.69924
32.0767
4.25452
32.8732
4.81319
33.6654
5.37241
34.4424
5.92778
35.1896
6.47186
35.8898
6.97905
36.505
7.48785
36.7662
7.95962
36.8318
8.41217
36.8748
8.89049
36.8784
9.32658
36.9215
9.765
36.9588
10.2299
36.9632
10.6433
37.017
11.059
37.0592
11.487
37.0757
11.8783
37.1258
12.2741
37.1666
12.6824
37.1874
13.0505
37.2456
13.42
37.2921
37.3153
13.7952
0.52702
27.1655
1.06512
27.8005
1.61313
28.4795
2.16975
29.1963
2.73355
29.9443
3.30304
30.7159
3.87654
31.5032
4.45224
32.2975
5.02846
33.0892
5.60318
33.8676
6.17358
34.6192
6.73868
35.3247
7.30885
35.9348
7.82267
36.2524
8.30223
36.3522
8.82151
36.3555
9.29816
36.4017
9.76869
36.4509
10.2644
36.463
10.7079
36.5198
11.1492
36.5757
11.6218
36.5866
12.0565
36.6409
12.4787
36.7036
12.9175
36.7278
13.3161
36.7888
13.7076
36.8542
14.1247
36.875
36.938
14.502
0.558201
26.6073
1.1279
27.2308
1.70764
27.8997
2.29593
28.608
2.89122
29.349
3.49193
30.1152
4.09642
30.8987
4.70311
31.6908
5.31057
32.4817
5.91801
33.2602
6.52465
34.0126
7.12768
34.7216
7.7002
35.3623
8.21523
35.7374
8.77606
35.7914
9.29607
35.8355
9.78931
35.9085
10.316
35.9242
10.803
35.9761
11.2712
36.0516
11.7847
36.0621
12.2529
36.1185
12.6837
36.2101
13.1513
36.2361
13.587
36.292
13.9995
36.3763
14.4529
36.4007
14.8511
36.4768
36.5619
15.2272
0.594417
26.0129
1.20082
26.6244
1.81779
27.2828
2.44374
27.9821
3.07705
28.7157
3.71604
29.4762
4.35894
30.2558
5.0038
31.0459
5.64831
31.8372
6.28927
32.6193
6.92162
33.3802
7.53615
34.1071
8.12082
34.7776
8.74027
35.1179
9.31283
35.2188
9.81804
35.3303
10.3708
35.3557
10.9103
35.3847
11.4006
35.4858
11.9487
35.5035
12.4487
35.5622
12.8903
35.6768
13.3981
35.7023
13.8857
35.7485
14.3165
35.8613
14.7943
35.8984
15.216
35.9791
15.6146
36.0782
36.1141
16.0624
0.632316
25.3806
1.27735
25.9794
1.93339
26.6267
2.59863
27.3168
3.27115
28.0431
3.94889
28.7985
4.62962
29.5751
5.31088
30.3646
5.98998
31.1581
6.66419
31.945
7.33187
32.7125
7.99691
33.442
8.67952
34.095
9.30264
34.4948
9.81473
34.7067
10.4112
34.7338
11.0253
34.7416
11.5364
34.8737
12.109
34.9131
12.6404
34.9722
13.1157
35.0869
13.6755
35.117
14.2002
35.1776
14.6551
35.2936
15.1566
35.3598
15.6123
35.4428
16.0516
35.5398
16.5222
35.6077
35.6995
16.9368
0.671686
24.7089
1.35693
25.2941
2.05387
25.9298
2.76059
26.6101
3.47516
27.3286
4.19561
28.078
4.91998
28.8507
5.6464
29.6382
6.37328
30.4312
7.09936
31.219
7.82355
31.9884
8.5403
32.7253
9.21256
33.4227
9.77412
33.9333
10.4422
34.0387
11.0999
34.076
11.6332
34.2083
12.2288
34.2781
12.7995
34.3424
13.3408
34.4309
13.9356
34.4921
14.4563
34.5963
14.9538
34.68
15.4638
34.7837
15.9442
34.8794
16.4316
34.9553
16.9161
35.0553
17.3642
35.1596
35.2648
17.7988
0.712884
23.996
1.44004
24.567
2.17975
25.1901
2.93006
25.8598
3.68895
26.5697
4.45429
27.3127
5.22377
28.0812
5.99478
28.8672
6.76406
29.662
7.52695
30.4561
8.27575
31.2396
8.99825
32.0028
9.68238
32.7386
10.4336
33.1821
11.1014
33.3709
11.6898
33.4876
12.3039
33.5942
12.9093
33.6727
13.5244
33.7273
14.1238
33.8314
14.6653
33.9506
15.2198
34.0418
15.7397
34.1601
16.2679
34.2555
16.823
34.3243
17.3247
34.4536
17.789
34.591
18.2591
34.6896
34.8168
18.7071
0.75228
23.2437
1.51974
23.7995
2.30031
24.4095
3.09179
25.0683
3.89187
25.7696
4.69802
26.5065
5.50754
27.2717
6.31744
28.0573
7.12454
28.8549
7.92587
29.6547
8.72023
30.4452
9.51295
31.2101
10.3224
31.9291
11.0348
32.4697
11.6902
32.7155
12.3147
32.863
12.9683
32.9407
13.6598
32.9811
14.2692
33.1179
14.8385
33.2621
15.4411
33.348
15.9948
33.4881
16.5866
33.5683
17.1634
33.6787
17.6591
33.8286
18.1529
33.9597
18.6598
34.084
19.1255
34.2239
34.3596
19.5827
0.791341
22.4524
1.59871
22.9921
2.42004
23.5882
3.25316
24.2352
4.09584
24.9269
4.94575
25.6566
5.80055
26.4169
6.6579
27.2
7.51565
27.9971
8.37167
28.7987
9.22307
29.5938
10.0621
30.371
10.8643
31.127
11.6087
31.7253
12.2768
32.0474
12.9798
32.16
13.7237
32.1968
14.3199
32.3849
14.9291
32.5088
15.5861
32.6051
16.2116
32.7226
16.8435
32.8562
17.3956
33.0162
17.9145
33.1598
18.4604
33.2827
18.9772
33.4429
19.5009
33.5603
20.0107
33.7142
33.8866
20.4837
0.829472
21.6229
1.67567
22.1459
2.53673
22.7271
3.41053
23.3614
4.29479
24.0427
5.1871
24.7643
6.08483
25.5192
6.9851
26.2997
7.88444
27.0978
8.77851
27.9047
9.6614
28.7109
10.526
29.5064
11.3585
30.2945
12.1189
30.9649
12.8929
31.2734
13.6725
31.3803
14.2977
31.5716
14.9973
31.6853
15.677
31.8291
16.3299
31.9522
16.9666
32.0859
17.5533
32.2695
18.1635
32.406
18.753
32.5703
19.2803
32.7554
19.8535
32.8697
20.3737
33.0402
20.8601
33.2277
33.4023
21.3443
0.863558
20.7593
1.74473
21.2648
2.64139
21.8305
3.55134
22.4514
4.47216
23.1218
5.40122
23.8352
6.33564
24.5848
7.27221
25.3631
8.20745
26.1625
9.13745
26.9746
10.0579
27.7904
10.9629
28.6014
11.8506
29.4068
12.7543
30.0612
13.539
30.4886
14.2387
30.6807
14.9772
30.8331
15.6321
31.0304
16.3397
31.1215
17.0293
31.2626
17.6749
31.4402
18.3297
31.6147
18.9003
31.8354
19.5038
31.9668
20.1058
32.1534
20.6503
32.3252
21.1771
32.5134
21.6605
32.7444
32.9787
22.084
0.894882
19.8645
1.80795
20.3517
2.73733
20.9011
3.68088
21.5079
4.63631
22.1664
5.6011
22.8705
6.57254
23.6133
7.54772
24.3879
8.52352
25.1867
9.49661
26.0016
10.4637
26.8234
11.4245
27.6406
12.3808
28.4505
13.2296
29.2124
14.0632
29.6551
14.8068
29.937
15.5222
30.1177
16.308
30.2446
17.0114
30.4181
17.6949
30.5791
18.3423
30.7928
18.9862
30.9708
19.6758
31.1458
20.2605
31.382
20.8214
31.5925
21.3806
31.766
21.8807
32.0132
22.4429
32.1823
32.4648
22.9568
0.922063
18.9424
1.86297
19.4108
2.82093
19.9431
3.79396
20.5348
4.77987
21.1805
5.7762
21.8741
6.78028
22.6093
7.78921
23.379
8.79989
24.1761
9.80896
24.9925
10.8126
25.8197
11.8034
26.6498
12.7726
27.4814
13.738
28.2469
14.5294
28.8637
15.3208
29.1456
16.1358
29.3028
16.8461
29.5343
17.6164
29.6478
18.301
29.8945
18.9894
30.1044
19.6583
30.3019
20.2737
30.5305
20.9598
30.6959
21.5645
30.9878
22.0798
31.2507
22.6285
31.4645
23.1245
31.6862
31.9454
23.6439
0.944543
17.9978
1.90841
18.4469
2.89006
18.9615
3.88772
19.5372
4.89935
20.1689
5.92264
20.8508
6.95505
21.5768
7.99373
22.3403
9.03554
23.1343
10.0768
23.9512
11.1132
24.7833
12.1406
25.6224
13.1497
26.4724
14.0601
27.3365
14.9907
27.9331
15.8268
28.3095
16.6514
28.4782
17.4679
28.7178
18.1079
29.0078
18.8234
29.179
19.5519
29.3758
20.2826
29.5713
20.962
29.8511
21.5151
30.1428
22.1337
30.3692
22.7456
30.6388
23.3099
30.9002
23.8105
31.1857
31.4718
24.2841
0.961396
17.0365
1.94251
17.4658
2.94196
17.962
3.95818
18.521
4.98926
19.1378
6.03296
19.8071
7.08675
20.5231
8.14769
21.2794
9.21245
22.0695
10.2771
22.8866
11.3369
23.7235
12.3856
24.5738
13.4216
25.4363
14.4772
26.2808
15.3947
27.0156
16.2666
27.4376
17.0107
27.7341
17.7929
27.9356
18.6606
28.1401
19.392
28.4477
20.0761
28.6917
20.7537
28.8937
21.4482
29.1566
22.1742
29.4167
22.7588
29.7846
23.2737
30.1239
23.8388
30.3351
24.3849
30.6396
30.9617
24.895
0.972652
16.0638
1.96524
16.4732
2.97668
16.9506
4.00568
17.492
5.05057
18.0929
6.10937
18.7483
7.17978
19.4527
8.2592
20.2
9.34469
20.984
10.433
21.7983
11.5207
22.6358
12.6048
23.4896
13.6772
24.3639
14.6903
25.2677
15.7018
26.0042
16.6279
26.5115
17.5068
26.8552
18.2975
27.1449
18.9617
27.4758
19.7886
27.6208
20.5822
27.8982
21.3005
28.1754
21.9395
28.5175
22.5092
28.8471
23.2401
29.0537
23.908
29.456
24.3903
29.8529
24.9138
30.1161
30.4893
25.3862
0.978012
15.0858
1.97606
15.4752
2.99337
15.9333
4.02898
16.4564
5.08151
17.0404
6.14923
17.6806
7.2301
18.3718
8.32175
19.1083
9.42148
19.8843
10.5261
20.6936
11.6317
21.5303
12.7335
22.3879
13.8387
23.2586
14.9585
24.1479
15.9305
25.0322
16.8389
25.6031
17.6709
26.0232
18.5884
26.2274
19.5082
26.556
20.1617
26.9672
20.8999
27.1599
21.6152
27.4601
22.3934
27.7393
23.0881
28.1524
23.5871
28.5547
24.2964
28.7467
24.9307
29.2186
25.4116
29.6351
30.0092
25.8917
0.977414
14.1084
1.97479
14.4778
2.99174
14.9163
4.02763
15.4205
5.08143
15.9866
6.15173
16.6103
7.23682
17.2867
8.33472
18.0104
9.44317
18.7758
10.5598
19.577
11.6818
20.4082
12.8063
21.2634
13.9204
22.1445
15.0114
23.0569
16.1088
23.9348
17.0365
24.6754
17.9496
25.1102
18.7201
25.4568
19.5925
25.6836
20.5259
26.0339
21.2251
26.4607
21.9379
26.7474
22.6115
27.0656
23.4258
27.3381
24.1455
27.835
24.5949
28.2973
25.2622
28.5513
25.8483
29.0491
29.5773
26.2802
0.970835
13.1375
1.9614
13.4872
2.97166
13.9061
4.00132
14.3908
5.04965
14.9383
6.11554
15.5444
7.19755
16.2047
8.29392
16.914
9.40252
17.6672
10.5207
18.4589
11.6453
19.2836
12.7715
20.1371
13.9002
21.0158
15.0178
21.9393
16.0654
22.8873
17.1216
23.6192
18.0708
24.161
19.008
24.5197
19.8087
24.8828
20.6066
25.236
21.4994
25.5679
22.2438
26.0029
22.953
26.3565
23.5718
26.7193
24.3585
27.0483
25.0562
27.5996
25.4972
28.1103
26.1307
28.4155
29.0264
26.6817
0.958545
12.179
1.93643
12.5093
2.93395
12.9085
3.9512
13.3736
4.98775
13.9017
6.04284
14.4893
7.11535
15.1322
8.2039
15.8255
9.30672
16.5644
10.4217
17.3439
11.5463
18.1591
12.678
19.0054
13.8116
19.8822
14.9709
20.78
16.1385
21.7197
17.1484
22.6092
18.1139
23.1955
18.971
23.6626
19.8877
23.9661
20.7675
24.3563
21.5408
24.7947
22.3913
25.1524
23.1569
25.5908
23.8877
25.9886
24.496
26.4399
25.2261
26.8696
25.8811
27.4553
26.2829
28.0137
28.3987
26.9106
0.940904
11.2381
1.90059
11.5496
2.87974
11.9294
3.87877
12.3745
4.89761
12.8829
5.93585
13.4511
6.99277
14.0752
8.06739
14.7509
9.15845
15.4734
10.2644
16.238
11.3834
17.04
12.5133
17.8755
13.6543
18.7412
14.7819
19.6524
15.9047
20.5969
17.0321
21.4818
18.0303
22.1973
19.0169
22.6759
19.8404
23.1426
20.7624
23.4343
21.6928
23.8643
22.4602
24.3851
23.2615
24.7894
23.9792
25.2709
24.7085
25.7106
25.3018
26.2762
25.9825
26.7746
26.6051
27.3912
28.0087
26.9951
0.918307
10.3198
1.85471
10.6132
2.81022
10.9739
3.7856
11.3992
4.78111
11.8874
5.79666
12.4355
6.83194
13.04
7.88636
13.6964
8.95908
14.4006
10.0489
15.1481
11.1543
15.9346
12.2734
16.7565
13.4026
17.612
14.5637
18.4913
15.7225
19.4381
16.822
20.3823
17.8961
21.1233
18.8641
21.7079
19.854
22.1527
20.641
22.6472
21.5443
22.961
22.4794
23.45
23.2626
24.0062
24.0478
24.4857
24.7402
25.0183
25.4877
25.5286
26.0701
26.1923
26.6862
26.7751
27.4871
27.2077
0.891205
9.42858
1.79968
9.70476
2.72679
10.0468
3.67357
10.4524
4.6406
10.9203
5.62814
11.448
6.63625
12.0319
7.66478
12.6679
8.7134
13.352
9.78158
14.0799
10.8686
14.8475
11.9738
15.6513
13.096
16.4898
14.2169
17.3705
15.3988
18.2562
16.5543
19.2268
17.5975
20.0801
18.6136
20.6918
19.5743
21.192
20.6066
21.6149
21.418
22.1495
22.329
22.5391
23.2458
23.0894
24.0131
23.7185
24.7641
24.2672
25.4207
24.872
26.1467
25.4663
26.7365
26.1853
26.9405
27.2831
0.86007
8.56851
1.73648
8.82835
2.63091
9.15234
3.54468
9.53861
4.47862
9.98639
5.43332
10.4933
6.40921
11.056
7.40655
11.6706
8.42545
12.3331
9.46582
13.0396
10.5275
13.7859
11.6105
14.5683
12.7134
15.3869
13.8404
16.2434
14.9446
17.1519
16.1379
18.0335
17.2893
18.9287
18.324
19.6571
19.3266
20.1894
20.2839
20.6576
21.3172
21.1162
22.1303
21.726
23.0527
22.1671
23.944
22.8272
24.7083
23.5029
25.4517
24.1286
26.0547
24.8634
26.7426
25.4973
26.3981
27.2849
0.82538
7.74313
1.66609
7.98764
2.52412
8.29432
3.40101
8.66172
4.29785
9.08955
5.21551
9.57564
6.15478
10.1167
7.1163
10.709
8.10062
11.3488
9.10815
12.032
10.1392
12.7548
11.1942
13.5134
12.2765
14.3046
13.382
15.138
14.5217
16.0121
15.627
16.9283
16.8056
17.7502
17.9489
18.5137
18.9816
19.1567
19.972
19.6672
20.9267
20.1614
21.9619
20.6908
22.7975
21.3315
23.7551
21.8696
24.6086
22.6494
25.3469
23.3902
26.0652
24.1451
26.5847
24.9779
25.7329
27.25
0.787603
6.95553
1.58948
7.18577
2.40793
7.47586
3.24469
7.82496
4.10103
8.23321
4.97811
8.69856
5.87703
9.21778
6.79886
9.78721
7.74458
10.4031
8.71511
11.0615
9.71126
11.7586
10.734
12.4906
11.7839
13.2547
12.8701
14.0518
13.9791
14.9032
15.1452
15.7622
16.2491
16.6463
17.396
17.3668
18.54
18.0127
19.5969
18.6103
20.6185
19.1398
21.5998
19.7096
22.6026
20.3286
23.4376
21.0346
24.3881
21.6988
25.1765
22.6018
25.9256
23.3961
26.5473
24.3561
25.2725
27.0077
0.747189
6.20834
1.5076
6.42535
2.28388
6.69959
3.07783
7.03101
3.8909
7.42015
4.72447
7.86499
5.57999
8.36226
6.45892
8.90828
7.36273
9.49926
8.29284
10.1314
9.25056
10.8009
10.237
11.5042
11.2557
12.2359
12.3025
13.005
13.4019
13.8038
14.5146
14.6495
15.7213
15.4396
16.841
16.2471
17.9865
16.8672
19.1145
17.4823
20.1646
18.0897
21.2215
18.6526
22.2264
19.3238
23.2112
20.0497
24.0717
20.8384
24.9598
21.7138
25.7107
22.6451
26.3927
23.6742
24.7354
26.9298
0.704582
5.50375
1.42142
5.70851
2.15347
5.96754
2.90256
6.28192
3.67018
6.65252
4.45795
7.07722
5.26763
7.55258
6.10111
8.0748
6.96034
8.64003
7.84728
9.24446
8.76381
9.88439
9.71172
10.5562
10.691
11.2567
11.7127
11.9833
12.7718
12.7448
13.899
13.5222
15.0212
14.3174
16.2572
15.011
17.3812
15.7433
18.5683
16.2951
19.6938
16.9642
20.7389
17.6075
21.8239
18.2388
22.8046
19.069
23.7916
19.8513
24.6546
20.8508
25.4855
21.8141
26.2063
22.9534
24.1736
26.768
0.660257
4.8435
1.33192
5.03684
2.01829
5.28117
2.72104
5.57918
3.44164
5.93192
4.18192
6.33694
4.94398
6.79052
5.73012
7.28866
6.54279
7.82736
7.38448
8.40276
8.25768
9.0112
9.16471
9.64921
10.1082
10.3132
11.088
11.0035
12.1287
11.7041
13.214
12.4369
14.3673
13.1641
15.5319
13.8465
16.7808
14.4944
17.916
15.1599
19.1427
15.7376
20.2652
16.485
21.3493
17.1547
22.4286
17.9898
23.3696
18.9103
24.3443
19.8762
25.1232
21.0352
25.9164
22.1602
23.5351
26.555
0.614798
4.2287
1.24011
4.41153
1.87993
4.64135
2.53547
4.92365
3.20809
5.25929
3.89982
5.64521
4.61315
6.07719
5.35082
6.55099
6.11578
7.0624
6.91108
7.60746
7.73979
8.18249
8.60543
8.78357
9.50978
9.4088
10.4635
10.0497
11.4587
10.7089
12.5433
11.3523
13.6704
12.037
14.8434
12.6735
16.057
13.2807
17.2936
13.9234
18.4744
14.5568
19.7138
15.2456
20.8037
16.0649
21.9538
16.8396
22.986
17.8782
23.935
18.9272
24.8431
20.127
25.543
21.4603
22.8287
26.2493
0.568571
3.66013
1.14692
3.83318
1.74005
4.04821
2.3481
4.3156
2.97234
4.63505
3.6151
5.00245
4.27931
5.41297
4.96822
5.86208
5.68529
6.34533
6.43422
6.85854
7.21855
7.39816
8.04258
7.95955
8.91263
8.53875
9.82818
9.13415
10.8156
9.72148
11.8402
10.3278
12.9836
10.8936
14.1338
11.5233
15.3531
12.0614
16.5854
12.6911
17.8073
13.3349
19.0507
14.0022
20.2593
14.8563
21.3799
15.719
22.4988
16.7593
23.5127
17.9132
24.4433
19.1965
25.2588
20.6448
22.2162
25.8714
0.521638
3.13849
1.05333
3.30149
1.6004
3.50114
2.16122
3.75478
2.73723
4.05904
3.33117
4.40851
3.94665
4.79749
4.5874
5.22133
5.25743
5.6753
5.9609
6.15507
6.70287
6.6562
7.48708
7.17534
8.3186
7.70723
9.21549
8.23727
10.1582
8.77876
11.1907
9.29521
12.2566
9.82772
13.4517
10.3282
14.6182
10.8949
15.8871
11.4221
17.0999
12.1221
18.3641
12.738
19.5822
13.6382
20.8144
14.4868
21.9677
15.606
23.0347
16.8462
24.0258
18.2054
24.8637
19.8069
21.5127
25.5672
0.474355
2.66414
0.960579
2.81527
1.46286
2.99886
1.97711
3.24054
2.50552
3.53063
3.05141
3.86262
3.61936
4.22954
4.21355
4.62714
4.83838
5.05048
5.499
5.49444
6.20061
5.95459
6.95005
6.42589
7.74609
6.91119
8.61294
7.37041
9.54265
7.84906
10.5346
8.30326
11.6074
8.75489
12.7299
9.20574
13.9182
9.70663
15.1457
10.1946
16.3989
10.8689
17.6372
11.4997
18.941
12.3344
20.1155
13.3122
21.378
14.3435
22.5077
15.7165
23.5608
17.1523
24.4797
18.888
20.8066
25.1858
0.426972
2.23716
0.870119
2.37212
1.32946
2.53952
1.79795
2.77205
2.27987
3.04871
2.77907
3.36343
3.30168
3.70693
3.85195
4.07687
4.4348
4.46763
5.0559
4.87334
5.72418
5.28631
6.43558
5.71449
7.20882
6.13795
8.05379
6.52545
8.94048
6.96237
9.93222
7.31152
10.9617
7.72536
12.0797
8.08782
13.2253
8.56101
14.4134
9.00643
15.662
9.62037
16.8909
10.2707
18.1955
11.0298
19.4768
12.031
20.6917
13.1286
21.932
14.4762
23.0458
16.0386
24.0358
17.8979
20.0216
24.8209
0.379924
1.85724
0.783757
1.96829
1.20211
2.12116
1.62553
2.34863
2.06264
2.6116
2.51725
2.90881
2.99796
3.22622
3.50827
3.56656
4.05326
3.92264
4.64112
4.28548
5.28149
4.64593
5.96139
5.03459
6.70991
5.38944
7.54074
5.69462
8.40756
6.09555
9.34928
6.36981
10.3889
6.68578
11.4098
7.06692
12.5727
7.39811
13.6765
7.90255
14.9126
8.38429
16.1241
9.05926
17.4075
9.74638
18.7427
10.6958
20.0586
11.8128
21.3167
13.218
22.5142
14.8411
23.5748
16.8373
19.1788
24.4176
0.334279
1.52296
0.703495
1.59907
1.08223
1.74243
1.46086
1.97
1.85583
2.21662
2.26884
2.4958
2.71275
2.78231
3.18816
3.09115
3.70156
3.40924
4.26219
3.72486
4.88459
4.02352
5.52768
4.3915
6.27852
4.6386
7.06566
4.90748
7.92692
5.23429
8.83997
5.45676
9.80126
5.72449
10.8256
6.04259
11.8663
6.35739
12.9862
6.7827
14.1159
7.25452
15.3417
7.83347
16.5842
8.50394
17.9078
9.37223
19.2931
10.4274
20.6555
11.8557
21.9397
13.5569
23.0961
15.6808
18.2577
24.0173
0.292202
1.23076
0.630696
1.26058
0.96993
1.4032
1.30379
1.63613
1.66115
1.85927
2.03628
2.12067
2.45089
2.36771
2.89736
2.64468
3.38581
2.92079
3.93038
3.18029
4.52972
3.42419
5.15863
3.76258
5.88931
3.90792
6.66041
4.13638
7.47234
4.42237
8.34868
4.58041
9.25561
4.81756
10.2172
5.08102
11.2198
5.3548
12.242
5.76045
13.3745
6.12199
14.5059
6.7021
15.7761
7.23371
17.0439
8.10445
18.4598
9.01151
19.8935
10.4219
21.329
12.1215
22.5939
14.4159
17.2083
23.6433
0.256852
0.973907
0.564135
0.953297
0.863189
1.10414
1.15329
1.34603
1.48048
1.53208
1.82145
1.7797
2.21792
1.97124
2.64138
2.22122
3.10997
2.4522
3.64662
2.64364
4.22339
2.84742
4.8286
3.15736
5.56107
3.17545
6.2565
3.44095
7.07644
3.60243
7.84706
3.80979
8.73167
3.93295
9.61559
4.19711
10.5626
4.40776
11.5402
4.78291
12.5914
5.07075
13.7116
5.58186
14.9055
6.03985
16.1914
6.8186
17.5832
7.6197
19.0546
8.95043
20.6406
10.5356
22.0669
12.9895
15.9496
23.3257
0.230581
0.743325
0.500529
0.683349
0.757918
0.846754
1.00835
1.0956
1.31248
1.22794
1.62729
1.46489
2.01716
1.58137
2.41776
1.82061
2.88288
1.98708
3.39276
2.13376
3.96113
2.27905
4.53663
2.58186
5.23483
2.47725
5.89006
2.78572
6.64867
2.84381
7.37732
3.08115
8.18629
3.12398
9.02261
3.36078
9.90629
3.52408
10.8335
3.85572
11.8425
4.0617
12.8844
4.54
14.0818
4.84246
15.2673
5.63311
16.7305
6.15651
18.1278
7.5531
19.9382
8.72513
21.4408
11.4869
14.3821
23.0083
0.210261
0.533064
0.43154
0.46207
0.646928
0.631365
0.868217
0.874313
1.15925
0.936907
1.45093
1.17321
1.84776
1.18454
2.21797
1.45041
2.68395
1.5211
3.1636
1.65411
3.70886
1.73379
4.26686
2.02387
4.88977
1.85434
5.51249
2.163
6.21283
2.14347
6.88669
2.40729
7.65546
2.35521
8.40305
2.61319
9.27653
2.6506
10.1135
3.01872
11.1182
3.05706
12.0761
3.58207
13.2588
3.65978
14.405
4.48692
15.851
4.71048
17.3133
6.09079
19.1641
6.87433
20.9306
9.72047
12.5291
22.7835
0.181795
0.351269
0.344622
0.299243
0.535975
0.440012
0.740136
0.670152
1.0149
0.662141
1.30766
0.880455
1.67846
0.813742
2.04472
1.08414
2.48273
1.08309
2.93817
1.19867
3.42908
1.24288
3.9888
1.46415
4.52653
1.3166
5.14195
1.54758
5.75697
1.52845
6.45531
1.70895
7.12973
1.68079
7.88895
1.85398
8.65232
1.88722
9.52254
2.1485
10.3916
2.18796
11.409
2.56469
12.4286
2.64017
13.6759
3.23962
14.9485
3.43787
16.5852
4.45415
18.327
5.13255
20.696
7.35149
10.1122
23.1129
0.141451
0.209819
0.265108
0.175586
0.438042
0.267078
0.642003
0.466191
0.878629
0.425515
1.20499
0.554096
1.51301
0.505722
1.89472
0.702434
2.28902
0.68879
2.72168
0.766005
3.17008
0.794488
3.72382
0.910413
4.20382
0.836602
4.78865
0.962758
5.34949
0.96761
5.99297
1.06547
6.6072
1.06655
7.2952
1.16597
7.9845
1.19793
8.77824
1.35476
9.57395
1.39225
10.5153
1.62335
11.4689
1.6866
12.6453
2.06314
13.8729
2.21031
15.4624
2.86465
17.2589
3.33606
20.032
4.57836
6.99976
23.1445
0.112174
0.0976448
0.209762
0.0779977
0.349992
0.126848
0.582553
0.23363
0.802548
0.20552
1.10253
0.25411
1.37286
0.235396
1.73629
0.339004
2.10395
0.321125
2.50819
0.361772
2.92806
0.374614
3.41081
0.427667
3.85452
0.392889
4.36095
0.456332
4.87349
0.455069
5.43422
0.504732
5.99779
0.502986
6.60955
0.554213
7.24216
0.565324
7.9514
0.645522
8.68758
0.656061
9.53441
0.776529
10.4275
0.793487
11.4979
0.992782
12.6691
1.03908
14.1444
1.38935
15.8809
1.59952
18.6815
1.77782
3.80085
21.8804
0.0976448
0.175642
0.302491
0.536121
0.741641
0.995752
1.23115
1.57015
1.89128
2.25305
2.62766
3.05533
3.44822
3.90455
4.35962
4.86435
5.36734
5.92155
6.48687
7.1324
7.78846
8.56499
9.35847
10.3513
11.3903
12.7797
14.3792
16.157
19.9579
1.01596
54.1292
1.02669
54.1295
1.0373
54.1296
1.04789
54.1297
1.0585
54.1296
1.06918
54.1296
1.07996
54.1295
1.09085
54.1293
1.10185
54.1292
1.11294
54.1291
1.1241
54.1291
1.13529
54.129
1.14647
54.1291
1.15759
54.1291
1.16859
54.1292
1.17945
54.1294
1.19018
54.1295
1.20075
54.1297
1.21112
54.1299
1.22125
54.1301
1.2311
54.1304
1.24061
54.1307
1.24976
54.1311
1.2585
54.1315
1.26679
54.1319
1.2746
54.1324
1.2819
54.1329
1.28864
54.1335
1.29481
54.1341
1.30038
54.1347
1.30531
54.1353
1.30959
54.136
1.31321
54.1366
1.31614
54.1373
1.31835
54.138
1.31983
54.1387
1.32061
54.1395
1.3207
54.1401
1.32014
54.1408
1.31897
54.1414
1.31722
54.142
1.3149
54.1426
1.31205
54.1431
1.30869
54.1436
1.30484
54.1441
1.30053
54.1445
1.29577
54.145
1.29059
54.1454
1.285
54.1458
1.27902
54.1462
1.27265
54.1466
1.26591
54.147
1.2588
54.1473
1.25133
54.1477
1.24349
54.1481
1.23527
54.1485
1.22667
54.1488
1.21768
54.1492
1.20827
54.1496
1.1984
54.1501
1.18802
54.1506
1.17714
54.1511
1.16578
54.1516
1.15398
54.152
1.14173
54.1525
1.12907
54.1529
1.11601
54.1533
1.10258
54.1537
1.08879
54.154
1.07466
54.1544
1.06018
54.1547
1.04538
54.155
1.03026
54.1554
1.01483
54.1557
0.999106
54.156
0.983076
54.1563
0.966754
54.1566
0.950141
54.1568
0.933256
54.1571
0.916106
54.1574
0.898728
54.1576
0.881138
54.1578
0.863359
54.158
0.845401
54.1582
0.827288
54.1583
0.809031
54.1585
0.790643
54.1586
0.772122
54.1588
0.753631
54.1587
0.735209
54.1587
0.716813
54.1586
0.698388
54.1587
0.679892
54.1587
0.661278
54.1588
0.642513
54.159
0.623562
54.1592
0.604405
54.1594
0.585018
54.1596
0.565394
54.1599
0.545517
54.1601
0.525388
54.1604
0.505003
54.1606
0.484337
54.1609
0.463389
54.1612
0.442141
54.1615
0.420588
54.1618
0.398725
54.1621
0.37657
54.1624
0.354144
54.1627
0.33148
54.1629
0.308622
54.1631
0.285915
54.1629
0.263769
54.1624
0.242424
54.1616
0.221989
54.1607
0.202543
54.1597
0.184097
54.1587
0.166481
54.1579
0.149067
54.1576
0.13149
54.1578