/*--------------------------------*- C++ -*----------------------------------*\
| =========                 |                                                 |
| \\      /  F ield         | OpenFOAM: The Open Source CFD Toolbox           |
|  \\    /   O peration     | Version:  5.x                                   |
|   \\  /    A nd           | Web:      www.OpenFOAM.org                      |
|    \\/     M anipulation  |                                                 |
\*---------------------------------------------------------------------------*/
/*   Windows 32 and 64 bit porting by blueCAPE: http://www.bluecape.com.pt   *\
|  Based on Windows porting (2.0.x v4) by Symscape: http://www.symscape.com   |
\*---------------------------------------------------------------------------*/
FoamFile
{
    version     2.0;
    format      ascii;
    class       volVectorField;
    location    "140";
    object      U;
}
// * * * * * * * * * * * * * * * * * * * * * * * * * * * * * * * * * * * * * //

dimensions      [0 1 -1 0 0 0 0];

internalField   nonuniform List<vector> 
43900
(
(1.16135 -0.000661548 -1.96374e-027)
(1.16738 0.00209864 -5.26267e-027)
(1.16978 0.00037133 1.45316e-030)
(1.16865 0.00177137 2.71686e-030)
(1.16992 0.000862444 3.7677e-030)
(1.17017 0.00177339 3.7287e-030)
(1.17029 0.00127626 7.02802e-027)
(1.16979 0.00161589 -1.40383e-026)
(1.16989 0.0016513 9.55603e-030)
(1.1696 0.00157023 -1.40071e-026)
(1.16963 0.00176709 1.40289e-026)
(1.16969 0.00174219 1.13512e-029)
(1.16976 0.00178683 -1.39734e-026)
(1.16982 0.00183376 2.43482e-029)
(1.16986 0.00187005 2.49413e-029)
(1.1699 0.00190552 2.55084e-029)
(1.16994 0.00194018 -2.78437e-026)
(1.16996 0.00197321 5.30512e-029)
(1.16997 0.00200449 2.78702e-026)
(1.16997 0.00203328 2.7406e-029)
(1.16998 0.00206067 2.78017e-029)
(1.16998 0.00208676 2.81729e-029)
(1.16999 0.00211094 2.85247e-029)
(1.16999 0.00213395 2.88601e-029)
(1.17 0.0021558 2.91791e-029)
(1.17 0.002177 -2.75874e-026)
(1.17 0.00219688 5.95482e-029)
(1.17 0.00221643 6.01076e-029)
(1.17001 0.00223529 1.10166e-025)
(1.15872 0.0109164 0)
(1.16572 -0.00455403 0)
(1.17105 0.00861605 0)
(1.16647 0.00011355 0)
(1.16865 0.00592914 0)
(1.16784 0.00300998 0)
(1.16841 0.00476268 0)
(1.16919 0.00486825 0)
(1.1689 0.00464667 0)
(1.16961 0.00536976 0)
(1.16965 0.00538764 0)
(1.16965 0.00552475 0)
(1.16962 0.00579557 0)
(1.16958 0.00594003 0)
(1.16955 0.0060791 0)
(1.16953 0.00621144 0)
(1.16952 0.00633152 0)
(1.16952 0.00644203 0)
(1.16955 0.0065433 0)
(1.16958 0.00663619 0)
(1.16962 0.0067235 0)
(1.16964 0.00680465 0)
(1.16966 0.00688286 0)
(1.16968 0.00695798 0)
(1.1697 0.00703 0)
(1.16972 0.00709854 0)
(1.16973 0.00716532 0)
(1.16975 0.00722963 0)
(1.16976 0.00729233 0)
(1.10339 0.0316971 0)
(1.14602 -0.017523 0)
(1.16314 0.0282249 0)
(1.16345 -0.00411971 0)
(1.16603 0.0201618 0)
(1.16436 0.00346397 0)
(1.16553 0.0143367 0)
(1.1655 0.00780074 0)
(1.16641 0.011278 0)
(1.16649 0.0100678 0)
(1.16665 0.0103206 0)
(1.1668 0.0106253 0)
(1.16695 0.0107175 0)
(1.16712 0.010805 0)
(1.16728 0.010922 0)
(1.16742 0.0110365 0)
(1.16754 0.0111473 0)
(1.16766 0.0112545 0)
(1.16773 0.0113635 0)
(1.16779 0.0114719 0)
(1.16783 0.0115792 0)
(1.16786 0.0116844 0)
(1.16789 0.0117881 0)
(1.16792 0.0118898 0)
(1.16794 0.0119905 0)
(1.16797 0.0120891 0)
(1.16799 0.0121845 0)
(1.16801 0.0122761 0)
(1.16803 0.0123675 1.93523e-027)
(1.04383 0.0199383 0)
(1.09025 -0.00704879 0)
(1.13319 0.0200283 0)
(1.1578 0.00714056 0)
(1.16387 0.0215711 0)
(1.1657 0.00933741 0)
(1.16489 0.0195891 0)
(1.16411 0.0121989 0)
(1.16426 0.016723 0)
(1.16427 0.0142694 0)
(1.16462 0.0151643 0)
(1.16495 0.015052 0)
(1.16522 0.0149529 0)
(1.16539 0.0149668 0)
(1.16553 0.0150083 0)
(1.16565 0.0150554 0)
(1.16574 0.0151195 0)
(1.16582 0.0152008 0)
(1.1659 0.0152926 0)
(1.16596 0.0153917 0)
(1.16603 0.0154955 0)
(1.16609 0.0156041 0)
(1.16616 0.0157151 0)
(1.16622 0.0158274 0)
(1.16629 0.0159394 0)
(1.16635 0.0160544 0)
(1.16641 0.0161709 0)
(1.16647 0.0162864 0)
(1.16653 0.0163973 2.05237e-027)
(1.00749 0.0101106 4.12649e-027)
(1.04371 -0.00113852 0)
(1.08128 0.0106839 0)
(1.1201 0.0122464 0)
(1.14902 0.0177706 0)
(1.16235 0.0159395 0)
(1.16449 0.0214644 0)
(1.16529 0.0166782 0)
(1.1652 0.0203517 0)
(1.16518 0.0182394 0)
(1.16513 0.0192395 0)
(1.16513 0.019053 0)
(1.16518 0.0190526 0)
(1.16523 0.0191292 0)
(1.1653 0.0191879 0)
(1.16537 0.0192473 0)
(1.16544 0.0193148 0)
(1.16551 0.0193864 0)
(1.16559 0.0194615 0)
(1.16569 0.0195438 0)
(1.16579 0.0196306 0)
(1.16589 0.0197237 0)
(1.16598 0.0198231 0)
(1.16607 0.0199286 0)
(1.16616 0.0200362 0)
(1.16625 0.020145 0)
(1.16633 0.0202572 0)
(1.16642 0.0203738 0)
(1.1665 0.0204927 -8.65534e-027)
(0.981707 0.00668887 -4.30726e-027)
(1.0123 0.000546802 0)
(1.04431 0.00739448 0)
(1.07751 0.0106571 0)
(1.11073 0.0144099 0)
(1.14098 0.01727 0)
(1.15818 0.0211572 0)
(1.16381 0.0203307 0)
(1.16449 0.0223165 0)
(1.16452 0.0212932 0)
(1.16457 0.0222075 0)
(1.16436 0.0222904 0)
(1.16427 0.0224683 0)
(1.16423 0.0226741 0)
(1.16423 0.0228802 0)
(1.16424 0.0230888 0)
(1.16427 0.0232892 0)
(1.16432 0.0234815 0)
(1.16438 0.023669 0)
(1.16445 0.0238555 0)
(1.16452 0.0240386 0)
(1.16459 0.0242188 0)
(1.16467 0.0243977 0)
(1.16474 0.0245763 0)
(1.16482 0.0247558 0)
(1.1649 0.0249328 0)
(1.16498 0.0251073 0)
(1.16506 0.0252825 0)
(1.16514 0.0254621 4.57534e-027)
(0.959092 0.00510629 0)
(0.986191 0.00129754 0)
(1.01464 0.00622033 0)
(1.04423 0.00929788 0)
(1.0743 0.0125065 0)
(1.10397 0.0159679 0)
(1.13247 0.0195919 0)
(1.15291 0.021846 0)
(1.16081 0.0241226 0)
(1.16171 0.0237375 0)
(1.16112 0.0243811 0)
(1.16127 0.024695 0)
(1.16128 0.0249605 0)
(1.16126 0.0252699 0)
(1.16124 0.0255935 0)
(1.16123 0.0259086 0)
(1.16122 0.0262177 0)
(1.16123 0.0265239 0)
(1.16123 0.0268309 0)
(1.16123 0.0271387 0)
(1.16124 0.0274436 0)
(1.16126 0.0277492 0)
(1.16129 0.0280528 0)
(1.16133 0.0283521 0)
(1.16138 0.0286549 0)
(1.16143 0.0289549 0)
(1.1615 0.0292505 0)
(1.16157 0.0295437 0)
(1.16165 0.0298356 0)
(0.939207 0.00428286 0)
(0.964011 0.00158154 0)
(0.990029 0.00553612 0)
(1.01708 0.00832117 0)
(1.04474 0.0111172 0)
(1.07251 0.0141643 0)
(1.09983 0.0174391 0)
(1.12582 0.020606 0)
(1.14746 0.0235996 0)
(1.15663 0.0250308 0)
(1.15795 0.0257545 0)
(1.15758 0.0261284 0)
(1.15758 0.0265091 0)
(1.15756 0.0269268 0)
(1.15756 0.0273617 0)
(1.15754 0.0277872 0)
(1.15753 0.0282077 0)
(1.15753 0.0286335 0)
(1.1575 0.0290598 0)
(1.15749 0.0294817 0)
(1.15748 0.0299076 0)
(1.15747 0.0303295 0)
(1.1575 0.0307476 0)
(1.15752 0.0311696 0)
(1.15755 0.0315814 0)
(1.1576 0.0319968 0)
(1.15764 0.0324128 0)
(1.1577 0.0328147 0)
(1.15778 0.0332167 0)
(0.921794 0.00322529 0)
(0.944941 0.00203286 0)
(0.96923 0.00511454 0)
(0.994509 0.00768576 0)
(1.02045 0.0102273 0)
(1.04668 0.0129162 0)
(1.07274 0.0157783 0)
(1.09804 0.0187564 0)
(1.12166 0.0217128 0)
(1.14259 0.0243456 0)
(1.1527 0.0261409 0)
(1.15424 0.0267528 0)
(1.15416 0.0272188 0)
(1.1542 0.0277651 0)
(1.15418 0.028335 0)
(1.1542 0.0288983 0)
(1.1542 0.0294761 0)
(1.15417 0.0300546 0)
(1.15422 0.0306311 0)
(1.15421 0.0312188 0)
(1.15423 0.0317918 0)
(1.15432 0.0323655 0)
(1.15432 0.0329498 0)
(1.1544 0.0335047 0)
(1.15451 0.0340759 0)
(1.15455 0.0346376 0)
(1.15469 0.0351809 0)
(1.15482 0.035744 0)
(1.15491 0.0362758 0)
(0.905249 0.00247111 0)
(0.927383 0.00243081 0)
(0.950627 0.00504809 0)
(0.974799 0.00749671 0)
(0.999633 0.00991449 0)
(1.02482 0.0124203 0)
(1.05002 0.0150426 0)
(1.0748 0.0177557 0)
(1.09861 0.0205083 0)
(1.12069 0.0231983 0)
(1.14008 0.0256693 0)
(1.1488 0.027329 0)
(1.14979 0.02798 0)
(1.14968 0.0286159 0)
(1.14974 0.029302 0)
(1.1497 0.030018 0)
(1.14968 0.0307284 0)
(1.14981 0.0314499 0)
(1.14973 0.0321911 0)
(1.14985 0.0328991 0)
(1.14999 0.0336315 0)
(1.14995 0.0343727 0)
(1.15019 0.0350573 0)
(1.15032 0.03581 0)
(1.15035 0.0365093 0)
(1.15066 0.0371963 0)
(1.15078 0.0379295 0)
(1.15091 0.0385978 0)
(1.15125 0.0392921 -1.19128e-026)
(0.889518 0.00230177 0)
(0.910789 0.00253849 0)
(0.933207 0.00501871 0)
(0.956561 0.00738664 0)
(0.980609 0.00970961 0)
(1.00508 0.0120877 0)
(1.02967 0.014549 0)
(1.05403 0.0170757 0)
(1.07775 0.019637 0)
(1.10026 0.022185 0)
(1.12074 0.0246685 0)
(1.13717 0.026922 0)
(1.14216 0.0283812 0)
(1.14255 0.0292279 0)
(1.14227 0.030133 0)
(1.14229 0.0310582 0)
(1.14242 0.0320061 0)
(1.14213 0.0329722 0)
(1.14247 0.033873 0)
(1.14248 0.0348293 0)
(1.14238 0.0357728 0)
(1.14288 0.0366246 0)
(1.14282 0.0376232 0)
(1.14294 0.0384693 0)
(1.14347 0.0393589 0)
(1.1434 0.0403107 0)
(1.1437 0.0411079 0)
(1.1442 0.042023 0)
(1.14421 0.0428892 1.2583e-026)
(0.874762 0.00192485 0)
(0.895435 0.00264926 0)
(0.91726 0.00494725 0)
(0.940058 0.00721745 0)
(0.963579 0.00945533 0)
(0.987561 0.0117287 0)
(1.01173 0.0140597 0)
(1.03579 0.016436 0)
(1.05937 0.0188376 0)
(1.08201 0.0212349 0)
(1.10302 0.0235797 0)
(1.12141 0.0258765 0)
(1.13189 0.0279094 0)
(1.13302 0.0292654 0)
(1.13341 0.0304406 0)
(1.13331 0.0316977 0)
(1.13289 0.0330091 0)
(1.1336 0.0341817 0)
(1.13318 0.035481 0)
(1.13329 0.0367039 0)
(1.134 0.0377989 0)
(1.1335 0.0391636 0)
(1.13402 0.0401783 0)
(1.13459 0.0413802 0)
(1.13421 0.042608 0)
(1.13497 0.0435654 0)
(1.13541 0.0448133 0)
(1.13523 0.0458441 0)
(1.13609 0.046883 1.37559e-026)
(0.86095 0.00163419 0)
(0.881138 0.0028118 0)
(0.902474 0.00502521 0)
(0.924798 0.00725969 0)
(0.947921 0.00948702 0)
(0.971589 0.0117477 0)
(0.995505 0.0140519 0)
(1.01938 0.0163897 0)
(1.04288 0.0187467 0)
(1.0656 0.0211011 0)
(1.08697 0.0234123 0)
(1.10616 0.0256885 0)
(1.11933 0.0279187 0)
(1.12347 0.0297141 0)
(1.12311 0.0311557 0)
(1.12308 0.0327956 0)
(1.12416 0.0341886 0)
(1.12321 0.035896 0)
(1.12401 0.03737 0)
(1.12462 0.0387113 0)
(1.12385 0.0405076 0)
(1.12508 0.041608 0)
(1.12535 0.0432074 0)
(1.12495 0.0447084 0)
(1.12633 0.0457746 0)
(1.12641 0.0474503 0)
(1.12638 0.0485971 0)
(1.12774 0.0498928 0)
(1.12778 0.0512731 -1.45352e-026)
(0.847395 0.00148812 0)
(0.867186 0.00305393 0)
(0.888152 0.00532492 0)
(0.910109 0.00763134 0)
(0.932861 0.00994131 0)
(0.956205 0.0122856 0)
(0.979901 0.0146754 0)
(1.00364 0.0170985 0)
(1.02707 0.019539 0)
(1.04981 0.0219776 0)
(1.07137 0.0243781 0)
(1.09106 0.0267171 0)
(1.1068 0.0291318 0)
(1.11098 0.0312201 0)
(1.11225 0.0330921 0)
(1.11317 0.0345739 0)
(1.11198 0.0367768 0)
(1.11358 0.0383013 0)
(1.11383 0.0399796 0)
(1.11332 0.042174 0)
(1.11515 0.0433039 0)
(1.11503 0.0453623 0)
(1.11503 0.0470528 0)
(1.11683 0.0482486 0)
(1.11658 0.0504437 0)
(1.11707 0.0515705 0)
(1.11867 0.053243 0)
(1.11851 0.0548956 0)
(1.11932 0.0561663 -1.59203e-026)
(0.83358 0.00146972 0)
(0.853017 0.00335788 0)
(0.873656 0.00579092 0)
(0.895318 0.00826061 0)
(0.917799 0.0107381 0)
(0.940872 0.0132442 0)
(0.96431 0.0157881 0)
(0.987877 0.0183672 0)
(1.01127 0.0209704 0)
(1.03409 0.0235775 0)
(1.05586 0.0261546 0)
(1.07586 0.0286636 0)
(1.09167 0.0312797 0)
(1.09886 0.033852 0)
(1.09989 0.035417 0)
(1.09913 0.0380448 0)
(1.10142 0.0396659 0)
(1.10128 0.0417103 0)
(1.10114 0.0442414 0)
(1.10317 0.0454182 0)
(1.10297 0.0480199 0)
(1.10339 0.0497439 0)
(1.10533 0.0512067 0)
(1.10509 0.0539416 0)
(1.10591 0.0548742 0)
(1.10757 0.0570986 0)
(1.10767 0.058909 0)
(1.10872 0.0602762 0)
(1.11027 0.0622893 1.68287e-026)
(0.819268 0.0015377 0)
(0.838376 0.00371911 0)
(0.858715 0.00638388 0)
(0.880107 0.00908455 0)
(0.902352 0.0117952 0)
(0.925228 0.0145325 0)
(0.948492 0.0173019 0)
(0.971884 0.0200984 0)
(0.995131 0.0229171 0)
(1.01788 0.0257428 0)
(1.03964 0.0285424 0)
(1.05978 0.0312644 0)
(1.07717 0.0341281 0)
(1.08476 0.036522 0)
(1.08533 0.0395105 0)
(1.08754 0.0411311 0)
(1.0871 0.0436749 0)
(1.08736 0.0463559 0)
(1.08971 0.0477324 0)
(1.08966 0.0509718 0)
(1.09013 0.0526361 0)
(1.09218 0.0545405 0)
(1.09217 0.0575206 0)
(1.09322 0.0585074 0)
(1.09501 0.0612792 0)
(1.09553 0.0631032 0)
(1.09646 0.0648032 0)
(1.0983 0.0671305 0)
(1.09879 0.068555 0)
(0.804261 0.00167599 0)
(0.823044 0.00414866 0)
(0.84309 0.00710699 0)
(0.864223 0.0101006 0)
(0.886244 0.0131034 0)
(0.908933 0.0161313 0)
(0.932051 0.0191864 0)
(0.955342 0.0222605 0)
(0.97853 0.0253433 0)
(1.00132 0.0284222 0)
(1.02331 0.0314667 0)
(1.04394 0.0344174 0)
(1.06178 0.0374209 0)
(1.06893 0.0410773 0)
(1.07193 0.0427496 0)
(1.07231 0.0459395 0)
(1.07311 0.0486481 0)
(1.07522 0.0504393 0)
(1.07519 0.0540619 0)
(1.07559 0.055825 0)
(1.07815 0.058235 0)
(1.07877 0.061277 0)
(1.07965 0.0627686 0)
(1.0816 0.0659439 0)
(1.08242 0.0677748 0)
(1.08305 0.069983 0)
(1.08562 0.0724175 0)
(1.08662 0.0741023 0)
(1.08778 0.0767285 0)
(0.788408 0.00186952 0)
(0.806864 0.00464999 0)
(0.826621 0.00796105 0)
(0.84751 0.0113085 0)
(0.869333 0.0146639 0)
(0.891875 0.0180439 0)
(0.914902 0.0214516 0)
(0.938163 0.0248784 0)
(0.961375 0.0283149 0)
(0.984203 0.0317487 0)
(1.00621 0.0351504 0)
(1.02666 0.0384646 0)
(1.04392 0.0421785 0)
(1.05451 0.0448817 0)
(1.05726 0.0484771 0)
(1.05719 0.0510351 0)
(1.05899 0.0537547 0)
(1.05992 0.057122 0)
(1.0606 0.0594975 0)
(1.06346 0.0623806 0)
(1.06446 0.0653703 0)
(1.0644 0.0676963 0)
(1.06676 0.0707433 0)
(1.0686 0.0728512 0)
(1.06919 0.075665 0)
(1.07223 0.0779425 0)
(1.07356 0.0803443 0)
(1.07392 0.0830406 0)
(1.07674 0.0847314 0)
(0.771566 0.0021166 4.84057e-026)
(0.789679 0.00523685 0)
(0.809136 0.00896616 0)
(0.829768 0.0127357 0)
(0.851378 0.0165129 0)
(0.873749 0.0203173 0)
(0.896644 0.0241522 0)
(0.919806 0.0280073 0)
(0.942949 0.0318688 0)
(0.965741 0.0357168 0)
(0.987804 0.0395169 0)
(1.0087 0.0431857 0)
(1.02818 0.0466983 0)
(1.03902 0.0508322 0)
(1.03924 0.054004 0)
(1.04179 0.0574262 0)
(1.04444 0.0601631 0)
(1.0444 0.0638064 0)
(1.0468 0.066671 0)
(1.04849 0.0697223 0)
(1.04814 0.0732446 0)
(1.05155 0.0755937 0)
(1.05446 0.0785061 0)
(1.05436 0.0819394 0)
(1.05712 0.0839651 0)
(1.05903 0.0872624 0)
(1.05934 0.0898618 0)
(1.06334 0.0917928 0)
(1.06589 0.0950333 0)
(0.753609 0.00239927 1.70976e-027)
(0.771359 0.00589247 0)
(0.790498 0.0100916 0)
(0.810861 0.0143341 0)
(0.832255 0.0185812 0)
(0.854466 0.0228543 0)
(0.877266 0.0271557 0)
(0.900415 0.0314715 0)
(0.923652 0.0357845 0)
(0.946692 0.0400724 0)
(0.969196 0.0442974 0)
(0.990652 0.048384 0)
(1.00987 0.0527147 0)
(1.0183 0.0573585 0)
(1.02369 0.0609104 0)
(1.02764 0.0633809 0)
(1.02664 0.068591 0)
(1.02847 0.0710266 0)
(1.03178 0.0745195 0)
(1.03143 0.079235 0)
(1.03531 0.0806778 0)
(1.03847 0.0848989 0)
(1.03757 0.0889465 0)
(1.04021 0.0903399 0)
(1.04396 0.094981 0)
(1.04466 0.0975025 0)
(1.04892 0.0995347 0)
(1.05105 0.10378 0)
(1.05112 0.10569 0)
(0.73454 0.00271788 -5.60867e-026)
(0.751907 0.00662199 0)
(0.770719 0.0113461 0)
(0.790811 0.0161187 0)
(0.811994 0.0208953 0)
(0.834058 0.025702 0)
(0.856776 0.0305438 0)
(0.879903 0.0354085 0)
(0.903164 0.0402828 0)
(0.926231 0.0451512 0)
(0.948664 0.0499839 0)
(0.969768 0.0546939 0)
(0.988249 0.0596282 0)
(1.0025 0.064017 0)
(1.00922 0.06726 0)
(1.00729 0.0732699 0)
(1.0087 0.0754394 0)
(1.01409 0.0796385 0)
(1.0138 0.085139 0)
(1.01749 0.0861912 0)
(1.0202 0.0918503 0)
(1.01956 0.0960049 0)
(1.02349 0.0969972 0)
(1.02776 0.103139 0)
(1.02857 0.105287 0)
(1.03228 0.107361 0)
(1.03409 0.113018 0)
(1.03621 0.114207 0)
(1.04147 0.117721 0)
(0.714272 0.00307745 0)
(0.73123 0.00743616 0)
(0.749685 0.0127472 0)
(0.769473 0.0181131 0)
(0.790407 0.0234837 0)
(0.812273 0.0288894 0)
(0.834844 0.0343357 0)
(0.857873 0.0398062 0)
(0.881086 0.0452785 0)
(0.904182 0.0507212 0)
(0.926828 0.0560784 0)
(0.948742 0.061249 0)
(0.970454 0.0662005 0)
(0.98549 0.071173 0)
(0.98527 0.0778295 0)
(0.988963 0.0796466 0)
(0.994897 0.0853161 0)
(0.994707 0.0906227 0)
(0.998127 0.092038 0)
(0.999616 0.0991723 0)
(1.0012 0.102539 0)
(1.00712 0.104478 0)
(1.0088 0.11166 0)
(1.01099 0.112842 0)
(1.01503 0.116729 0)
(1.01654 0.122601 0)
(1.02064 0.123499 0)
(1.02446 0.127988 0)
(1.02607 0.131586 0)
(0.692808 0.00345932 -6.9518e-026)
(0.709332 0.008307 0)
(0.72741 0.0142461 0)
(0.746884 0.0202438 0)
(0.767567 0.0262426 0)
(0.789257 0.0322761 0)
(0.811738 0.0383485 0)
(0.834782 0.0444395 0)
(0.858153 0.0505251 0)
(0.881602 0.0565782 0)
(0.904847 0.0625499 0)
(0.927453 0.0683166 0)
(0.948381 0.0743495 0)
(0.958999 0.0812993 0)
(0.969308 0.0843461 0)
(0.972884 0.0915185 0)
(0.974212 0.0950038 0)
(0.977639 0.098568 0)
(0.97811 0.106966 0)
(0.98303 0.108664 0)
(0.987557 0.113039 0)
(0.988178 0.119701 0)
(0.993123 0.120818 0)
(0.996365 0.127687 0)
(0.997463 0.131224 0)
(1.00284 0.133608 0)
(1.00701 0.138863 0)
(1.00976 0.142033 0)
(1.0155 0.145277 6.38565e-026)
(0.670213 0.00387546 -2.43399e-027)
(0.686283 0.00925264 0)
(0.703969 0.0158752 0)
(0.723118 0.0225632 0)
(0.743545 0.0292541 0)
(0.765052 0.0359887 0)
(0.787422 0.0427751 0)
(0.81042 0.0495955 0)
(0.833783 0.0564284 0)
(0.857197 0.0632515 0)
(0.880248 0.0700331 0)
(0.902359 0.0766931 0)
(0.923058 0.0832922 0)
(0.943014 0.0891222 0)
(0.948182 0.0969962 0)
(0.953108 0.0990707 0)
(0.955074 0.106126 0)
(0.95571 0.113399 0)
(0.962562 0.114682 0)
(0.965815 0.122274 0)
(0.967336 0.126759 0)
(0.973945 0.13041 0)
(0.974606 0.138219 0)
(0.978127 0.139328 0)
(0.984991 0.144959 0)
(0.988409 0.149551 0)
(0.991825 0.152355 0)
(0.997224 0.158007 0)
(0.999421 0.160431 1.26687e-027)
(0.646462 0.00432474 8.06933e-026)
(0.662048 0.010272 0)
(0.679309 0.0176315 0)
(0.698091 0.0250639 0)
(0.718215 0.0325018 0)
(0.739482 0.0399921 0)
(0.761677 0.0475438 0)
(0.784574 0.0551345 0)
(0.80793 0.0627365 0)
(0.831496 0.0703133 0)
(0.855021 0.0777949 0)
(0.878298 0.085031 0)
(0.901564 0.0922462 0)
(0.916986 0.100037 0)
(0.928996 0.10386 0)
(0.930915 0.113674 0)
(0.93286 0.118608 0)
(0.941374 0.121544 0)
(0.942725 0.131632 0)
(0.945502 0.133898 0)
(0.950052 0.140466 0)
(0.952482 0.146575 0)
(0.960296 0.148918 0)
(0.965596 0.157319 0)
(0.967056 0.1603 0)
(0.972385 0.16414 0)
(0.976273 0.170858 0)
(0.980253 0.172651 0)
(0.987842 0.178947 -7.2951e-026)
(0.621647 0.00478676 0)
(0.636729 0.0113328 0)
(0.653547 0.0194593 0)
(0.671952 0.027664 0)
(0.691771 0.0358738 0)
(0.712811 0.0441413 0)
(0.73487 0.0524748 0)
(0.757729 0.0608476 0)
(0.781157 0.0692271 0)
(0.804895 0.0775786 0)
(0.828638 0.0858513 0)
(0.851972 0.0939022 0)
(0.87449 0.102001 0)
(0.896685 0.109003 0)
(0.904387 0.120207 0)
(0.908864 0.123161 0)
(0.916289 0.12978 0)
(0.916644 0.139101 0)
(0.922904 0.140813 0)
(0.9271 0.150459 0)
(0.93111 0.155079 0)
(0.938519 0.160228 0)
(0.94017 0.167708 0)
(0.944285 0.170531 0)
(0.953253 0.177566 0)
(0.955706 0.182604 0)
(0.961986 0.186188 0)
(0.969486 0.19244 0)
(0.971882 0.195043 0)
(0.595875 0.00527231 0)
(0.610431 0.0124482 0)
(0.626784 0.0213811 0)
(0.644786 0.0303993 0)
(0.664271 0.0394274 0)
(0.685051 0.0485261 0)
(0.706926 0.0577064 0)
(0.729685 0.066942 0)
(0.753104 0.0762015 0)
(0.776945 0.0854525 0)
(0.800966 0.0946448 0)
(0.824953 0.103669 0)
(0.849218 0.112344 0)
(0.866598 0.123211 0)
(0.88199 0.127388 0)
(0.888369 0.138384 0)
(0.892028 0.144376 0)
(0.901309 0.148716 0)
(0.901623 0.16061 0)
(0.905953 0.163169 0)
(0.911756 0.171085 0)
(0.915702 0.177462 0)
(0.925996 0.182084 0)
(0.930616 0.190673 0)
(0.933112 0.193953 0)
(0.940329 0.20031 0)
(0.945895 0.205497 0)
(0.951873 0.208744 0)
(0.962007 0.216384 8.61488e-026)
(0.569237 0.00576933 0)
(0.583248 0.0136019 0)
(0.599113 0.0233692 0)
(0.616689 0.0332295 0)
(0.635815 0.043106 0)
(0.656311 0.0530674 0)
(0.677986 0.0631269 0)
(0.700635 0.0732563 0)
(0.724042 0.083422 0)
(0.747967 0.093588 0)
(0.772129 0.103704 0)
(0.796127 0.113653 0)
(0.819423 0.123694 0)
(0.844616 0.132084 0)
(0.856497 0.144943 0)
(0.867226 0.149033 0)
(0.872418 0.157545 0)
(0.872905 0.168062 0)
(0.881334 0.170509 0)
(0.886537 0.182943 0)
(0.894076 0.186537 0)
(0.900049 0.194046 0)
(0.901487 0.202117 0)
(0.909984 0.204949 0)
(0.920077 0.216046 0)
(0.923838 0.218821 0)
(0.932183 0.223742 0)
(0.936966 0.231434 0)
(0.943387 0.233899 1.24408e-027)
(0.541861 0.0062719 0)
(0.555311 0.0147819 0)
(0.570665 0.0254017 0)
(0.587784 0.0361225 0)
(0.606514 0.0468686 0)
(0.626683 0.0577177 0)
(0.648103 0.0686852 0)
(0.670574 0.0797417 0)
(0.693885 0.0908524 0)
(0.717811 0.101981 0)
(0.74212 0.113068 0)
(0.766631 0.12397 0)
(0.79163 0.134611 0)
(0.812748 0.146539 0)
(0.835068 0.152738 0)
(0.840585 0.16684 0)
(0.846249 0.172772 0)
(0.857421 0.180893 0)
(0.857946 0.192581 0)
(0.866791 0.19448 0)
(0.870923 0.206031 0)
(0.877466 0.211983 0)
(0.888797 0.219757 0)
(0.89162 0.228304 0)
(0.898473 0.230483 0)
(0.909326 0.240378 0)
(0.915022 0.24616 0)
(0.923283 0.250561 0)
(0.93071 0.256853 -1.97659e-025)
(0.513904 0.0067688 0)
(0.52678 0.0159693 0)
(0.541605 0.0274451 0)
(0.558244 0.0390289 0)
(0.576553 0.0506477 0)
(0.596369 0.0623874 0)
(0.617514 0.0742644 0)
(0.6398 0.0862463 0)
(0.663031 0.0982937 0)
(0.686997 0.110365 0)
(0.711472 0.122412 0)
(0.736206 0.13431 0)
(0.761097 0.146016 0)
(0.788862 0.156793 0)
(0.803392 0.172282 0)
(0.820041 0.177185 0)
(0.823186 0.1901 0)
(0.827659 0.196793 0)
(0.841068 0.20384 0)
(0.844284 0.219871 0)
(0.852825 0.221131 0)
(0.857169 0.231778 0)
(0.863042 0.238639 0)
(0.876101 0.245807 0)
(0.884067 0.257287 0)
(0.889893 0.258381 0)
(0.898303 0.267471 0)
(0.907165 0.272498 0)
(0.916032 0.278795 -1.06521e-027)
(0.485532 0.00725559 0)
(0.497826 0.0171556 0)
(0.512105 0.0294846 0)
(0.528242 0.0419289 0)
(0.546102 0.054422 0)
(0.56553 0.067059 0)
(0.586359 0.0798587 0)
(0.60841 0.0927898 0)
(0.631496 0.105815 0)
(0.655423 0.118898 0)
(0.679991 0.131984 0)
(0.705037 0.144976 0)
(0.73066 0.157735 0)
(0.753886 0.171512 0)
(0.779911 0.180626 0)
(0.787873 0.197543 0)
(0.802701 0.203035 0)
(0.809916 0.217263 0)
(0.812084 0.224635 0)
(0.823503 0.229277 0)
(0.828848 0.246927 0)
(0.837963 0.249426 0)
(0.847833 0.261127 0)
(0.851578 0.267515 0)
(0.863644 0.271897 0)
(0.877549 0.28709 0)
(0.882618 0.288619 0)
(0.89174 0.296733 0)
(0.900764 0.301983 1.13127e-025)
(0.456911 0.00772301 0)
(0.468618 0.0183261 0)
(0.482338 0.031494 0)
(0.49795 0.044785 0)
(0.515329 0.0581415 0)
(0.534332 0.0716677 0)
(0.554799 0.0853853 0)
(0.576562 0.0992634 0)
(0.599442 0.113265 0)
(0.623254 0.127354 0)
(0.647797 0.141484 0)
(0.672849 0.155568 0)
(0.698356 0.169465 0)
(0.726538 0.182958 0)
(0.745911 0.199795 0)
(0.767627 0.207573 0)
(0.773106 0.222888 0)
(0.782306 0.22867 0)
(0.796448 0.243578 0)
(0.797808 0.25614 0)
(0.808659 0.258949 0)
(0.814677 0.27385 0)
(0.82583 0.278881 0)
(0.840761 0.291522 0)
(0.842392 0.298619 0)
(0.852255 0.302962 0)
(0.869691 0.317166 0)
(0.876347 0.319505 0)
(0.888404 0.328214 1.2179e-025)
(0.428217 0.00816314 0)
(0.439337 0.019467 0)
(0.452486 0.0334485 0)
(0.467552 0.0475606 0)
(0.484421 0.0617581 0)
(0.502959 0.0761546 0)
(0.523016 0.0907746 0)
(0.544434 0.10559 0)
(0.567042 0.120567 0)
(0.590668 0.13567 0)
(0.615146 0.150863 0)
(0.640299 0.166063 0)
(0.665997 0.181257 0)
(0.691196 0.196552 0)
(0.721604 0.209214 0)
(0.734368 0.229105 0)
(0.753279 0.234586 0)
(0.756442 0.250705 0)
(0.763904 0.259316 0)
(0.781721 0.26974 0)
(0.784201 0.287639 0)
(0.797135 0.28977 0)
(0.802089 0.303682 0)
(0.812832 0.310339 0)
(0.833264 0.323678 0)
(0.835246 0.331882 0)
(0.846266 0.334679 0)
(0.86378 0.349966 0)
(0.87278 0.351424 -1.29521e-025)
(0.399626 0.00856732 0)
(0.410163 0.0205632 0)
(0.422736 0.0353206 0)
(0.437239 0.0502152 0)
(0.453571 0.065217 0)
(0.471608 0.0804471 0)
(0.491212 0.095932 0)
(0.51223 0.111645 0)
(0.534503 0.127551 0)
(0.557862 0.143619 0)
(0.582144 0.159814 0)
(0.60721 0.176051 0)
(0.633102 0.191999 0)
(0.660803 0.208609 0)
(0.683734 0.224883 0)
(0.712017 0.236908 0)
(0.719362 0.258371 0)
(0.736616 0.263572 0)
(0.742069 0.282922 0)
(0.748925 0.291013 0)
(0.767164 0.30002 0)
(0.771484 0.320516 0)
(0.787098 0.322835 0)
(0.792216 0.33662 0)
(0.802524 0.344244 0)
(0.82575 0.356282 0)
(0.829684 0.365879 0)
(0.842398 0.368866 0)
(0.863078 0.383831 1.38533e-025)
(0.371311 0.00892913 0)
(0.381274 0.0216032 0)
(0.39327 0.0370898 0)
(0.407199 0.0527199 0)
(0.422973 0.0684812 0)
(0.440482 0.0845019 0)
(0.459595 0.100811 0)
(0.48017 0.117384 0)
(0.502059 0.134192 0)
(0.525109 0.151205 0)
(0.549172 0.168394 0)
(0.574106 0.185708 0)
(0.599831 0.203052 0)
(0.62636 0.220153 0)
(0.657375 0.238026 0)
(0.674807 0.257599 0)
(0.698557 0.268302 0)
(0.70319 0.288201 0)
(0.718379 0.293257 0)
(0.729197 0.314433 0)
(0.73534 0.324552 0)
(0.754421 0.333668 0)
(0.758944 0.353143 0)
(0.776827 0.357721 0)
(0.785492 0.372538 0)
(0.796533 0.37977 0)
(0.821235 0.391455 0)
(0.826568 0.401262 0)
(0.84129 0.404099 -2.94615e-025)
(0.343434 0.00924286 0)
(0.352838 0.0225766 0)
(0.36426 0.0387373 0)
(0.377607 0.0550475 0)
(0.392807 0.0715154 0)
(0.40976 0.0882752 0)
(0.428343 0.105359 0)
(0.448424 0.122746 0)
(0.469862 0.140414 0)
(0.492516 0.158342 0)
(0.516243 0.176499 0)
(0.540938 0.194849 0)
(0.5666 0.2132 0)
(0.593161 0.232133 0)
(0.618925 0.250187 0)
(0.650944 0.267556 0)
(0.661965 0.288528 0)
(0.683821 0.299906 0)
(0.68842 0.320843 0)
(0.701877 0.326865 0)
(0.717233 0.348132 0)
(0.723233 0.360874 0)
(0.743765 0.36978 0)
(0.749048 0.388405 0)
(0.768376 0.393933 0)
(0.78149 0.409318 0)
(0.792868 0.417293 0)
(0.818861 0.427623 0)
(0.825383 0.438222 3.06925e-028)
(0.316147 0.00950309 0)
(0.32501 0.0234727 0)
(0.335865 0.0402438 0)
(0.348629 0.0571703 0)
(0.363243 0.0742825 0)
(0.379616 0.0917192 0)
(0.397635 0.109514 0)
(0.417174 0.127653 0)
(0.438103 0.14612 0)
(0.460286 0.164897 0)
(0.483592 0.183961 0)
(0.507908 0.203289 0)
(0.533106 0.222823 0)
(0.559595 0.242086 0)
(0.588318 0.263226 0)
(0.610665 0.283219 0)
(0.640664 0.299843 0)
(0.6474 0.321367 0)
(0.669144 0.333237 0)
(0.67406 0.355706 0)
(0.686173 0.362637 0)
(0.705672 0.382168 0)
(0.71209 0.398956 0)
(0.7351 0.407336 0)
(0.741505 0.425744 0)
(0.762913 0.432497 0)
(0.779786 0.449188 0)
(0.792688 0.457873 0)
(0.819498 0.46511 7.18315e-028)
(0.28959 0.0097053 0)
(0.297934 0.0242818 0)
(0.308235 0.041592 0)
(0.320418 0.0590635 0)
(0.334438 0.0767501 0)
(0.350216 0.0947931 0)
(0.367643 0.113229 0)
(0.386601 0.132049 0)
(0.406966 0.151246 0)
(0.428611 0.170813 0)
(0.451414 0.190735 0)
(0.475281 0.211003 0)
(0.500203 0.23156 0)
(0.525754 0.252484 0)
(0.55301 0.272746 0)
(0.583898 0.295711 0)
(0.599819 0.317248 0)
(0.626936 0.332875 0)
(0.631369 0.35438 0)
(0.653908 0.367739 0)
(0.660522 0.393534 0)
(0.673741 0.400828 0)
(0.69614 0.420892 0)
(0.703505 0.438573 0)
(0.728786 0.44734 0)
(0.737517 0.465953 0)
(0.760544 0.4723 0)
(0.779712 0.490674 0)
(0.795314 0.498529 1.76538e-025)
(0.263888 0.00984548 0)
(0.271738 0.0249942 0)
(0.281501 0.0427647 0)
(0.293111 0.0607032 0)
(0.306538 0.0788873 0)
(0.321709 0.0974585 0)
(0.338523 0.116455 0)
(0.356866 0.135877 0)
(0.376619 0.155723 0)
(0.397661 0.175997 0)
(0.419874 0.196698 0)
(0.443153 0.217804 0)
(0.467462 0.23935 0)
(0.493352 0.261017 0)
(0.518628 0.284003 0)
(0.545975 0.304911 0)
(0.576822 0.329323 0)
(0.587361 0.35244 0)
(0.612429 0.368619 0)
(0.615943 0.391466 0)
(0.639929 0.40597 0)
(0.648227 0.432256 0)
(0.662609 0.441689 0)
(0.688714 0.4618 0)
(0.696995 0.480252 0)
(0.724505 0.491109 0)
(0.73672 0.508129 0)
(0.761316 0.515752 0)
(0.786048 0.533467 -1.84871e-025)
(0.239151 0.00991991 0)
(0.246537 0.0256005 0)
(0.255782 0.0437458 0)
(0.266831 0.0620674 0)
(0.279669 0.0806661 0)
(0.294229 0.0996812 0)
(0.310415 0.119153 0)
(0.328116 0.13909 0)
(0.347218 0.1595 0)
(0.367604 0.180396 0)
(0.389157 0.201788 0)
(0.411769 0.223685 0)
(0.435445 0.246028 0)
(0.460033 0.269177 0)
(0.487583 0.291966 0)
(0.511732 0.317545 0)
(0.536433 0.339667 0)
(0.565535 0.363939 0)
(0.572944 0.389596 0)
(0.59713 0.406943 0)
(0.601021 0.430229 0)
(0.627375 0.445993 0)
(0.636714 0.47324 0)
(0.654945 0.486389 0)
(0.683827 0.505569 0)
(0.693918 0.525309 0)
(0.725447 0.53652 0)
(0.738179 0.552801 0)
(0.766529 0.562064 1.96995e-025)
(0.215479 0.00992472 0)
(0.222431 0.0260913 0)
(0.231178 0.0445192 0)
(0.241682 0.0631351 0)
(0.253939 0.0820608 0)
(0.267889 0.101431 0)
(0.283437 0.121287 0)
(0.300475 0.141648 0)
(0.318893 0.162533 0)
(0.338574 0.183965 0)
(0.359407 0.205967 0)
(0.38128 0.228558 0)
(0.404077 0.251779 0)
(0.428246 0.275357 0)
(0.452727 0.30078 0)
(0.481883 0.324444 0)
(0.503525 0.353123 0)
(0.523741 0.376287 0)
(0.550989 0.400138 0)
(0.557061 0.429205 0)
(0.582422 0.447264 0)
(0.58895 0.474354 0)
(0.617009 0.489878 0)
(0.627621 0.518156 0)
(0.650076 0.533351 0)
(0.681261 0.552185 0)
(0.69522 0.573132 0)
(0.731334 0.582936 0)
(0.745018 0.600441 0)
(0.192955 0.00985548 0)
(0.199503 0.0264568 0)
(0.207775 0.0450695 0)
(0.217751 0.0638868 0)
(0.22944 0.0830477 0)
(0.242785 0.102678 0)
(0.25769 0.122825 0)
(0.274049 0.143515 0)
(0.291751 0.164782 0)
(0.310684 0.186662 0)
(0.330736 0.209189 0)
(0.351797 0.232407 0)
(0.373784 0.256285 0)
(0.396628 0.281157 0)
(0.421651 0.305843 0)
(0.444402 0.334723 0)
(0.474324 0.358414 0)
(0.49263 0.391388 0)
(0.508968 0.415643 0)
(0.535376 0.440569 0)
(0.541518 0.471067 0)
(0.568865 0.491204 0)
(0.578353 0.520743 0)
(0.60877 0.536817 0)
(0.622347 0.567659 0)
(0.649754 0.582811 0)
(0.681229 0.603394 0)
(0.7034 0.622984 0)
(0.740333 0.631295 2.13396e-025)
(0.171649 0.00970703 0)
(0.177825 0.0266875 0)
(0.185641 0.0453826 0)
(0.195108 0.0643055 0)
(0.206245 0.0836068 0)
(0.218992 0.103401 0)
(0.233254 0.123738 0)
(0.24892 0.144659 0)
(0.265879 0.166212 0)
(0.284021 0.188447 0)
(0.303237 0.211417 0)
(0.323424 0.235178 0)
(0.34441 0.259767 0)
(0.366579 0.285045 0)
(0.389027 0.312146 0)
(0.414625 0.338374 0)
(0.433519 0.371346 0)
(0.463106 0.395447 0)
(0.477646 0.431121 0)
(0.493516 0.458321 0)
(0.520254 0.484763 0)
(0.52696 0.517722 0)
(0.557335 0.539153 0)
(0.570521 0.56978 0)
(0.60359 0.589065 0)
(0.624114 0.61876 0)
(0.65261 0.635315 0)
(0.689674 0.65766 0)
(0.715206 0.673894 -5.44442e-027)
(0.15162 0.00947424 0)
(0.157449 0.026775 0)
(0.164828 0.0454465 0)
(0.173805 0.064378 0)
(0.184408 0.0837232 0)
(0.196571 0.103582 0)
(0.210191 0.124009 0)
(0.225155 0.14506 0)
(0.241349 0.1668 0)
(0.258659 0.189298 0)
(0.276981 0.212623 0)
(0.296209 0.236855 0)
(0.316299 0.262025 0)
(0.33694 0.288327 0)
(0.358991 0.315191 0)
(0.380316 0.345837 0)
(0.405493 0.373094 0)
(0.419409 0.411321 0)
(0.448975 0.435687 0)
(0.459926 0.47546 0)
(0.479043 0.503981 0)
(0.505923 0.533327 0)
(0.51484 0.569664 0)
(0.550554 0.590868 0)
(0.564587 0.625465 0)
(0.604514 0.644339 0)