/*--------------------------------*- C++ -*----------------------------------*\
| =========                 |                                                 |
| \\      /  F ield         | OpenFOAM: The Open Source CFD Toolbox           |
|  \\    /   O peration     | Version:  5.x                                   |
|   \\  /    A nd           | Web:      www.OpenFOAM.org                      |
|    \\/     M anipulation  |                                                 |
\*---------------------------------------------------------------------------*/
/*   Windows 32 and 64 bit porting by blueCAPE: http://www.bluecape.com.pt   *\
|  Based on Windows porting (2.0.x v4) by Symscape: http://www.symscape.com   |
\*---------------------------------------------------------------------------*/
FoamFile
{
    version     2.0;
    format      ascii;
    class       volScalarField;
    location    "40";
    object      epsilon;
}
// * * * * * * * * * * * * * * * * * * * * * * * * * * * * * * * * * * * * * //

dimensions      [0 2 -3 0 0 0 0];

internalField   nonuniform List<scalar> 
43900
(
0.00153963
0.00151969
0.00151973
0.0015197
0.0015197
0.0015197
0.0015197
0.0015197
0.0015197
0.0015197
0.0015197
0.0015197
0.0015197
0.00151971
0.00151971
0.00151971
0.00151971
0.00151971
0.00151971
0.00151971
0.00151971
0.00151971
0.00151971
0.00151971
0.00151971
0.00151971
0.00151971
0.00151971
0.00151971
0.000186601
3.22319e-005
3.20521e-005
3.24342e-005
3.24394e-005
3.24404e-005
3.2441e-005
3.24417e-005
3.24424e-005
3.2443e-005
3.24435e-005
3.2444e-005
3.24445e-005
3.2445e-005
3.24455e-005
3.24459e-005
3.24463e-005
3.24467e-005
3.2447e-005
3.24474e-005
3.24477e-005
3.24482e-005
3.24485e-005
3.24489e-005
3.24492e-005
3.24496e-005
3.24499e-005
3.24502e-005
3.24504e-005
0.0114403
0.000259729
4.18192e-006
2.38449e-006
2.37662e-006
2.37658e-006
2.37668e-006
2.37675e-006
2.37682e-006
2.37688e-006
2.37694e-006
2.37699e-006
2.37704e-006
2.37708e-006
2.37712e-006
2.37715e-006
2.37717e-006
2.37719e-006
2.3772e-006
2.37721e-006
2.37721e-006
2.3772e-006
2.3772e-006
2.3772e-006
2.37719e-006
2.3771e-006
2.37708e-006
2.37705e-006
2.37701e-006
0.0540784
0.00439803
6.44871e-005
2.48193e-006
2.28175e-006
2.28124e-006
2.28137e-006
2.28147e-006
2.28157e-006
2.28164e-006
2.2817e-006
2.28175e-006
2.28178e-006
2.28181e-006
2.28182e-006
2.28182e-006
2.28181e-006
2.28179e-006
2.28176e-006
2.2817e-006
2.28165e-006
2.28158e-006
2.28151e-006
2.28142e-006
2.28132e-006
2.28116e-006
2.28103e-006
2.28087e-006
2.28073e-006
0.0786358
0.0103754
0.000301595
5.38457e-006
4.44063e-006
4.43861e-006
4.43891e-006
4.43908e-006
4.43928e-006
4.43942e-006
4.43952e-006
4.43963e-006
4.43968e-006
4.43974e-006
4.43976e-006
4.43977e-006
4.43972e-006
4.43968e-006
4.43959e-006
4.4395e-006
4.43936e-006
4.43928e-006
4.43911e-006
4.43891e-006
4.43867e-006
4.43839e-006
4.43805e-006
4.4377e-006
4.43742e-006
0.0861333
0.0128294
0.000466786
8.05007e-006
6.56893e-006
6.5663e-006
6.56638e-006
6.56646e-006
6.56649e-006
6.56656e-006
6.56658e-006
6.56657e-006
6.56659e-006
6.56658e-006
6.56656e-006
6.56648e-006
6.56647e-006
6.56642e-006
6.56634e-006
6.56623e-006
6.56615e-006
6.56606e-006
6.56597e-006
6.56581e-006
6.56568e-006
6.56551e-006
6.56532e-006
6.5651e-006
6.56494e-006
0.0871167
0.0133512
0.000513166
9.00038e-006
7.28308e-006
7.28003e-006
7.28005e-006
7.28004e-006
7.28005e-006
7.28004e-006
7.28005e-006
7.28003e-006
7.28002e-006
7.27998e-006
7.27996e-006
7.27993e-006
7.27991e-006
7.27985e-006
7.27982e-006
7.27976e-006
7.27971e-006
7.27966e-006
7.27961e-006
7.27954e-006
7.27948e-006
7.27941e-006
7.27931e-006
7.27923e-006
7.27913e-006
0.0860078
0.0132331
0.000511217
9.23372e-006
7.48748e-006
7.48426e-006
7.48429e-006
7.48424e-006
7.48427e-006
7.48424e-006
7.48424e-006
7.48425e-006
7.48422e-006
7.48419e-006
7.48418e-006
7.48419e-006
7.48413e-006
7.48413e-006
7.48412e-006
7.48411e-006
7.48405e-006
7.48405e-006
7.48402e-006
7.48401e-006
7.48395e-006
7.48393e-006
7.48388e-006
7.48386e-006
7.48382e-006
0.0839857
0.0128403
0.000491148
9.2123e-006
7.53941e-006
7.53624e-006
7.5362e-006
7.53623e-006
7.53619e-006
7.53622e-006
7.53616e-006
7.53617e-006
7.53615e-006
7.53619e-006
7.53615e-006
7.53618e-006
7.53615e-006
7.53614e-006
7.5361e-006
7.53613e-006
7.5361e-006
7.53611e-006
7.53606e-006
7.53608e-006
7.53605e-006
7.53605e-006
7.53605e-006
7.53605e-006
7.53604e-006
0.0819931
0.0123705
0.000462346
9.17473e-006
7.55174e-006
7.54835e-006
7.54824e-006
7.54833e-006
7.54824e-006
7.54832e-006
7.5482e-006
7.54821e-006
7.54819e-006
7.5483e-006
7.54821e-006
7.54821e-006
7.54823e-006
7.5482e-006
7.54817e-006
7.5482e-006
7.54821e-006
7.54819e-006
7.54813e-006
7.54817e-006
7.54818e-006
7.5482e-006
7.54818e-006
7.5481e-006
7.54816e-006
0.0798638
0.0119054
0.000436668
9.16902e-006
7.55502e-006
7.55112e-006
7.551e-006
7.55109e-006
7.551e-006
7.55108e-006
7.551e-006
7.55099e-006
7.55096e-006
7.55107e-006
7.55101e-006
7.5509e-006
7.55093e-006
7.55096e-006
7.55096e-006
7.55096e-006
7.55094e-006
7.55094e-006
7.55092e-006
7.55093e-006
7.55092e-006
7.55094e-006
7.55089e-006
7.55083e-006
7.55087e-006
0.0775243
0.0114094
0.000410479
9.16506e-006
7.55644e-006
7.5519e-006
7.55182e-006
7.55187e-006
7.55181e-006
7.55186e-006
7.55183e-006
7.55182e-006
7.55178e-006
7.55184e-006
7.55183e-006
7.55171e-006
7.55164e-006
7.55176e-006
7.55176e-006
7.55176e-006
7.55168e-006
7.55174e-006
7.55173e-006
7.55173e-006
7.55165e-006
7.55168e-006
7.55165e-006
7.55164e-006
7.55161e-006
0.0750126
0.0108863
0.000383817
9.16314e-006
7.55763e-006
7.55233e-006
7.55229e-006
7.55229e-006
7.55228e-006
7.55228e-006
7.55228e-006
7.55227e-006
7.55225e-006
7.55226e-006
7.55225e-006
7.55218e-006
7.55207e-006
7.55221e-006
7.55221e-006
7.5522e-006
7.55206e-006
7.55218e-006
7.55218e-006
7.55217e-006
7.552e-006
7.55208e-006
7.55207e-006
7.55206e-006
7.552e-006
0.0723296
0.0103385
0.000357023
9.16788e-006
7.55897e-006
7.55278e-006
7.55274e-006
7.55274e-006
7.55272e-006
7.55272e-006
7.55272e-006
7.55272e-006
7.55271e-006
7.5527e-006
7.55263e-006
7.55261e-006
7.55254e-006
7.55265e-006
7.55265e-006
7.55264e-006
7.55249e-006
7.55261e-006
7.55261e-006
7.5526e-006
7.55243e-006
7.55251e-006
7.55251e-006
7.55243e-006
7.5524e-006
0.069465
0.0097666
0.000330276
9.17969e-006
7.56062e-006
7.55336e-006
7.55332e-006
7.5533e-006
7.55328e-006
7.55328e-006
7.55328e-006
7.55328e-006
7.55328e-006
7.55327e-006
7.55317e-006
7.55317e-006
7.55314e-006
7.5532e-006
7.5532e-006
7.55319e-006
7.55307e-006
7.55313e-006
7.55313e-006
7.55312e-006
7.55299e-006
7.55304e-006
7.55304e-006
7.5529e-006
7.55295e-006
0.0664161
0.00917238
0.000303777
9.19765e-006
7.56269e-006
7.55412e-006
7.55405e-006
7.55405e-006
7.55405e-006
7.55405e-006
7.55404e-006
7.55403e-006
7.55401e-006
7.55398e-006
7.55394e-006
7.55393e-006
7.5539e-006
7.55392e-006
7.55392e-006
7.5539e-006
7.5538e-006
7.55383e-006
7.55383e-006
7.55383e-006
7.55373e-006
7.55374e-006
7.55373e-006
7.55356e-006
7.55362e-006
0.0631867
0.00855914
0.000277776
9.22117e-006
7.56525e-006
7.55512e-006
7.55501e-006
7.55501e-006
7.55501e-006
7.555e-006
7.555e-006
7.55498e-006
7.55493e-006
7.55492e-006
7.55491e-006
7.5549e-006
7.55488e-006
7.55486e-006
7.55485e-006
7.55483e-006
7.55478e-006
7.55477e-006
7.55476e-006
7.55473e-006
7.55463e-006
7.55462e-006
7.55459e-006
7.55443e-006
7.55446e-006
0.0597852
0.00793114
0.00025254
9.24975e-006
7.56852e-006
7.55641e-006
7.55628e-006
7.55626e-006
7.55625e-006
7.55624e-006
7.55623e-006
7.5562e-006
7.55618e-006
7.55618e-006
7.55617e-006
7.55615e-006
7.55611e-006
7.55609e-006
7.55607e-006
7.55605e-006
7.55601e-006
7.55598e-006
7.55594e-006
7.55588e-006
7.55574e-006
7.55573e-006
7.5557e-006
7.55564e-006
7.55561e-006
0.0562249
0.00729364
0.000228335
9.28308e-006
7.57266e-006
7.55809e-006
7.55794e-006
7.55793e-006
7.55793e-006
7.55792e-006
7.5579e-006
7.55788e-006
7.55786e-006
7.55782e-006
7.5578e-006
7.55776e-006
7.55771e-006
7.55767e-006
7.55764e-006
7.5576e-006
7.55752e-006
7.55748e-006
7.55743e-006
7.55738e-006
7.55726e-006
7.55721e-006
7.55715e-006
7.55706e-006
7.55699e-006
0.052525
0.00665272
0.000205404
9.3209e-006
7.57779e-006
7.56036e-006
7.56016e-006
7.56013e-006
7.56011e-006
7.56008e-006
7.56007e-006
7.56005e-006
7.56001e-006
7.55993e-006
7.55989e-006
7.55985e-006
7.55978e-006
7.55972e-006
7.55968e-006
7.55961e-006
7.55947e-006
7.55941e-006
7.55935e-006
7.55926e-006
7.5592e-006
7.55917e-006
7.5591e-006
7.55894e-006
7.5588e-006
0.0487101
0.00601508
0.000183955
9.36315e-006
7.5842e-006
7.56332e-006
7.56299e-006
7.56295e-006
7.56292e-006
7.5629e-006
7.56285e-006
7.56277e-006
7.56271e-006
7.56265e-006
7.5626e-006
7.56255e-006
7.56243e-006
7.56235e-006
7.56227e-006
7.56219e-006
7.56202e-006
7.56198e-006
7.56192e-006
7.56184e-006
7.56177e-006
7.56166e-006
7.56155e-006
7.56136e-006
7.56112e-006
0.0448111
0.00538801
0.00016415
9.41005e-006
7.59223e-006
7.56707e-006
7.56662e-006
7.56659e-006
7.56655e-006
7.56648e-006
7.56641e-006
7.56637e-006
7.56632e-006
7.56624e-006
7.56614e-006
7.56597e-006
7.56585e-006
7.56575e-006
7.56564e-006
7.56552e-006
7.56534e-006
7.56524e-006
7.56515e-006
7.56505e-006
7.56487e-006
7.56469e-006
7.56453e-006
7.56435e-006
7.56406e-006
0.0408643
0.00477891
0.000146095
9.46197e-006
7.60226e-006
7.57193e-006
7.57134e-006
7.57126e-006
7.57121e-006
7.57115e-006
7.57108e-006
7.57096e-006
7.57083e-006
7.57069e-006
7.57056e-006
7.57034e-006
7.57019e-006
7.57006e-006
7.56991e-006
7.5698e-006
7.56962e-006
7.56947e-006
7.56929e-006
7.56909e-006
7.5688e-006
7.56854e-006
7.56831e-006
7.56808e-006
7.56772e-006
0.0369111
0.00419513
0.000129831
9.51943e-006
7.61479e-006
7.57823e-006
7.57733e-006
7.57722e-006
7.57714e-006
7.57704e-006
7.5769e-006
7.5767e-006
7.57655e-006
7.57641e-006
7.57625e-006
7.57604e-006
7.57588e-006
7.57571e-006
7.57551e-006
7.57526e-006
7.57504e-006
7.5747e-006
7.5744e-006
7.57407e-006
7.57372e-006
7.57339e-006
7.57303e-006
7.57279e-006
7.57239e-006
0.0329973
0.00364353
0.000115343
9.58301e-006
7.63022e-006
7.58615e-006
7.58486e-006
7.58473e-006
7.5846e-006
7.58443e-006
7.58428e-006
7.58415e-006
7.58399e-006
7.58379e-006
7.58357e-006
7.58323e-006
7.58291e-006
7.58262e-006
7.58234e-006
7.58206e-006
7.58174e-006
7.58138e-006
7.58092e-006
7.58046e-006
7.58002e-006
7.57946e-006
7.57927e-006
7.57892e-006
7.57834e-006
0.0291707
0.00313006
0.000102552
9.65298e-006
7.64926e-006
7.5962e-006
7.59442e-006
7.59421e-006
7.59405e-006
7.59386e-006
7.59371e-006
7.59342e-006
7.59313e-006
7.59281e-006
7.59251e-006
7.59205e-006
7.59162e-006
7.59131e-006
7.59092e-006
7.59055e-006
7.59023e-006
7.58956e-006
7.58925e-006
7.58868e-006
7.58804e-006
7.5879e-006
7.58708e-006
7.58652e-006
7.58609e-006
0.02548
0.00265951
9.13382e-005
9.72942e-006
7.67253e-006
7.60882e-006
7.60634e-006
7.606e-006
7.60578e-006
7.60549e-006
7.60513e-006
7.60478e-006
7.60442e-006
7.6041e-006
7.60377e-006
7.60324e-006
7.60284e-006
7.60225e-006
7.60193e-006
7.60145e-006
7.60065e-006
7.60048e-006
7.59964e-006
7.59893e-006
7.59863e-006
7.59708e-006
7.59684e-006
7.59638e-006
7.59462e-006
0.0219725
0.00223521
8.15499e-005
9.81188e-006
7.70075e-006
7.62442e-006
7.62084e-006
7.62036e-006
7.62006e-006
7.61979e-006
7.61943e-006
7.61909e-006
7.6188e-006
7.61838e-006
7.61789e-006
7.61736e-006
7.61638e-006
7.61601e-006
7.61521e-006
7.61428e-006
7.61417e-006
7.61269e-006
7.61237e-006
7.61185e-006
7.60944e-006
7.60987e-006
7.60852e-006
7.60659e-006
7.60708e-006
0.0186911
0.00185883
7.30177e-005
9.89929e-006
7.73463e-006
7.64365e-006
7.63874e-006
7.63821e-006
7.63796e-006
7.63765e-006
7.63724e-006
7.63683e-006
7.63626e-006
7.63575e-006
7.63529e-006
7.63424e-006
7.63397e-006
7.63283e-006
7.63197e-006
7.63163e-006
7.62905e-006
7.62948e-006
7.6282e-006
7.6256e-006
7.62697e-006
7.6231e-006
7.62283e-006
7.62343e-006
7.61869e-006
0.0156726
0.00153038
6.55705e-005
9.99008e-006
7.77484e-006
7.66719e-006
7.66055e-006
7.65993e-006
7.65968e-006
7.65931e-006
7.65891e-006
7.65814e-006
7.65761e-006
7.65691e-006
7.65587e-006
7.65562e-006
7.65397e-006
7.65369e-006
7.65296e-006
7.64997e-006
7.65132e-006
7.64767e-006
7.64669e-006
7.64805e-006
7.64172e-006
7.64433e-006
7.64265e-006
7.63635e-006
7.63972e-006
0.012945
0.00124829
5.90456e-005
1.00819e-005
7.82213e-006
7.69525e-006
7.68677e-006
7.68591e-006
7.68535e-006
7.68501e-006
7.6844e-006
7.68403e-006
7.68303e-006
7.68233e-006
7.68189e-006
7.67975e-006
7.67999e-006
7.67823e-006
7.67613e-006
7.67777e-006
7.67164e-006
7.67371e-006
7.67318e-006
7.66543e-006
7.67018e-006
7.66322e-006
7.66041e-006
7.66448e-006
7.65571e-006
0.0105261
0.00100968
5.32964e-005
1.01718e-005
7.87682e-006
7.72908e-006
7.71798e-006
7.71659e-006
7.71624e-006
7.71555e-006
7.71533e-006
7.71429e-006
7.71401e-006
7.71312e-006
7.71112e-006
7.71183e-006
7.70831e-006
7.70842e-006
7.70891e-006
7.70185e-006
7.70634e-006
7.7013e-006
7.69529e-006
7.70105e-006
7.69203e-006
7.69296e-006
7.69459e-006
7.68332e-006
7.68667e-006
0.00842254
0.000810653
4.81963e-005
1.02565e-005
7.939e-006
7.76905e-006
7.75469e-006
7.75299e-006
7.75241e-006
7.75226e-006
7.75127e-006
7.75132e-006
7.74993e-006
7.74943e-006
7.74934e-006
7.74498e-006
7.74726e-006
7.74534e-006
7.73947e-006
7.74435e-006
7.73585e-006
7.73519e-006
7.73984e-006
7.72824e-006
7.73018e-006
7.72886e-006
7.71727e-006
7.72075e-006
7.71221e-006
0.00662984
0.000646722
4.36393e-005
1.03322e-005
8.00886e-006
7.81513e-006
7.7972e-006
7.79512e-006
7.79483e-006
7.79375e-006
7.79439e-006
7.79256e-006
7.79368e-006
7.79289e-006
7.78985e-006
7.79292e-006
7.78662e-006
7.78657e-006
7.78898e-006
7.78079e-006
7.78345e-006
7.78328e-006
7.77075e-006
7.77487e-006
7.77141e-006
7.76412e-006
7.76564e-006
7.75346e-006
7.75495e-006
0.00513339
0.000513151
3.95391e-005
1.03946e-005
8.08571e-006
7.86812e-006
7.84552e-006
7.84331e-006
7.84212e-006
7.84287e-006
7.84103e-006
7.84342e-006
7.84062e-006
7.8417e-006
7.84369e-006
7.83674e-006
7.84285e-006
7.83961e-006
7.83206e-006
7.83849e-006
7.83347e-006
7.82647e-006
7.83152e-006
7.82026e-006
7.81792e-006
7.81815e-006
7.80777e-006
7.80704e-006
7.79545e-006
0.00391018
0.000405305
3.58277e-005
1.04401e-005
8.16815e-006
7.92829e-006
7.90043e-006
7.89702e-006
7.89752e-006
7.89613e-006
7.89906e-006
7.8958e-006
7.89936e-006
7.89922e-006
7.89554e-006
7.90368e-006
7.89215e-006
7.90198e-006
7.90187e-006
7.88574e-006
7.89598e-006
7.89667e-006
7.8797e-006
7.8828e-006
7.88118e-006
7.87097e-006
7.87238e-006
7.86085e-006
7.85266e-006
0.00293111
0.000318878
3.24532e-005
1.04654e-005
8.25493e-006
7.99532e-006
7.96162e-006
7.95805e-006
7.95772e-006
7.96081e-006
7.95842e-006
7.96344e-006
7.96212e-006
7.96172e-006
7.96768e-006
7.96022e-006
7.97542e-006
7.95983e-006
7.95725e-006
7.97869e-006
7.95727e-006
7.9528e-006
7.96877e-006
7.96226e-006
7.93865e-006
7.94501e-006
7.93666e-006
7.93298e-006
7.92859e-006
0.00216361
0.000250045
2.93782e-005
1.04663e-005
8.34472e-006
8.06846e-006
8.02917e-006
8.02468e-006
8.02663e-006
8.02691e-006
8.03287e-006
8.03184e-006
8.03461e-006
8.04017e-006
8.03758e-006
8.04766e-006
8.03359e-006
8.05102e-006
8.05911e-006
8.03654e-006
8.05119e-006
8.0583e-006
8.03417e-006
8.03178e-006
8.05092e-006
8.02523e-006
8.01877e-006
8.0138e-006
8.00015e-006
0.0015741
0.000195515
2.65766e-005
1.04436e-005
8.43546e-006
8.14676e-006
8.10233e-006
8.09746e-006
8.09918e-006
8.10444e-006
8.10626e-006
8.11422e-006
8.11583e-006
8.1212e-006
8.12738e-006
8.12215e-006
8.14673e-006
8.13005e-006
8.12709e-006
8.15361e-006
8.14753e-006
8.12678e-006
8.15153e-006
8.15335e-006
8.12278e-006
8.13377e-006
8.1264e-006
8.12072e-006
8.10452e-006
0.00113014
0.00015253
2.40314e-005
1.03982e-005
8.52434e-006
8.22955e-006
8.17963e-006
8.17593e-006
8.1767e-006
8.18409e-006
8.19355e-006
8.19399e-006
8.21195e-006
8.20764e-006
8.21258e-006
8.23979e-006
8.21926e-006
8.24888e-006
8.2595e-006
8.23824e-006
8.24728e-006
8.28018e-006
8.24824e-006
8.24899e-006
8.27266e-006
8.24839e-006
8.24409e-006
8.21664e-006
8.22813e-006
0.000801969
0.000118813
2.17317e-005
1.03288e-005
8.6096e-006
8.31367e-006
8.26271e-006
8.25647e-006
8.2635e-006
8.26637e-006
8.27492e-006
8.29985e-006
8.2905e-006
8.31421e-006
8.32832e-006
8.32255e-006
8.35457e-006
8.34726e-006
8.35218e-006
8.39584e-006
8.38953e-006
8.36853e-006
8.41356e-006
8.39728e-006
8.38528e-006
8.39178e-006
8.38178e-006
8.39613e-006
8.35185e-006
0.000563564
9.25048e-005
1.96709e-005
1.02401e-005
8.68808e-006
8.40053e-006
8.34466e-006
8.34429e-006
8.34426e-006
8.35991e-006
8.37523e-006
8.37309e-006
8.41295e-006
8.41677e-006
8.41962e-006
8.44877e-006
8.46595e-006
8.49946e-006
8.48857e-006
8.49956e-006
8.53268e-006
8.56513e-006
8.53211e-006
8.58213e-006
8.55165e-006
8.56006e-006
8.57781e-006
8.52631e-006
8.54423e-006
0.000393081
7.20953e-005
1.78438e-005
1.01359e-005
8.76027e-006
8.48335e-006
8.43354e-006
8.42606e-006
8.44087e-006
8.44539e-006
8.45621e-006
8.5021e-006
8.49331e-006
8.51929e-006
8.55996e-006
8.5652e-006
8.58832e-006
8.59874e-006
8.67722e-006
8.6809e-006
8.67861e-006
8.69067e-006
8.75174e-006
8.73211e-006
8.79841e-006
8.7642e-006
8.73178e-006
8.77685e-006
8.7272e-006
0.00027286
5.6365e-005
1.62438e-005
1.00213e-005
8.82239e-006
8.56775e-006
8.51433e-006
8.51849e-006
8.51919e-006
8.54183e-006
8.57124e-006
8.5687e-006
8.62598e-006
8.63688e-006
8.6453e-006
8.71263e-006
8.7226e-006
8.77417e-006
8.79811e-006
8.8083e-006
8.90999e-006
8.92488e-006
8.92549e-006
8.97615e-006
8.96133e-006
9.01558e-006
9.03327e-006
8.99126e-006
9.0089e-006
0.000189094
4.43244e-005
1.48613e-005
9.90085e-006
8.87719e-006
8.64295e-006
8.60148e-006
8.59665e-006
8.61643e-006
8.63023e-006
8.63869e-006
8.70927e-006
8.70321e-006
8.73681e-006
8.82279e-006
8.81626e-006
8.87005e-006
8.89793e-006
8.93798e-006
9.08077e-006
9.0644e-006
9.10834e-006
9.20868e-006
9.20672e-006
9.28397e-006
9.25787e-006
9.29896e-006
9.32582e-006
9.27828e-006
0.000131299
3.51645e-005
1.36821e-005
9.77992e-006
8.9209e-006
8.71742e-006
8.67673e-006
8.68298e-006
8.69219e-006
8.70966e-006
8.77271e-006
8.7674e-006
8.8368e-006
8.87649e-006
8.88746e-006
8.96323e-006
9.00135e-006
9.10661e-006
9.14503e-006
9.17033e-006
9.32373e-006
9.35033e-006
9.40734e-006
9.561e-006
9.54639e-006
9.67216e-006
9.62417e-006
9.65401e-006
9.68278e-006
9.17208e-005
2.82343e-005
1.26893e-005
9.66186e-006
8.95694e-006
8.7815e-006
8.75281e-006
8.75646e-006
8.76901e-006
8.81751e-006
8.82029e-006
8.89777e-006
8.91469e-006
8.94456e-006
9.03403e-006
9.08804e-006
9.1899e-006
9.20385e-006
9.29187e-006
9.42873e-006
9.47835e-006
9.66591e-006
9.70027e-006
9.77305e-006
9.9813e-006
9.973e-006
1.01317e-005
1.00987e-005
1.01125e-005
6.47554e-005
2.30187e-005
1.18639e-005
9.5504e-006
8.98416e-006
8.83968e-006
8.82124e-006
8.82326e-006
8.85713e-006
8.86291e-006
8.9388e-006
8.95411e-006
9.0142e-006
9.07175e-006
9.14318e-006
9.20352e-006
9.24647e-006
9.42661e-006
9.4823e-006
9.5622e-006
9.74984e-006
9.82457e-006
1.01006e-005
1.01612e-005
1.02549e-005
1.05561e-005
1.05425e-005
1.07179e-005
1.06955e-005
4.64353e-005
1.91129e-005
1.11865e-005
9.44822e-006
9.00339e-006
8.89285e-006
8.87798e-006
8.8974e-006
8.89941e-006
8.96844e-006
8.98363e-006
9.04733e-006
9.09346e-006
9.19684e-006
9.21369e-006
9.28932e-006
9.4571e-006
9.50345e-006
9.67006e-006
9.84383e-006
9.90126e-006
1.01079e-005
1.02514e-005
1.0653e-005
1.07855e-005
1.09125e-005
1.13176e-005
1.12884e-005
1.1447e-005
3.39981e-005
1.62016e-005
1.06373e-005
9.35617e-006
9.01854e-006
8.93399e-006
8.93629e-006
8.9356e-006
8.99165e-006
9.00213e-006
9.06447e-006
9.12401e-006
9.18394e-006
9.22292e-006
9.34783e-006
9.44213e-006
9.50514e-006
9.69356e-006
9.76405e-006
9.93929e-006
1.0202e-005
1.03384e-005
1.06818e-005
1.08623e-005
1.14123e-005
1.1558e-005
1.17658e-005
1.23312e-005
1.22993e-005
2.55482e-005
1.40422e-005
1.01979e-005
9.27655e-006
9.02638e-006
8.97584e-006
8.97199e-006
9.00439e-006
9.01523e-006
9.07968e-006
9.12031e-006
9.16095e-006
9.23098e-006
9.34286e-006
9.43034e-006
9.49408e-006
9.6654e-006
9.73784e-006
1.00031e-005
1.00628e-005
1.03524e-005
1.06629e-005
1.08638e-005
1.12779e-005
1.16026e-005
1.2476e-005
1.26784e-005
1.29688e-005
1.36573e-005
1.9797e-005
1.24487e-005
9.85099e-006
9.20752e-006
9.03449e-006
9.00283e-006
9.0168e-006
9.02324e-006
9.08402e-006
9.10108e-006
9.17884e-006
9.21907e-006
9.31469e-006
9.38345e-006
9.45666e-006
9.61171e-006
9.7095e-006
9.91626e-006
1.00177e-005
1.03617e-005
1.04889e-005
1.08872e-005
1.11214e-005
1.15777e-005
1.20766e-005
1.26554e-005
1.40892e-005
1.44279e-005
1.48792e-005
1.58805e-005
1.12828e-005
9.58248e-006
9.15164e-006
9.03889e-006
9.03057e-006
9.03678e-006
9.06693e-006
9.10228e-006
9.14097e-006
9.23192e-006
9.26363e-006
9.36689e-006
9.42219e-006
9.5455e-006
9.63649e-006
9.80161e-006
9.94146e-006
1.01859e-005
1.03239e-005
1.07815e-005
1.09607e-005
1.15122e-005
1.18836e-005
1.26884e-005
1.33372e-005
1.43593e-005
1.61959e-005
1.77795e-005
1.32145e-005
1.04371e-005
9.37655e-006
9.10472e-006
9.04367e-006
9.04393e-006
9.06132e-006
9.08083e-006
9.14295e-006
9.16228e-006
9.281e-006
9.28555e-006
9.45936e-006
9.46527e-006
9.61774e-006
9.7007e-006
9.89762e-006
1.00029e-005
1.02797e-005
1.04218e-005
1.07301e-005
1.11702e-005
1.15643e-005
1.21204e-005
1.29508e-005
1.37391e-005
1.51217e-005
1.66616e-005
1.99602e-005
1.14226e-005
9.84035e-006
9.22796e-006
9.07306e-006
9.04941e-006
9.05633e-006
9.08014e-006
9.09989e-006
9.18311e-006
9.18857e-006
9.32064e-006
9.32356e-006
9.47244e-006
9.49631e-006
9.69051e-006
9.72127e-006
9.96427e-006
1.00618e-005
1.03645e-005
1.05457e-005
1.10964e-005
1.166e-005
1.35027e-005
1.54231e-005
1.94184e-005
3.24023e-005
4.1709e-005
6.47594e-005
6.54159e-005
1.02249e-005
9.42298e-006
9.11147e-006
9.04419e-006
9.04396e-006
9.05715e-006
9.07432e-006
9.12562e-006
9.15358e-006
9.20859e-006
9.32362e-006
9.3606e-006
9.54763e-006
9.62676e-006
1.0053e-005
1.04954e-005
1.25371e-005
1.59851e-005
3.06495e-005
5.20729e-005
0.000134073
0.000225736
0.000538481
0.00081476
0.00134
0.00268413
0.00350287
0.00575745
0.00584827
9.49872e-006
9.15689e-006
9.05031e-006
9.04755e-006
9.05897e-006
9.09516e-006
9.14431e-006
9.25488e-006
9.54383e-006
9.92228e-006
1.13904e-005
1.38589e-005
2.57183e-005
4.05908e-005
0.000103331
0.000181907
0.000470263
0.000781723
0.00175001
0.00267933
0.00527633
0.00745213
0.0131541
0.0177666
0.0262376
0.0419445
0.0541786
0.0842705
0.102618
9.03068e-006
9.06245e-006
9.1969e-006
9.56665e-006
1.04599e-005
1.27136e-005
1.74519e-005
2.84777e-005
6.27171e-005
0.00010231
0.000243559
0.000412425
0.000986863
0.00152364
0.00312438
0.00458564
0.00848636
0.0118062
0.0196913
0.026488
0.0413121
0.0537509
0.0805581
0.104561
0.148829
0.210795
0.285952
0.427371
0.592949
9.21298e-006
1.18848e-005
1.94921e-005
3.80644e-005
7.84867e-005
0.000166549
0.00032396
0.000614914
0.00130562
0.00199261
0.0038138
0.00562472
0.0100526
0.0138934
0.0225126
0.0298972
0.0455862
0.0589025
0.0856389
0.109682
0.155108
0.196233
0.275723
0.352424
0.495057
0.664414
0.954704
1.33837
2.02886
0.00151971
0.00151971
0.00151971
0.00151971
0.00151971
0.00151971
0.00151971
0.00151971
0.00151971
0.00151971
0.00151971
0.00151971
0.00151971
0.00151971
0.00151972
0.00151972
0.00151972
0.00151972
0.00151972
0.00151972
0.00151972
0.00151972
0.00151972
0.00151972
0.00151972
0.00151972
0.00151972
0.00151972
0.00151972
0.00151972
0.00151972
0.00151972
0.00151972
0.00151972
0.00151972
0.00151972
0.00151972
0.00151973
0.00151973
0.00151973
0.00151973
0.00151973
0.00151973
0.00151973
0.00151973
0.00151973
0.00151973
0.00151973
0.00151973
0.00151973
0.00151973
0.00151973
0.00151973
0.00151973
0.00151973
0.00151973
0.00151973
0.00151973
0.00151974
0.00151974
0.00151974
0.00151974
0.00151974
0.00151974
0.00151974
0.00151974
0.00151974
0.00151974
0.00151974
0.00151974
0.00151974
0.00151974
0.00151974
0.00151974
0.00151974
0.00151974
0.00151974
0.00151974
0.00151974
0.00151974
0.00151974
0.00151974
0.00151974
0.00151974
0.00151974
0.00151975
0.00151975
0.00151975
0.00151975
0.00151975
0.00151975
0.00151975
0.00151975
0.00151975
0.00151975
0.00151975
0.00151975
0.00151975
0.00151975
0.00151975
0.00151975
0.00151975
0.00151975
0.00151975
0.00151975
0.00151975
0.00151975
0.00151975
0.00151975
0.00151975
0.00151975
0.00151975
0.00151975
0.00151975
0.00151975
0.00151975
0.00151975
0.00151975
0.00151975
0.00151975
0.00151975
0.00151975
0.00151975
0.00151975
0.00151975
0.00151975
0.00151975
0.00151975
0.00151975
0.00151975
0.00151975
0.00151975
0.00151975
0.00151975
0.00151975
0.00151975
0.00151976
0.00151982
0.00154172
3.24508e-005
3.24514e-005
3.24519e-005
3.24523e-005
3.24528e-005
3.24532e-005
3.24537e-005
3.24542e-005
3.24546e-005
3.24551e-005
3.24556e-005
3.24561e-005
3.24566e-005
3.24571e-005
3.24577e-005
3.24582e-005
3.24587e-005
3.24593e-005
3.24598e-005
3.24604e-005
3.2461e-005
3.24616e-005
3.24621e-005
3.24627e-005
3.24633e-005
3.24639e-005
3.24646e-005
3.24652e-005
3.24658e-005
3.24664e-005
3.2467e-005
3.24677e-005
3.24683e-005
3.2469e-005
3.24696e-005
3.24702e-005
3.24709e-005
3.24715e-005
3.24722e-005
3.24728e-005
3.24735e-005
3.24741e-005
3.24748e-005
3.24754e-005
3.24761e-005
3.24767e-005
3.24773e-005
3.2478e-005
3.24786e-005
3.24792e-005
3.24799e-005
3.24805e-005
3.24811e-005
3.24817e-005
3.24823e-005
3.2483e-005
3.24836e-005
3.24842e-005
3.24847e-005
3.24853e-005
3.24859e-005
3.24865e-005
3.2487e-005
3.24876e-005
3.24882e-005
3.24887e-005
3.24892e-005
3.24898e-005
3.24903e-005
3.24908e-005
3.24913e-005
3.24918e-005
3.24923e-005
3.24928e-005
3.24933e-005
3.24938e-005
3.24942e-005
3.24947e-005
3.24952e-005
3.24956e-005
3.2496e-005
3.24965e-005
3.24969e-005
3.24973e-005
3.24977e-005
3.24981e-005
3.24985e-005
3.24989e-005
3.24992e-005
3.24996e-005
3.25e-005
3.25003e-005
3.25006e-005
3.2501e-005
3.25013e-005
3.25016e-005
3.25019e-005
3.25022e-005
3.25025e-005
3.25028e-005
3.25031e-005
3.25034e-005
3.25036e-005
3.25039e-005
3.25041e-005
3.25044e-005
3.25046e-005
3.25049e-005
3.25051e-005
3.25053e-005
3.25055e-005
3.25058e-005
3.2506e-005
3.25062e-005
3.25064e-005
3.25066e-005
3.25068e-005
3.25069e-005
3.25071e-005
3.25073e-005
3.25074e-005
3.25075e-005
3.25077e-005
3.25078e-005
3.25079e-005
3.25081e-005
3.25082e-005
3.25084e-005
3.25085e-005
3.25087e-005
3.25089e-005
3.25091e-005
3.25094e-005
3.25097e-005
3.25101e-005
3.25102e-005
3.25103e-005
3.16678e-005
3.44219e-005
2.37699e-006
2.37696e-006
2.3769e-006
2.37686e-006
2.3768e-006
2.37674e-006
2.37668e-006
2.37662e-006
2.37654e-006
2.37647e-006
2.3764e-006
2.37632e-006
2.37624e-006
2.37616e-006
2.37608e-006
2.37599e-006
2.3759e-006
2.37581e-006
2.37572e-006
2.37563e-006
2.37554e-006
2.37544e-006
2.37534e-006
2.37526e-006
2.37516e-006
2.37507e-006
2.37497e-006
2.37487e-006
2.37477e-006
2.37467e-006
2.37456e-006
2.37446e-006
2.37436e-006
2.37426e-006
2.37416e-006
2.37406e-006
2.37395e-006
2.37385e-006
2.37375e-006
2.37365e-006
2.37355e-006
2.37344e-006
2.37335e-006
2.37324e-006
2.37315e-006
2.37304e-006
2.37295e-006
2.37285e-006
2.37275e-006
2.37265e-006
2.37256e-006
2.37246e-006
2.37237e-006
2.37228e-006
2.37219e-006
2.3721e-006
2.372e-006
2.37192e-006
2.37183e-006
2.37174e-006
2.37165e-006
2.37157e-006
2.37149e-006
2.3714e-006
2.37132e-006
2.37126e-006
2.37117e-006
2.3711e-006
2.37102e-006
2.37094e-006
2.37087e-006
2.3708e-006
2.37072e-006
2.37065e-006
2.37058e-006
2.37051e-006
2.37044e-006
2.37038e-006
2.37031e-006
2.37025e-006
2.37018e-006
2.37012e-006
2.37005e-006
2.36999e-006
2.36993e-006
2.36987e-006
2.36982e-006
2.36976e-006
2.36971e-006
2.36966e-006
2.3696e-006
2.36955e-006
2.3695e-006
2.36944e-006
2.3694e-006
2.36935e-006
2.3693e-006
2.36925e-006
2.36921e-006
2.36916e-006
2.36912e-006
2.36908e-006
2.36904e-006
2.369e-006
2.36896e-006
2.36892e-006
2.36888e-006
2.36885e-006
2.36881e-006
2.36877e-006
2.36874e-006
2.36871e-006
2.36867e-006
2.36864e-006
2.36861e-006
2.36857e-006
2.36854e-006
2.3685e-006
2.36847e-006
2.36843e-006
2.36839e-006
2.36836e-006
2.36832e-006
2.36828e-006
2.36823e-006
2.3682e-006
2.36817e-006
2.36813e-006
2.36808e-006
2.36804e-006
2.368e-006
2.36795e-006
2.36791e-006
2.36785e-006
2.36784e-006
2.36773e-006
2.372e-006
5.45762e-006
0.000546259
2.28057e-006
2.28037e-006
2.28016e-006
2.27994e-006
2.27972e-006
2.27948e-006
2.27923e-006
2.27898e-006
2.2787e-006
2.27843e-006
2.27814e-006
2.27784e-006
2.27754e-006
2.27723e-006
2.27691e-006
2.27658e-006
2.27625e-006
2.2759e-006
2.27556e-006
2.2752e-006
2.27485e-006
2.27448e-006
2.27411e-006
2.2737e-006
2.27332e-006
2.27293e-006
2.27255e-006
2.27216e-006
2.27177e-006
2.27137e-006
2.27098e-006
2.27058e-006
2.27018e-006
2.26977e-006
2.26937e-006
2.26897e-006
2.26856e-006
2.26816e-006
2.26776e-006
2.26736e-006
2.26695e-006
2.26654e-006
2.26614e-006
2.26575e-006
2.26535e-006
2.26495e-006
2.26455e-006
2.26416e-006
2.26377e-006
2.26338e-006
2.263e-006
2.26262e-006
2.26224e-006
2.26187e-006
2.2615e-006
2.26113e-006
2.26078e-006
2.26041e-006
2.26005e-006
2.2597e-006
2.25935e-006
2.25901e-006
2.25867e-006
2.25834e-006
2.25801e-006
2.25765e-006
2.25732e-006
2.257e-006
2.25668e-006
2.25638e-006
2.25608e-006
2.25578e-006
2.25548e-006
2.25518e-006
2.25489e-006
2.25461e-006
2.25433e-006
2.25407e-006
2.2538e-006
2.25353e-006
2.25327e-006
2.25302e-006
2.25276e-006
2.25251e-006
2.25227e-006
2.25203e-006
2.25181e-006
2.25159e-006
2.25136e-006
2.25114e-006
2.25092e-006
2.25071e-006
2.25051e-006
2.25031e-006
2.25011e-006
2.24992e-006
2.24973e-006
2.24954e-006
2.24936e-006
2.24919e-006
2.24902e-006
2.24886e-006
2.24869e-006
2.24854e-006
2.24837e-006
2.24822e-006
2.24807e-006
2.24793e-006
2.24778e-006
2.24764e-006
2.2475e-006
2.24738e-006
2.24724e-006
2.2471e-006
2.24698e-006
2.24685e-006
2.24672e-006
2.2466e-006
2.24648e-006
2.24635e-006
2.24624e-006
2.24613e-006
2.24601e-006
2.2459e-006
2.24578e-006
2.24568e-006
2.24557e-006
2.24546e-006
2.24534e-006
2.24523e-006
2.24511e-006
2.245e-006
2.24487e-006
2.24475e-006
2.24463e-006
2.24453e-006
2.2941e-006
4.76644e-005
0.00458111
4.43706e-006
4.43661e-006
4.43616e-006
4.43571e-006
4.43525e-006
4.43475e-006
4.43423e-006
4.4337e-006
4.43315e-006
4.43255e-006
4.43195e-006
4.43134e-006
4.43069e-006
4.43004e-006
4.42934e-006
4.42865e-006
4.42792e-006
4.42721e-006
4.42645e-006
4.42567e-006
4.42492e-006
4.42414e-006
4.42332e-006
4.42252e-006
4.4217e-006
4.4209e-006
4.42007e-006
4.41924e-006
4.41839e-006
4.41755e-006