/*--------------------------------*- C++ -*----------------------------------*\
| =========                 |                                                 |
| \\      /  F ield         | OpenFOAM: The Open Source CFD Toolbox           |
|  \\    /   O peration     | Version:  5.x                                   |
|   \\  /    A nd           | Web:      www.OpenFOAM.org                      |
|    \\/     M anipulation  |                                                 |
\*---------------------------------------------------------------------------*/
/*   Windows 32 and 64 bit porting by blueCAPE: http://www.bluecape.com.pt   *\
|  Based on Windows porting (2.0.x v4) by Symscape: http://www.symscape.com   |
\*---------------------------------------------------------------------------*/
FoamFile
{
    version     2.0;
    format      ascii;
    class       volScalarField;
    location    "40";
    object      k;
}
// * * * * * * * * * * * * * * * * * * * * * * * * * * * * * * * * * * * * * //

dimensions      [0 2 -2 0 0 0 0];

internalField   nonuniform List<scalar> 
43900
(
0.000997728
0.000990139
0.000990189
0.000990154
0.000990156
0.000990157
0.000990158
0.000990158
0.000990159
0.000990159
0.00099016
0.00099016
0.000990161
0.000990161
0.000990161
0.000990162
0.000990162
0.000990162
0.000990163
0.000990163
0.000990163
0.000990164
0.000990164
0.000990164
0.000990164
0.000990165
0.000990165
0.000990165
0.000990165
0.000605841
4.02695e-005
3.92104e-005
4.01618e-005
4.0171e-005
4.01721e-005
4.01729e-005
4.01736e-005
4.01743e-005
4.0175e-005
4.01756e-005
4.01762e-005
4.01768e-005
4.01773e-005
4.01779e-005
4.01783e-005
4.01788e-005
4.01793e-005
4.01797e-005
4.01802e-005
4.01806e-005
4.01811e-005
4.01816e-005
4.0182e-005
4.01824e-005
4.01829e-005
4.01834e-005
4.01838e-005
4.0184e-005
0.0656045
0.002262
2.44543e-005
8.83375e-006
8.76304e-006
8.76298e-006
8.76309e-006
8.7632e-006
8.76328e-006
8.76329e-006
8.76329e-006
8.76328e-006
8.76323e-006
8.76324e-006
8.76319e-006
8.76307e-006
8.76295e-006
8.76279e-006
8.76261e-006
8.76239e-006
8.76217e-006
8.76176e-006
8.76149e-006
8.76122e-006
8.7609e-006
8.76003e-006
8.75964e-006
8.75922e-006
8.75869e-006
0.313864
0.0394614
0.000805015
3.70188e-005
3.43463e-005
3.43416e-005
3.43453e-005
3.43484e-005
3.43511e-005
3.43532e-005
3.43549e-005
3.4356e-005
3.43569e-005
3.43576e-005
3.43578e-005
3.43576e-005
3.43573e-005
3.43564e-005
3.43553e-005
3.43536e-005
3.43519e-005
3.43497e-005
3.43474e-005
3.43445e-005
3.43413e-005
3.43371e-005
3.43327e-005
3.43279e-005
3.43236e-005
0.461775
0.0937183
0.00394287
0.000164794
0.000151179
0.000151153
0.000151165
0.000151173
0.000151181
0.000151188
0.000151192
0.000151197
0.000151199
0.000151202
0.000151203
0.000151204
0.000151202
0.0001512
0.000151197
0.000151193
0.000151187
0.000151184
0.000151177
0.000151169
0.000151159
0.000151146
0.000151132
0.000151118
0.000151106
0.507287
0.115764
0.0061681
0.000263678
0.000240864
0.000240821
0.000240824
0.000240828
0.000240829
0.000240832
0.000240833
0.000240833
0.000240834
0.000240833
0.000240832
0.000240829
0.000240828
0.000240826
0.000240823
0.000240818
0.000240815
0.000240811
0.000240807
0.0002408
0.000240795
0.000240787
0.000240779
0.000240769
0.000240763
0.514763
0.120716
0.00680718
0.000298636
0.00027184
0.000271787
0.000271789
0.000271788
0.000271789
0.000271788
0.000271788
0.000271788
0.000271787
0.000271785
0.000271785
0.000271784
0.000271782
0.00027178
0.000271778
0.000271776
0.000271774
0.000271772
0.00027177
0.000271766
0.000271764
0.00027176
0.000271756
0.000271753
0.000271748
0.510426
0.120078
0.00680393
0.000308124
0.00028084
0.000280786
0.000280787
0.000280785
0.000280786
0.000280785
0.000280785
0.000280785
0.000280784
0.000280783
0.000280782
0.000280783
0.00028078
0.00028078
0.00028078
0.00028078
0.000280777
0.000280777
0.000280776
0.000280775
0.000280773
0.000280771
0.000280769
0.000280769
0.000280767
0.501527
0.117304
0.00658749
0.000309375
0.000283137
0.000283085
0.000283083
0.000283084
0.000283083
0.000283084
0.000283081
0.000283082
0.000283081
0.000283083
0.000283081
0.000283082
0.000283081
0.00028308
0.000283079
0.00028308
0.000283079
0.000283079
0.000283077
0.000283078
0.000283077
0.000283076
0.000283076
0.000283076
0.000283076
0.491812
0.113559
0.00623117
0.000308927
0.000283671
0.000283618
0.000283613
0.000283617
0.000283613
0.000283617
0.000283612
0.000283612
0.000283612
0.000283616
0.000283612
0.000283611
0.000283613
0.000283612
0.000283611
0.000283612
0.000283613
0.000283612
0.000283609
0.00028361
0.000283611
0.000283612
0.000283611
0.000283608
0.00028361
0.481536
0.109878
0.00591305
0.000308652
0.000283797
0.000283736
0.000283732
0.000283736
0.000283732
0.000283735
0.000283731
0.000283731
0.00028373
0.000283735
0.000283732
0.000283726
0.000283729
0.000283731
0.00028373
0.00028373
0.000283729
0.00028373
0.000283728
0.000283729
0.000283728
0.000283731
0.000283727
0.000283726
0.000283728
0.470253
0.105955
0.00558902
0.000308346
0.000283836
0.000283766
0.000283763
0.000283765
0.000283763
0.000283765
0.000283763
0.000283762
0.000283762
0.000283764
0.000283763
0.000283756
0.000283756
0.000283761
0.000283761
0.000283761
0.000283758
0.00028376
0.00028376
0.00028376
0.000283755
0.000283759
0.000283757
0.000283756
0.000283755
0.458069
0.10179
0.00525773
0.000308069
0.000283861
0.000283779
0.000283778
0.000283778
0.000283777
0.000283778
0.000283777
0.000283777
0.000283775
0.000283777
0.000283776
0.000283772
0.000283769
0.000283775
0.000283775
0.000283775
0.000283769
0.000283774
0.000283774
0.000283774
0.000283766
0.000283771
0.00028377
0.000283768
0.000283766
0.44496
0.0973949
0.00492268
0.000307891
0.000283886
0.000283791
0.000283789
0.000283789
0.000283789
0.000283789
0.000283789
0.000283789
0.000283787
0.000283788
0.000283785
0.000283784
0.000283783
0.000283787
0.000283787
0.000283787
0.000283781
0.000283786
0.000283786
0.000283786
0.000283777
0.000283783
0.000283783
0.000283778
0.000283777
0.430853
0.0927665
0.00458595
0.000307819
0.000283916
0.000283806
0.000283805
0.000283804
0.000283803
0.000283804
0.000283804
0.000283804
0.000283803
0.000283803
0.000283799
0.0002838
0.0002838
0.000283802
0.000283802
0.000283802
0.000283797
0.0002838
0.0002838
0.0002838
0.000283794
0.000283797
0.000283797
0.000283791
0.000283793
0.415706
0.0879124
0.00424998
0.000307843
0.000283953
0.000283826
0.000283824
0.000283825
0.000283825
0.000283825
0.000283824
0.000283824
0.000283823
0.000283822
0.000283821
0.00028382
0.000283819
0.00028382
0.00028382
0.00028382
0.000283815
0.000283819
0.000283819
0.000283818
0.000283815
0.000283816
0.000283816
0.000283808
0.000283812
0.399503
0.0828511
0.00391789
0.00030796
0.000283999
0.000283851
0.000283849
0.000283849
0.000283849
0.000283849
0.000283849
0.000283849
0.000283847
0.000283848
0.000283848
0.000283847
0.000283844
0.000283844
0.000283844
0.000283843
0.00028384
0.000283841
0.000283841
0.000283841
0.000283835
0.000283837
0.000283836
0.000283831
0.000283834
0.382247
0.0776092
0.00359308
0.000308162
0.000284059
0.000283885
0.000283882
0.000283882
0.000283882
0.000283882
0.000283881
0.00028388
0.00028388
0.00028388
0.000283879
0.000283878
0.000283875
0.000283876
0.000283876
0.000283875
0.000283874
0.000283873
0.000283872
0.000283869
0.00028386
0.000283862
0.000283862
0.000283864
0.000283864
0.363963
0.0722218
0.00327907
0.000308445
0.000284137
0.000283929
0.000283926
0.000283927
0.000283927
0.000283926
0.000283926
0.000283926
0.000283925
0.000283923
0.000283922
0.00028392
0.000283918
0.000283917
0.000283917
0.000283916
0.000283912
0.00028391
0.000283909
0.000283907
0.000283901
0.000283901
0.0002839
0.0002839
0.000283899
0.344701
0.0667319
0.00297923
0.000308809
0.000284233
0.000283989
0.000283987
0.000283986
0.000283985
0.000283983
0.000283984
0.000283984
0.000283983
0.000283978
0.000283977
0.000283976
0.000283973
0.000283972
0.000283971
0.000283968
0.00028396
0.000283959
0.000283958
0.000283956
0.000283955
0.000283955
0.000283955
0.00028395
0.000283945
0.324536
0.0611896
0.00269657
0.000309253
0.000284355
0.000284068
0.000284062
0.00028406
0.000284059
0.000284059
0.000284058
0.000284054
0.000284052
0.000284049
0.000284048
0.000284047
0.000284043
0.00028404
0.000284038
0.000284035
0.000284027
0.000284028
0.000284028
0.000284027
0.000284027
0.000284024
0.000284021
0.000284013
0.000284005
0.303579
0.055652
0.0024337
0.000309783
0.000284509
0.000284164
0.000284158
0.000284157
0.000284156
0.000284154
0.000284151
0.00028415
0.00028415
0.000284148
0.000284144
0.000284137
0.000284132
0.00028413
0.000284128
0.000284125
0.000284118
0.000284116
0.000284114
0.000284112
0.000284107
0.000284102
0.000284098
0.000284092
0.000284084
0.281967
0.0501804
0.00219249
0.000310409
0.000284703
0.000284292
0.000284285
0.000284283
0.000284281
0.000284279
0.000284277
0.000284274
0.00028427
0.000284266
0.000284261
0.000284252
0.000284247
0.000284244
0.000284242
0.00028424
0.000284235
0.000284232
0.000284227
0.000284221
0.00028421
0.000284203
0.000284198
0.000284191
0.000284181
0.259873
0.0448391
0.00197412
0.000311146
0.000284949
0.000284459
0.000284446
0.000284442
0.00028444
0.000284437
0.000284432
0.000284425
0.000284421
0.000284417
0.000284413
0.000284407
0.000284403
0.000284399
0.000284395
0.000284388
0.000284382
0.000284372
0.000284362
0.000284352
0.000284339
0.00028433
0.000284321
0.000284315
0.000284305
0.237503
0.0396924
0.00177894
0.000312015
0.000285253
0.000284666
0.000284646
0.000284644
0.000284641
0.000284634
0.000284631
0.000284628
0.000284625
0.000284619
0.000284612
0.000284599
0.00028459
0.000284583
0.000284576
0.000284569
0.000284561
0.00028455
0.000284538
0.000284521
0.000284505
0.00028449
0.000284486
0.000284479
0.000284466
0.215087
0.0348011
0.00160648
0.000313035
0.000285632
0.00028493
0.000284905
0.000284899
0.000284894
0.000284889
0.000284885
0.000284877
0.000284868
0.000284858
0.000284849
0.000284831
0.000284821
0.000284814
0.000284805
0.000284796
0.000284787
0.000284769
0.000284759
0.000284743
0.000284728
0.000284725
0.000284703
0.000284686
0.000284673
0.19288
0.0302196
0.00145557
0.000314228
0.000286102
0.000285261
0.000285226
0.000285215
0.000285209
0.0002852
0.000285187
0.000285176
0.000285165
0.000285159
0.00028515
0.000285134
0.000285124
0.000285111
0.000285104
0.000285092
0.000285072
0.000285068
0.000285046
0.000285026
0.000285015
0.000284971
0.000284964
0.00028495
0.000284902
0.171151
0.0259929
0.00132452
0.000315612
0.000286677
0.000285669
0.00028561
0.000285596
0.000285587
0.000285579
0.000285569
0.000285561
0.000285556
0.000285546
0.000285535
0.000285515
0.000285487
0.000285477
0.000285457
0.000285433
0.000285431
0.00028539
0.000285381
0.000285366
0.000285299
0.00028531
0.000285274
0.000285222
0.000285236
0.150171
0.0221536
0.00121124
0.000317199
0.000287378
0.00028617
0.000286088
0.000286076
0.000286071
0.000286064
0.000286054
0.000286042
0.000286025
0.000286013
0.000285999
0.000285973
0.000285967
0.000285938
0.000285911
0.000285901
0.00028583
0.000285841
0.000285805
0.000285736
0.000285773
0.000285672
0.000285661
0.000285677
0.00028555
0.130203
0.0187205
0.00111348
0.000318999
0.000288221
0.000286783
0.000286675
0.000286665
0.00028666
0.000286654
0.000286642
0.000286619
0.000286603
0.000286581
0.000286557
0.000286551
0.000286504
0.000286498
0.00028648
0.000286402
0.000286436
0.000286341
0.00028631
0.000286344
0.000286173
0.000286241
0.000286197
0.000286026
0.000286113
0.111487
0.0156977
0.00102899
0.000321008
0.000289233
0.000287506
0.00028738
0.000287363
0.000287346
0.000287335
0.000287323
0.000287312
0.000287285
0.000287269
0.000287258
0.000287201
0.000287206
0.000287158
0.000287104
0.000287148
0.000286986
0.000287037
0.000287021
0.00028681
0.000286933
0.000286748
0.000286671
0.000286776
0.000286543
0.0942267
0.0130754
0.000955644
0.00032321
0.000290431
0.000288381
0.000288223
0.000288192
0.000288184
0.000288167
0.00028816
0.000288128
0.000288117
0.00028809
0.000288039
0.00028806
0.000287968
0.000287969
0.000287981
0.000287791
0.000287904
0.00028777
0.000287611
0.00028776
0.00028752
0.000287539
0.000287581
0.000287282
0.000287369
0.0785771
0.0108316
0.000891519
0.000325586
0.000291824
0.000289421
0.000289213
0.000289178
0.00028916
0.000289158
0.000289132
0.000289132
0.000289094
0.000289078
0.000289075
0.00028896
0.000289018
0.000288964
0.000288807
0.000288931
0.000288707
0.000288686
0.000288805
0.000288495
0.000288542
0.000288506
0.000288195
0.000288286
0.00028806
0.0646368
0.00893511
0.000834951
0.000328097
0.000293439
0.000290614
0.000290351
0.000290312
0.000290299
0.000290266
0.000290283
0.000290234
0.000290264
0.000290242
0.000290163
0.000290243
0.000290078
0.000290072
0.000290131
0.000289913
0.000289978
0.000289972
0.000289638
0.000289746
0.000289655
0.000289458
0.000289495
0.000289169
0.000289203
0.0524432
0.00734874
0.000784516
0.000330681
0.000295279
0.000291983
0.000291642
0.00029161
0.000291575
0.000291589
0.000291536
0.000291594
0.00029152
0.000291545
0.000291597
0.000291418
0.000291576
0.00029149
0.000291291
0.000291457
0.000291322
0.000291132
0.000291262
0.000290963
0.000290892
0.000290894
0.000290617
0.000290595
0.00029029
0.0419732
0.00603277
0.000739028
0.000333276
0.000297319
0.000293552
0.000293116
0.000293061
0.000293071
0.000293032
0.000293105
0.000293015
0.000293103
0.000293095
0.000292995
0.000293204
0.000292905
0.000293159
0.000293155
0.000292728
0.000292996
0.000293011
0.000292556
0.000292629
0.000292584
0.000292307
0.000292334
0.000292026
0.000291807
0.0331492
0.00494785
0.000697525
0.000335801
0.000299551
0.000295317
0.000294762
0.000294709
0.000294701
0.000294778
0.000294715
0.000294843
0.000294805
0.000294792
0.00029494
0.000294743
0.000295129
0.000294721
0.000294651
0.000295205
0.000294641
0.000294517
0.000294929
0.000294753
0.000294125
0.00029428
0.000294058
0.000293951
0.000293829
0.0258492
0.00405727
0.000659253
0.000338139
0.000301966
0.000297262
0.00029658
0.000296507
0.000296556
0.000296563
0.00029672
0.000296693
0.000296763
0.000296906
0.000296836
0.000297091
0.000296717
0.000297168
0.000297369
0.000296765
0.000297134
0.000297315
0.000296677
0.000296608
0.000297099
0.00029643
0.000296241
0.000296099
0.000295725
0.0199189
0.00332829
0.000623645
0.000340181
0.000304524
0.000299363
0.000298549
0.000298468
0.000298512
0.000298643
0.000298691
0.000298903
0.000298945
0.000299085
0.000299245
0.000299109
0.000299741
0.000299294
0.000299206
0.000299888
0.00029972
0.000299157
0.00029979
0.000299827
0.000299014
0.000299287
0.000299095
0.000298936
0.0002985
0.0151856
0.00273277
0.000590294
0.00034184
0.000307145
0.000301605
0.000300635
0.000300583
0.000300603
0.000300784
0.000301029
0.000301044
0.000301511
0.000301401
0.000301527
0.000302226
0.000301703
0.00030246
0.00030273
0.000302156
0.000302382
0.000303219
0.000302373
0.000302373
0.000302959
0.000302331
0.000302203
0.000301466
0.00030175
0.0114704
0.00224709
0.000558945
0.000343039
0.000309767
0.000303906
0.00030288
0.00030276
0.000302938
0.000303006
0.000303221
0.000303863
0.000303627
0.000304232
0.000304597
0.000304452
0.000305269
0.000305083
0.000305206
0.00030632
0.000306149
0.000305576
0.000306723
0.000306313
0.000305957
0.000306094
0.000305827
0.00030617
0.00030502
0.00859967
0.00185177
0.000529484
0.000343724
0.000312285
0.000306302
0.000305109
0.000305125
0.000305126
0.000305519
0.000305906
0.000305855
0.000306878
0.000306978
0.000307045
0.000307778
0.00030822
0.000309081
0.000308802
0.000309077
0.000309909
0.000310743
0.000309871
0.000311115
0.000310335
0.000310532
0.000310925
0.000309584
0.000310013
0.00641286
0.00153086
0.000501914
0.00034381
0.000314681
0.000308616
0.000307516
0.00030735
0.000307724
0.000307834
0.000308104
0.000309275
0.000309045
0.000309698
0.000310749
0.000310886
0.000311467
0.000311728
0.000313714
0.000313819
0.000313755
0.000314042
0.000315568
0.00031508
0.000316724
0.000315853
0.000314976
0.000316089
0.000314809
0.00476809
0.00127136
0.0004763
0.000343364
0.00031682
0.000310984
0.000309727
0.00030984
0.000309857
0.000310426
0.000311173
0.000311093
0.000312564
0.000312855
0.000313053
0.00031475
0.000315014
0.000316326
0.000316918
0.000317157
0.000319715
0.000320114
0.000320124
0.000321352
0.000320949
0.0003223
0.00032274
0.000321665
0.000322032
0.0035446
0.00106249
0.000452727
0.000342448
0.00031874
0.000313118
0.0003121
0.000311978
0.000312469
0.000312813
0.000313025
0.00031484
0.000314673
0.000315512
0.000317716
0.000317539
0.00031887
0.000319574
0.000320605
0.000324205
0.000323774
0.000324843
0.000327349
0.000327313
0.000329221
0.000328545
0.00032952
0.000330114
0.000328931
0.00264286
0.000895119
0.000431257
0.000341037
0.000320313
0.000315223
0.000314166
0.00031431
0.000314537
0.000314973
0.000316578
0.000316434
0.000318202
0.000319221
0.000319486
0.000321399
0.000322369
0.000325012
0.000325982
0.000326595
0.0003304
0.000331078
0.000332498
0.000336269
0.000335915
0.000338958
0.000337777
0.000338472
0.000339066
0.00198316
0.000761602
0.000411942
0.000339268
0.000321605
0.000317041
0.000316247
0.000316325
0.000316625
0.000317839
0.000317902
0.000319891
0.000320329
0.000321087
0.000323372
0.000324723
0.000327275
0.000327608
0.00032977
0.000333249
0.000334477
0.000339058
0.000339926
0.000341713
0.000346766
0.000346508
0.000350327
0.000349566
0.000349832
0.00150324
0.000655618
0.000394799
0.000337264
0.000322578
0.00031868
0.000318122
0.000318159
0.000318982
0.000319112
0.000321058
0.000321452
0.000322987
0.000324446
0.000326245
0.000327795
0.00032886
0.000333381
0.00033478
0.000336719
0.000341388
0.000343211
0.000349829
0.000351437
0.000353665
0.000360916
0.000360539
0.000364641
0.000364135
0.00115554
0.000571954
0.000379815
0.000335158
0.000323257
0.00032016
0.000319688
0.000320146
0.000320171
0.000321928
0.000322309
0.000323941
0.000325115
0.000327745
0.000328163
0.000330079
0.000334317
0.000335463
0.000339604
0.000343895
0.000345303
0.000350423
0.000353827
0.00036332
0.000366756
0.000369712
0.000379173
0.000378469
0.00038197
0.000904376
0.000506325
0.000366939
0.000333044
0.000323753
0.000321294
0.000321287
0.000321242
0.000322633
0.000322881
0.000324477
0.000325983
0.000327538
0.000328524
0.000331699
0.000334073
0.000335644
0.000340349
0.000342096
0.000346455
0.000352913
0.000356221
0.000364619
0.000368792
0.000381471
0.000385383
0.00039002
0.000402807
0.000402269
0.000723398
0.00045524
0.000356074
0.000331056
0.000323999
0.000322438
0.000322287
0.00032307
0.000323316
0.000324943
0.000325974
0.000327044
0.000328819
0.000331692
0.000333884
0.000335487
0.000339814
0.000341617
0.000348167
0.000349656
0.00035673
0.000364331
0.000369118
0.000379167
0.000386548
0.000406099
0.000411827
0.000417958
0.000432859
0.000593333
0.000415841
0.00034709
0.000329219
0.000324208
0.000323181
0.000323488
0.000323619
0.000325144
0.000325575
0.000327554
0.000328599
0.000331041
0.000332776
0.00033464
0.00033858
0.000341018
0.000346206
0.000348711
0.000357162
0.000360254
0.000369904
0.000375525
0.000386012
0.00039844
0.000411227
0.00044204
0.000451582
0.000460283
0.000500327
0.000385862
0.000339861
0.000327656
0.000324294
0.000323937
0.000324069
0.000324799
0.000325659
0.000326679
0.000328997
0.000329809
0.000332441
0.000333855
0.000337009
0.000339284
0.000343439
0.000346896
0.000352999
0.000356409
0.000367545
0.000371863
0.000385002
0.00039365
0.000411998
0.000427396
0.000450121
0.000487474
0.000522009
0.000434277
0.000363384
0.000334144
0.000326299
0.00032438
0.000324323
0.000324708
0.00032519
0.000326751
0.000327263
0.000330283
0.000330437
0.000334816
0.000335018
0.00033887
0.000340972
0.000345923
0.000348553
0.00035542
0.000358958
0.000365944
0.000378272
0.00038678
0.000399659
0.000418409
0.000436018
0.000467654
0.000498642
0.00056475
0.000388286
0.000347074
0.000329907
0.000325336
0.00032451
0.000324655
0.000325206
0.000325705
0.00032782
0.000327988
0.000331339
0.000331462
0.000335222
0.000335872
0.00034077
0.00034158
0.000347602
0.000349983
0.000357251
0.000361217
0.000372649
0.000382697
0.000411598
0.000435829
0.000481718
0.000608951
0.000690967
0.000852145
0.000883017
0.000356699
0.000335466
0.000326555
0.000324453
0.000324374
0.000324665
0.000325087
0.000326376
0.000327112
0.000328524
0.000331448
0.000332342
0.00033681
0.00033836
0.000346924
0.000353402
0.000382425
0.000422279
0.000588771
0.000801549
0.00159745
0.00237599
0.00493082
0.00690998
0.0101732
0.0183644
0.0220355
0.0315159
0.0290536
0.000337089
0.000327824
0.000324717
0.000324559
0.000324857
0.000325834
0.000326994
0.000329522
0.000335548
0.000341783
0.000364745
0.00039737
0.00055062
0.000714611
0.00139775
0.00214755
0.00481818
0.00732141
0.0147935
0.0209473
0.0374041
0.0490903
0.0782764
0.0989214
0.13111
0.191381
0.224766
0.316082
0.320007
0.000324454
0.00032548
0.000329278
0.000339205
0.000359977
0.000407951
0.00048332
0.000646139
0.00111089
0.00153478
0.00302955
0.00455132
0.00956023
0.0134584
0.024676
0.0334215
0.055778
0.0721911
0.108925
0.136872
0.193448
0.235542
0.319465
0.39038
0.494032
0.654716
0.787892
1.08482
1.24924
0.000329005
0.00039342
0.000556963
0.000917606
0.00154379
0.00272913
0.00433941
0.00706777
0.0127711
0.017195
0.0286689
0.038408
0.0612259
0.0779656
0.113868
0.140786
0.195539
0.237702
0.314778
0.381829
0.491012
0.587865
0.748749
0.904598
1.12989
1.43532
1.78499
2.3606
2.94048
0.000990166
0.000990166
0.000990166
0.000990167
0.000990167
0.000990167
0.000990168
0.000990168
0.000990168
0.000990169
0.000990169
0.000990169
0.00099017
0.00099017
0.00099017
0.000990171
0.000990171
0.000990172
0.000990172
0.000990172
0.000990173
0.000990173
0.000990174
0.000990174
0.000990174
0.000990175
0.000990175
0.000990176
0.000990176
0.000990177
0.000990177
0.000990177
0.000990178
0.000990178
0.000990179
0.000990179
0.00099018
0.00099018
0.000990181
0.000990181
0.000990182
0.000990182
0.000990182
0.000990183
0.000990183
0.000990184
0.000990184
0.000990185
0.000990185
0.000990186
0.000990186
0.000990187
0.000990187
0.000990187
0.000990188
0.000990188
0.000990189
0.000990189
0.000990189
0.00099019
0.00099019
0.000990191
0.000990191
0.000990192
0.000990192
0.000990192
0.000990193
0.000990193
0.000990193
0.000990194
0.000990194
0.000990195
0.000990195
0.000990195
0.000990196
0.000990196
0.000990196
0.000990197
0.000990197
0.000990197
0.000990198
0.000990198
0.000990198
0.000990198
0.000990199
0.000990199
0.000990199
0.000990199
0.0009902
0.0009902
0.0009902
0.0009902
0.000990201
0.000990201
0.000990201
0.000990201
0.000990202
0.000990202
0.000990202
0.000990202
0.000990202
0.000990203
0.000990203
0.000990203
0.000990203
0.000990203
0.000990204
0.000990204
0.000990204
0.000990204
0.000990204
0.000990204
0.000990204
0.000990205
0.000990205
0.000990205
0.000990205
0.000990205
0.000990205
0.000990205
0.000990205
0.000990206
0.000990206
0.000990206
0.000990206
0.000990206
0.000990206
0.000990206
0.000990206
0.000990206
0.000990207
0.000990207
0.000990207
0.000990207
0.000990208
0.000990208
0.000990209
0.000990285
0.00100794
4.01845e-005
4.01853e-005
4.01859e-005
4.01865e-005
4.01871e-005
4.01877e-005
4.01883e-005
4.0189e-005
4.01896e-005
4.01903e-005
4.01909e-005
4.01916e-005
4.01923e-005
4.0193e-005
4.01937e-005
4.01945e-005
4.01952e-005
4.01959e-005
4.01967e-005
4.01975e-005
4.01983e-005
4.01991e-005
4.01999e-005
4.02007e-005
4.02015e-005
4.02023e-005
4.02032e-005
4.0204e-005
4.02049e-005
4.02057e-005
4.02066e-005
4.02075e-005
4.02084e-005
4.02092e-005
4.02101e-005
4.0211e-005
4.02119e-005
4.02128e-005
4.02137e-005
4.02146e-005
4.02155e-005
4.02163e-005
4.02172e-005
4.02181e-005
4.0219e-005
4.02199e-005
4.02208e-005
4.02216e-005
4.02225e-005
4.02234e-005
4.02242e-005
4.02251e-005
4.02259e-005
4.02268e-005
4.02276e-005
4.02285e-005
4.02293e-005
4.02301e-005
4.02309e-005
4.02317e-005
4.02325e-005
4.02333e-005
4.02341e-005
4.02348e-005
4.02356e-005
4.02363e-005
4.02371e-005
4.02378e-005
4.02385e-005
4.02392e-005
4.02399e-005
4.02406e-005
4.02413e-005
4.0242e-005
4.02426e-005
4.02433e-005
4.02439e-005
4.02445e-005
4.02452e-005
4.02458e-005
4.02464e-005
4.02469e-005
4.02475e-005
4.02481e-005
4.02486e-005
4.02492e-005
4.02497e-005
4.02502e-005
4.02507e-005
4.02512e-005
4.02517e-005
4.02522e-005
4.02527e-005
4.02531e-005
4.02536e-005
4.0254e-005
4.02544e-005
4.02548e-005
4.02552e-005
4.02556e-005
4.0256e-005
4.02564e-005
4.02568e-005
4.02571e-005
4.02575e-005
4.02578e-005
4.02582e-005
4.02585e-005
4.02588e-005
4.02591e-005
4.02594e-005
4.02597e-005
4.026e-005
4.02603e-005
4.02606e-005
4.02609e-005
4.02611e-005
4.02614e-005
4.02616e-005
4.02618e-005
4.0262e-005
4.02622e-005
4.02624e-005
4.02626e-005
4.02628e-005
4.0263e-005
4.02632e-005
4.02635e-005
4.02637e-005
4.0264e-005
4.02643e-005
4.02646e-005
4.02649e-005
4.02654e-005
4.02659e-005
4.0266e-005
4.02646e-005
3.82429e-005
4.35004e-005
8.75824e-006
8.75771e-006
8.75701e-006
8.75636e-006
8.75565e-006
8.75487e-006
8.75412e-006
8.75331e-006
8.75245e-006
8.75159e-006
8.75073e-006
8.74979e-006
8.74885e-006
8.74792e-006
8.74691e-006
8.74592e-006
8.74492e-006
8.74384e-006
8.7428e-006
8.74175e-006
8.74067e-006
8.73954e-006
8.73843e-006
8.73729e-006
8.73613e-006
8.735e-006
8.73386e-006
8.73266e-006
8.73151e-006
8.73034e-006
8.72912e-006
8.72793e-006
8.72676e-006
8.72555e-006
8.72434e-006
8.72315e-006
8.72195e-006
8.72072e-006
8.71955e-006
8.71834e-006
8.71714e-006
8.71593e-006
8.71475e-006
8.71354e-006
8.71238e-006
8.71116e-006
8.71001e-006
8.70883e-006
8.70768e-006
8.70653e-006
8.70539e-006
8.70427e-006
8.70316e-006
8.70205e-006
8.70093e-006
8.69984e-006
8.69876e-006
8.69771e-006
8.69662e-006
8.69556e-006
8.69453e-006
8.69352e-006
8.69252e-006
8.69153e-006
8.69054e-006
8.68953e-006
8.68853e-006
8.68761e-006
8.68667e-006
8.68576e-006
8.68487e-006
8.68396e-006
8.68307e-006
8.68218e-006
8.68132e-006
8.68048e-006
8.67966e-006
8.67887e-006
8.67808e-006
8.67729e-006
8.67651e-006
8.67573e-006
8.67498e-006
8.67422e-006
8.67351e-006
8.67281e-006
8.67216e-006
8.67148e-006
8.67083e-006
8.67018e-006
8.66952e-006
8.66888e-006
8.66828e-006
8.66765e-006
8.66708e-006
8.66651e-006
8.66596e-006
8.66539e-006
8.66484e-006
8.66433e-006
8.66384e-006
8.66335e-006
8.66289e-006
8.6624e-006
8.66193e-006
8.66147e-006
8.661e-006
8.66056e-006
8.66014e-006
8.65972e-006
8.6593e-006
8.65892e-006
8.65851e-006
8.6581e-006
8.65774e-006
8.65737e-006
8.657e-006
8.65664e-006
8.65629e-006
8.65593e-006
8.65561e-006
8.65527e-006
8.65495e-006
8.65461e-006
8.65428e-006
8.65405e-006
8.65379e-006
8.65349e-006
8.65317e-006
8.65291e-006
8.65261e-006
8.65235e-006
8.65207e-006
8.65184e-006
8.65155e-006
8.65144e-006
8.6885e-006
3.63246e-005
0.00407235
3.43184e-005
3.43123e-005
3.43056e-005
3.42989e-005
3.42921e-005
3.42846e-005
3.42771e-005
3.42692e-005
3.42608e-005
3.42524e-005
3.42437e-005
3.42346e-005
3.42253e-005
3.42157e-005
3.42059e-005
3.41959e-005
3.41857e-005
3.41749e-005
3.41644e-005
3.41533e-005
3.41425e-005
3.41311e-005
3.41197e-005
3.41081e-005
3.40964e-005
3.40846e-005
3.40728e-005
3.40608e-005
3.40489e-005
3.40366e-005
3.40245e-005
3.40123e-005
3.40001e-005
3.39876e-005
3.39753e-005
3.39628e-005
3.39504e-005
3.3938e-005
3.39256e-005
3.39134e-005
3.39008e-005
3.38883e-005
3.3876e-005
3.38639e-005
3.38518e-005
3.38394e-005
3.38272e-005
3.38151e-005
3.38031e-005
3.37913e-005
3.37795e-005
3.3768e-005
3.37563e-005
3.37448e-005
3.37334e-005
3.37222e-005
3.37113e-005
3.37e-005
3.36889e-005
3.36783e-005
3.36675e-005
3.36571e-005
3.36467e-005
3.36367e-005
3.36264e-005
3.36165e-005
3.36065e-005
3.35968e-005
3.35872e-005
3.3578e-005
3.35687e-005
3.35596e-005
3.35505e-005
3.35416e-005
3.35328e-005
3.35242e-005
3.35157e-005
3.35077e-005
3.34995e-005
3.34915e-005
3.34836e-005
3.34759e-005
3.34682e-005
3.34607e-005
3.34533e-005
3.3446e-005
3.34391e-005
3.34325e-005
3.34257e-005
3.3419e-005
3.34125e-005
3.34061e-005
3.34e-005
3.33938e-005
3.33879e-005
3.33822e-005
3.33764e-005
3.33707e-005
3.33652e-005
3.336e-005
3.33549e-005
3.335e-005
3.33448e-005
3.33402e-005
3.33352e-005
3.33308e-005
3.33261e-005
3.33219e-005
3.33175e-005
3.33132e-005
3.33091e-005
3.33053e-005
3.33011e-005
3.32971e-005
3.32931e-005
3.32892e-005
3.32852e-005
3.32814e-005
3.32779e-005
3.32741e-005
3.32708e-005
3.32673e-005
3.32639e-005
3.32607e-005
3.32572e-005
3.32542e-005
3.32507e-005
3.32474e-005
3.32439e-005
3.32406e-005
3.32371e-005
3.32339e-005
3.32301e-005
3.32266e-005
3.32224e-005
3.32205e-005
3.38528e-005
0.000564564
0.0354255
0.000151091
0.000151072
0.000151053
0.000151035
0.000151015
0.000150994
0.000150972
0.00015095
0.000150927
0.000150902
0.000150877
0.000150851
0.000150824
0.000150797
0.000150768
0.000150739
0.000150708
0.000150678
0.000150646
0.000150614
0.000150582
0.000150549
0.000150515
0.000150482
0.000150447
0.000150414
0.000150378
0.000150344
0.000150308
0.000150273
0.000150237
0.000150202
0.000150165
0.000150129
0.000150093
0.000150056
0.00015002
0.000149984
0.000149949
0.00014991
0.000149874
0.000149839
0.000149803
0.000149766
0.000149731
0.000149695
0.00014966
0.000149625
0.000149589
0.000149556
0.000149521
0.000149486
0.000149453
0.000149419
0.000149386
0.000149353
0.00014932
0.000149288
0.000149257
0.000149225
0.000149193
0.000149162
0.000149134
0.000149102
0.000149073
0.000149044
0.000149014
0.000148986
0.000148958
0.00014893
0.000148903
0.000148876
0.000148849
0.000148824
0.000148798
0.000148773
0.000148748
0.000148724
0.000148701
0.000148676
0.000148653
0.00014863
0.000148608
0.000148586
0.000148564
0.000148544
0.000148524
0.000148503
0.000148484
0.000148464
0.000148445
0.000148427
0.000148408
0.00014839
0.000148373
0.000148355
0.000148339
0.000148322
0.000148307
0.000148291
0.000148276
0.000148261
0.000148248
0.000148233
0.00014822
0.000148205
0.000148191
0.000148178
0.000148167
0.000148155
0.000148143
0.000148131
0.00014812
0.000148109
0.000148099
0.000148087
0.000148078
0.000148066
0.000148055
0.000148044
0.000148033
0.000148023
0.000148011
0.000148001
0.000147992
0.000147981
0.000147973
0.000147962
0.000147952
0.000147943
0.000147931
0.000147922
0.00014791
0.0001479
0.00014789
0.000147878
0.000152871
0.00312246
0.0974736
0.000240754
0.000240743
0.000240732
0.000240721
0.000240709
0.000240696
0.000240683
0.000240669
0.000240654
0.000240639
0.000240625
0.000240607
0.000240591
0.000240574
0.000240556
0.000240538