/*--------------------------------*- C++ -*----------------------------------*\
| =========                 |                                                 |
| \\      /  F ield         | OpenFOAM: The Open Source CFD Toolbox           |
|  \\    /   O peration     | Version:  5.x                                   |
|   \\  /    A nd           | Web:      www.OpenFOAM.org                      |
|    \\/     M anipulation  |                                                 |
\*---------------------------------------------------------------------------*/
/*   Windows 32 and 64 bit porting by blueCAPE: http://www.bluecape.com.pt   *\
|  Based on Windows porting (2.0.x v4) by Symscape: http://www.symscape.com   |
\*---------------------------------------------------------------------------*/
FoamFile
{
    version     2.0;
    format      ascii;
    class       volScalarField;
    location    "40";
    object      nut;
}
// * * * * * * * * * * * * * * * * * * * * * * * * * * * * * * * * * * * * * //

dimensions      [0 2 -1 0 0 0 0];

internalField   nonuniform List<scalar> 
43900
(
5.81903e-005
5.80605e-005
5.80648e-005
5.80619e-005
5.8062e-005
5.80621e-005
5.80621e-005
5.80622e-005
5.80622e-005
5.80623e-005
5.80623e-005
5.80623e-005
5.80624e-005
5.80624e-005
5.80624e-005
5.80624e-005
5.80625e-005
5.80625e-005
5.80625e-005
5.80625e-005
5.80626e-005
5.80626e-005
5.80626e-005
5.80626e-005
5.80626e-005
5.80627e-005
5.80627e-005
5.80627e-005
5.80627e-005
0.00017703
4.52803e-006
4.31706e-006
4.47575e-006
4.47708e-006
4.4772e-006
4.47727e-006
4.47734e-006
4.47742e-006
4.47748e-006
4.47754e-006
4.4776e-006
4.47766e-006
4.47772e-006
4.47777e-006
4.47783e-006
4.47788e-006
4.47792e-006
4.47797e-006
4.47802e-006
4.47807e-006
4.47813e-006
4.47818e-006
4.47823e-006
4.47828e-006
4.47834e-006
4.47839e-006
4.47843e-006
4.47846e-006
0.0338588
0.001773
1.28699e-005
2.94534e-006
2.90799e-006
2.908e-006
2.90795e-006
2.90794e-006
2.9079e-006
2.90783e-006
2.90776e-006
2.90769e-006
2.90761e-006
2.90756e-006
2.90747e-006
2.90736e-006
2.90725e-006
2.90713e-006
2.90699e-006
2.90683e-006
2.90668e-006
2.90642e-006
2.90624e-006
2.90607e-006
2.90588e-006
2.90541e-006
2.90517e-006
2.90492e-006
2.90462e-006
0.163947
0.0318661
0.000904436
4.96933e-005
4.65302e-005
4.65277e-005
4.6535e-005
4.65416e-005
4.65467e-005
4.6551e-005
4.65543e-005
4.65565e-005
4.65582e-005
4.65595e-005
4.65598e-005
4.65594e-005
4.65585e-005
4.65568e-005
4.65544e-005
4.6551e-005
4.65474e-005
4.65428e-005
4.6538e-005
4.6532e-005
4.65255e-005
4.65171e-005
4.6508e-005
4.64981e-005
4.64894e-005
0.244052
0.0761877
0.0046392
0.000453917
0.000463215
0.000463262
0.000463305
0.000463337
0.000463368
0.000463393
0.00046341
0.000463428
0.000463437
0.000463448
0.000463451
0.000463454
0.000463447
0.000463442
0.00046343
0.000463417
0.000463395
0.000463384
0.000463359
0.00046333
0.000463293
0.000463248
0.000463195
0.000463143
0.000463101
0.268893
0.0940122
0.00733546
0.000777305
0.000794862
0.000794898
0.000794908
0.000794922
0.000794928
0.000794938
0.000794943
0.000794941
0.000794945
0.000794943
0.000794939
0.000794926
0.000794924
0.000794916
0.000794904
0.000794885
0.000794872
0.00079486
0.000794844
0.000794818
0.000794798
0.000794768
0.000794737
0.000794701
0.000794676
0.273751
0.0982323
0.00812679
0.000891797
0.000913171
0.000913205
0.000913209
0.000913208
0.00091321
0.000913207
0.000913209
0.000913206
0.000913203
0.000913197
0.000913195
0.000913191
0.000913186
0.000913177
0.00091317
0.000913161
0.000913154
0.000913146
0.000913138
0.000913125
0.000913114
0.0009131
0.000913086
0.000913073
0.000913055
0.272628
0.0980642
0.00814999
0.000925373
0.000948039
0.000948076
0.000948082
0.000948075
0.00094808
0.000948073
0.000948074
0.000948077
0.00094807
0.000948066
0.000948065
0.000948069
0.000948057
0.000948057
0.000948054
0.000948055
0.000948042
0.000948045
0.00094804
0.00094804
0.000948028
0.000948022
0.000948015
0.000948013
0.000948004
0.269542
0.096448
0.00795188
0.00093507
0.000956969
0.000957017
0.000957012
0.000957017
0.000957011
0.000957016
0.000957007
0.000957009
0.000957005
0.000957013
0.000957007
0.00095701
0.000957003
0.000956999
0.000956999
0.000957002
0.000956999
0.000957
0.00095699
0.000956995
0.00095699
0.000956987
0.000956986
0.000956988
0.000956985
0.2655
0.0938203
0.00755814
0.000936184
0.000959016
0.000959086
0.00095907
0.000959086
0.00095907
0.000959084
0.000959065
0.000959066
0.000959065
0.000959082
0.000959062
0.00095906
0.000959068
0.000959063
0.000959063
0.000959065
0.000959069
0.000959065
0.000959054
0.000959058
0.000959061
0.000959068
0.000959062
0.000959048
0.000959059
0.261307
0.0912692
0.00720632
0.0009351
0.000959449
0.000959536
0.000959519
0.000959534
0.000959521
0.000959534
0.000959517
0.000959517
0.000959515
0.000959532
0.000959521
0.000959493
0.00095951
0.000959517
0.000959515
0.000959515
0.000959511
0.000959513
0.000959508
0.000959511
0.000959503
0.00095952
0.000959501
0.000959499
0.000959508
0.256724
0.0885561
0.00684893
0.000933651
0.000959535
0.000959635
0.000959626
0.000959636
0.000959625
0.000959635
0.000959626
0.000959623
0.000959624
0.000959633
0.000959628
0.000959597
0.000959603
0.00095962
0.000959621
0.000959621
0.000959608
0.000959618
0.000959617
0.000959617
0.000959596
0.00095962
0.000959606
0.000959604
0.000959602
0.25175
0.0856592
0.00648209
0.00093217
0.000959553
0.000959668
0.000959666
0.000959669
0.000959665
0.000959667
0.000959661
0.000959662
0.000959657
0.000959664
0.000959657
0.00095964
0.000959636
0.000959658
0.000959659
0.000959659
0.000959636
0.000959656
0.000959656
0.000959655
0.000959621
0.000959649
0.000959645
0.000959633
0.000959627
0.246359
0.0825764
0.00610871
0.000930612
0.000959552
0.000959691
0.000959687
0.000959689
0.000959688
0.00095969
0.000959688
0.000959689
0.00095968
0.000959686
0.000959672
0.000959672
0.000959667
0.000959685
0.000959685
0.000959685
0.000959662
0.00095968
0.000959682
0.000959682
0.000959645
0.000959672
0.000959673
0.000959651
0.000959651
0.240511
0.0793014
0.00573091
0.000928976
0.000959542
0.000959719
0.00095972
0.000959718
0.000959715
0.000959719
0.000959719
0.000959718
0.000959713
0.000959712
0.000959698
0.000959702
0.000959706
0.000959716
0.000959716
0.000959714
0.000959696
0.00095971
0.000959711
0.000959708
0.000959687
0.000959705
0.000959705
0.000959676
0.000959686
0.234176
0.0758335
0.00535134
0.000927311
0.00095953
0.000959758
0.000959758
0.00095976
0.00095976
0.000959761
0.00095976
0.000959758
0.000959752
0.000959751
0.000959747
0.000959748
0.000959741
0.000959747
0.000959747
0.000959747
0.000959727
0.000959746
0.000959746
0.000959747
0.000959733
0.000959741
0.000959742
0.000959713
0.00095973
0.22733
0.0721788
0.0049734
0.000925647
0.000959514
0.000959805
0.0009598
0.000959806
0.000959806
0.000959805
0.000959806
0.000959805
0.000959801
0.000959808
0.000959808
0.000959804
0.000959783
0.000959786
0.000959787
0.000959787
0.000959774
0.000959782
0.000959783
0.000959782
0.000959759
0.00095977
0.000959772
0.000959758
0.000959771
0.219957
0.0683491
0.00460094
0.000923996
0.000959508
0.000959866
0.000959867
0.000959866
0.000959868
0.000959869
0.000959866
0.000959863
0.000959862
0.000959865
0.000959862
0.000959857
0.000959841
0.000959847
0.000959849
0.000959849
0.000959844
0.000959842
0.000959838
0.00095983
0.000959787
0.000959803
0.000959805
0.000959822
0.000959826
0.212045
0.0643627
0.00423811
0.000922374
0.000959511
0.00095995
0.000959955
0.000959958
0.000959959
0.000959955
0.000959955
0.000959956
0.000959957
0.000959944
0.000959941
0.000959937
0.000959924
0.000959927
0.000959928
0.000959926
0.00095991
0.000959902
0.0009599
0.000959895
0.000959868
0.000959872
0.000959878
0.000959886
0.000959888
0.203592
0.0602436
0.00388901
0.000920797
0.000959512
0.000960073
0.000960082
0.000960076
0.000960074
0.000960066
0.000960072
0.000960076
0.000960073
0.000960053
0.000960049
0.000960046
0.000960038
0.000960036
0.000960033
0.000960024
0.000959987
0.000959985
0.000959987
0.000959985
0.000959985
0.000959993
0.000959999
0.000959987
0.000959974
0.194603
0.0560217
0.00355758
0.000919279
0.00095952
0.000960226
0.000960229
0.000960222
0.000960221
0.00096022
0.000960218
0.000960206
0.000960196
0.000960188
0.000960186
0.000960187
0.000960173
0.000960166
0.000960162
0.000960152
0.000960117
0.000960128
0.000960135
0.000960141
0.000960147
0.000960143
0.000960133
0.000960108
0.000960083
0.185097
0.051734
0.00324738
0.000917835
0.000959543
0.000960405
0.000960415
0.000960415
0.000960414
0.000960407
0.000960398
0.000960397
0.000960399
0.000960398
0.000960387
0.000960358
0.000960343
0.00096034
0.000960341
0.000960333
0.000960309
0.00096031
0.00096031
0.000960308
0.000960297
0.000960285
0.000960278
0.000960263
0.000960241
0.175103
0.0474222
0.00296132
0.000916492
0.000959585
0.000960648
0.000960676
0.000960672
0.000960667
0.000960664
0.00096066
0.00096065
0.00096064
0.00096063
0.000960616
0.000960583
0.00096057
0.000960566
0.000960565
0.000960566
0.000960557
0.000960556
0.000960545
0.000960531
0.000960491
0.000960478
0.000960472
0.000960458
0.000960435
0.164668
0.043133
0.00270154
0.000915291
0.000959664
0.000960977
0.000961003
0.000960994
0.000960989
0.000960984
0.000960969
0.000960941
0.000960932
0.000960927
0.000960922
0.000960904
0.000960902
0.000960897
0.000960892
0.000960876
0.000960863
0.000960837
0.00096081
0.000960783
0.000960743
0.00096072
0.000960709
0.000960696
0.000960677
0.153852
0.0389166
0.00246932
0.000914307
0.000959767
0.000961375
0.000961405
0.000961404
0.000961398
0.000961379
0.000961372
0.000961372
0.000961368
0.000961357
0.000961339
0.000961293
0.000961271
0.000961258
0.000961247
0.000961239
0.000961222
0.000961194
0.000961171
0.000961118
0.000961064
0.000961033
0.000961031
0.000961027
0.000961015
0.142733
0.0348237
0.0022649
0.000913621
0.000959928
0.000961885
0.000961937
0.000961928
0.000961916
0.000961902
0.000961898
0.000961877
0.000961852
0.000961825
0.000961803
0.000961741
0.000961724
0.000961722
0.000961709
0.000961693
0.000961672
0.000961638
0.000961609
0.000961575
0.000961551
0.000961549
0.000961508
0.000961463
0.000961431
0.131407
0.0309042
0.00208765
0.000913365
0.000960164
0.000962522
0.000962598
0.000962568
0.000962555
0.000962531
0.00096249
0.000962458
0.000962432
0.000962429
0.000962413
0.000962367
0.000962353
0.000962336
0.000962335
0.000962311
0.000962281
0.000962274
0.000962229
0.000962186
0.000962152
0.000962047
0.000962032
0.000961997
0.000961897
0.119983
0.027204
0.00193615
0.000913687
0.000960495
0.000963298
0.000963354
0.000963324
0.000963301
0.000963282
0.000963257
0.000963249
0.000963251
0.000963232
0.000963225
0.000963154
0.000963092
0.000963072
0.000963033
0.000962992
0.00096299
0.000962905
0.000962885
0.000962845
0.000962702
0.000962721
0.000962643
0.000962537
0.000962571
0.108587
0.0237625
0.00180832
0.00091475
0.000960967
0.000964249
0.00096432
0.000964305
0.0009643
0.000964295
0.000964275
0.000964246
0.000964205
0.000964187
0.000964152
0.000964112
0.000964106
0.000964053
0.000963981
0.000963954
0.000963802
0.00096382
0.000963743
0.000963601
0.000963679
0.000963485
0.000963447
0.000963478
0.000963223
0.0973513
0.0206101
0.00170177
0.000916753
0.000961616
0.000965413
0.000965524
0.000965532
0.000965532
0.000965538
0.00096551
0.00096545
0.000965409
0.000965349
0.00096532
0.000965305
0.000965199
0.000965191
0.000965165
0.000965019
0.000965078
0.000964893
0.000964811
0.000964866
0.000964513
0.000964645
0.000964555
0.000964201
0.000964364
0.0864147
0.0177664
0.00161391
0.000919882
0.00096253
0.000966751
0.000966965
0.000966963
0.000966914
0.000966887
0.000966883
0.000966854
0.000966798
0.000966777
0.000966757
0.000966645
0.000966651
0.00096655
0.000966449
0.000966541
0.00096622
0.000966305
0.000966261
0.000965818
0.000966045
0.000965678
0.000965511
0.00096571
0.000965242
0.075914
0.0152395
0.00154219
0.0009243
0.00096378
0.000968386
0.000968713
0.00096868
0.000968673
0.000968643
0.000968624
0.000968539
0.000968504
0.000968434
0.000968342
0.000968389
0.000968218
0.000968208
0.000968225
0.000967833
0.000968032
0.000967761
0.000967453
0.000967732
0.000967246
0.000967262
0.000967334
0.000966743
0.000966905
0.0659768
0.0130254
0.00148419
0.000930194
0.000965426
0.000970366
0.000970763
0.000970742
0.000970692
0.000970698
0.00097065
0.000970644
0.000970564
0.000970519
0.00097051
0.000970282
0.000970385
0.000970266
0.000969943
0.000970167
0.000969728
0.00096967
0.000969886
0.000969258
0.000969331
0.000969249
0.000968616
0.000968789
0.000968344
0.0567152
0.0111103
0.00143776
0.000937681
0.000967628
0.000972608
0.000973082
0.000973081
0.000973033
0.000972948
0.000972979
0.000972881
0.000972942
0.000972892
0.000972743
0.000972892
0.000972573
0.000972543
0.000972632
0.000972194
0.000972299
0.000972281
0.000971607
0.00097182
0.000971641
0.000971228
0.000971284
0.000970623
0.000970665
0.0482188
0.00947159
0.00140094
0.000946788
0.000970485
0.000975187
0.00097571
0.000975774
0.000975687
0.000975684
0.00097556
0.000975652
0.000975503
0.00097554
0.00097564
0.0009753
0.0009756
0.000975429
0.000975039
0.000975347
0.000975069
0.00097467
0.000974911
0.00097431
0.000974125
0.000974111
0.000973546
0.000973491
0.000972893
0.0405499
0.00808154
0.00137197
0.000957517
0.000974011
0.000978212
0.000978744
0.0009788
0.00097881
0.000978719
0.000978843
0.000978647
0.000978793
0.000978756
0.000978549
0.000978933
0.000978366
0.000978844
0.000978832
0.000977977
0.000978495
0.000978513
0.000977575
0.000977681
0.000977578
0.000976993
0.000977004
0.000976377
0.000975927
0.0337409
0.00690957
0.00134929
0.000969726
0.000978293
0.000981713
0.000982164
0.000982249
0.000982237
0.000982368
0.000982243
0.000982481
0.000982391
0.00098235
0.000982601
0.000982207
0.000982911
0.000982112
0.00098196
0.000983014
0.000981893
0.00098162
0.000982395
0.000982027
0.00098075
0.000981004
0.000980553
0.000980297
0.000980023
0.0277944
0.00592506
0.00133144
0.000983194
0.000983437
0.000985667
0.000985951
0.000986017
0.000986103
0.000986115
0.000986425
0.000986374
0.000986502
0.000986766
0.000986624
0.00098708
0.000986322
0.000987181
0.000987523
0.000986275
0.000986929
0.000987263
0.00098598
0.000985818
0.000986732
0.000985436
0.000984974
0.000984639
0.000983831
0.022685
0.00509924
0.0013171
0.00099727
0.000989412
0.000990041
0.000990067
0.000990126
0.000990208
0.000990429
0.00099053
0.000990958
0.000991043
0.000991314
0.000991623
0.00099136
0.00099255
0.000991619
0.0009914
0.000992685
0.000992314
0.000991109
0.000992284
0.000992311
0.000990649
0.00099112
0.000990744
0.000990383
0.000989476
0.0183642
0.00440649
0.00130497
0.00101142
0.000996021
0.000994815
0.000994462
0.000994567
0.000994604
0.000994906
0.000995373
0.000995424
0.000996329
0.000996124
0.000996357
0.000997679
0.000996711
0.000998125
0.000998618
0.000997402
0.000997798
0.000999348
0.000997625
0.000997532
0.000998538
0.000997332
0.000997004
0.00099546
0.000995947
0.0147653
0.00382489
0.00129386
0.00102537
0.00100307
0.000999835
0.000999217
0.000999186
0.000999505
0.00099961
0.000999996
0.00100122
0.00100079
0.00100192
0.00100262
0.00100236
0.00100388
0.00100354
0.00100376
0.00100584
0.00100547
0.00100423
0.00100636
0.00100563
0.00100472
0.00100484
0.00100429
0.00100482
0.00100257
0.0118103
0.0033362
0.0012827
0.00103838
0.00101023
0.00100516
0.00100402
0.00100417
0.00100419
0.00100489
0.00100559
0.00100551
0.00100746
0.00100765
0.00100775
0.00100908
0.00100993
0.00101157
0.00101104
0.00101153
0.00101304
0.00101464
0.00101286
0.00101506
0.00101357
0.00101386
0.00101433
0.00101167
0.00101235
0.00941594
0.00292555
0.00127062
0.00104959
0.00101734
0.00101045
0.00100918
0.00100898
0.00100967
0.00100985
0.00101032
0.00101253
0.00101206
0.00101325
0.00101529
0.00101556
0.00101662
0.00101709
0.00102078
0.00102103
0.00102087
0.00102133
0.00102408
0.00102321
0.00102613
0.00102448
0.00102257
0.00102452
0.00102202
0.0074988
0.00258088
0.00125695
0.00105883
0.00102395
0.0010159
0.00101403
0.00101427
0.0010143
0.00101533
0.00101673
0.0010165
0.00101932
0.00101994
0.00102023
0.00102335
0.0010239
0.00102638
0.00102742
0.00102777
0.0010325
0.00103335
0.00103335
0.00103541
0.00103453
0.00103698
0.00103778
0.00103569
0.00103602
0.00597997
0.00229217
0.00124124
0.001066
0.00103001
0.00102093
0.00101919
0.00101897
0.00101984
0.00102045
0.00102082
0.00102433
0.00102396
0.00102547
0.00102971
0.00102932
0.00103168
0.00103299
0.00103501
0.00104174
0.00104085
0.00104268
0.00104729
0.00104729
0.00105071
0.00104935
0.00105093
0.00105168
0.00104951
0.00478772
0.00205069
0.00122338
0.00107031
0.0010351
0.00102587
0.00102378
0.00102398
0.00102437
0.00102515
0.00102818
0.00102787
0.00103123
0.0010332
0.00103364
0.00103721
0.00103906
0.00104396
0.00104579
0.00104683
0.00105374
0.00105506
0.00105768
0.00106442
0.00106381
0.00106908
0.00106694
0.00106802
0.00106859
0.00385912
0.00184894
0.00120359
0.00107218
0.00103927
0.00103016
0.00102836
0.00102844
0.00102892
0.00103112
0.00103121
0.00103506
0.00103592
0.00103736
0.00104176
0.00104424
0.00104896
0.0010495
0.00105332
0.00106005
0.00106229
0.0010704
0.00107208
0.00107531
0.00108425
0.00108354
0.0010902
0.00108902
0.00108919
0.00314066
0.0016806
0.0011824
0.00107192
0.0010424
0.00103399
0.00103252
0.00103253
0.00103391
0.00103407
0.00103784
0.00103861
0.00104156
0.00104433
0.00104769
0.00105073
0.00105266
0.00106113
0.00106377
0.00106714
0.00107583
0.00107908
0.00109046
0.00109394
0.00109772
0.00111058
0.00110969
0.00111651
0.00111575
0.002588
0.00154041
0.00116063
0.00107002
0.00104456
0.00103737
0.00103605
0.00103675
0.00103668
0.00104003
0.00104073
0.00104389
0.00104614
0.00105118
0.00105193
0.00105559
0.00106366
0.00106574
0.0010734
0.00108126
0.00108381
0.00109337
0.00109911
0.00111519
0.00112243
0.00112731
0.0011433
0.00114202
0.00114712
0.00216514
0.0014241
0.00113919
0.00106696
0.001046
0.00103993
0.00103961
0.0010394
0.00104189
0.00104227
0.00104536
0.0010482
0.00105133
0.00105319
0.0010593
0.00106379
0.0010667
0.00107549
0.00107872
0.00108688
0.00109873
0.00110465
0.00112015
0.0011269
0.0011476
0.0011565
0.00116357
0.00118422
0.00118411
0.00184347
0.00132828
0.00111895
0.00106331
0.00104669
0.00104246
0.00104193
0.00104323
0.00104357
0.00104661
0.00104857
0.00105079
0.00105417
0.00105982
0.00106391
0.00106694
0.00107524
0.00107859
0.00109065
0.00109347
0.00110632
0.00112036
0.00112873
0.00114729
0.00115903
0.00118968
0.00120394
0.00121229
0.00123473
0.00160045
0.00125018
0.00110064
0.00105942
0.0010471
0.00104413
0.0010445
0.0010446
0.00104741
0.00104822
0.00105201
0.00105412
0.00105886
0.00106214
0.00106576
0.00107341
0.00107795
0.00108784
0.00109246
0.00110801
0.00111361
0.0011311
0.0011412
0.0011583
0.00118311
0.00120263
0.00124819
0.00127208
0.00128148
0.00141868
0.00118766
0.00108484
0.00105579
0.00104714
0.0010458
0.00104593
0.00104715
0.00104862
0.00105073
0.0010552
0.00105679
0.00106188
0.00106465
0.00107084
0.0010751
0.00108304
0.00108941
0.00110101
0.00110738
0.00112768
0.00113545
0.0011588
0.00117359
0.001204
0.00123265
0.00126989
0.00132051
0.00137936
0.00128447
0.00113866
0.00107168
0.00105246
0.00104715
0.00104675
0.00104722
0.00104807
0.00105097
0.00105204
0.00105784
0.00105831
0.00106658
0.0010672
0.00107457
0.00107864
0.0010881
0.00109309
0.00110598
0.00111272
0.00112323
0.00115289
0.00116426
0.00118606
0.00121659
0.00124535
0.00130164
0.00134309
0.0014381
0.0011879
0.00110174
0.0010615
0.00104992
0.00104732
0.00104745
0.00104825
0.00104919
0.00105323
0.00105368
0.00106009
0.00106054
0.00106769
0.00106914
0.0010785
0.0010802
0.00109135
0.00109562
0.00110826
0.00111353
0.00112632
0.00113046
0.0011292
0.00110842
0.00107551
0.00102999
0.00103021
0.00100918
0.00107275
0.00111992
0.00107486
0.00105334
0.00104756
0.00104707
0.00104742
0.00104816
0.00105055
0.00105207
0.00105483
0.00106045
0.00106196
0.00106934
0.00107034
0.0010775
0.00107098
0.00104988
0.00100398
0.00101792
0.00111043
0.00171299
0.00225077
0.00406359
0.00527432
0.00695105
0.0113082
0.0124756
0.0155265
0.0129902
0.00107663
0.00105627
0.00104855
0.00104785
0.00104845
0.00105057
0.00105237
0.00105594
0.00106177
0.00105957
0.0010512
0.00102543
0.00106097
0.00113228
0.00170166
0.0022818
0.00444292
0.00617133
0.011255
0.0147391
0.0238643
0.0291041
0.0419223
0.0495701
0.0589644
0.0785898
0.0839219
0.106701
0.0898127
0.00104913
0.00105208
0.00106102
0.00108245
0.00111497
0.00117812
0.00120468
0.00131944
0.00177092
0.00207213
0.00339151
0.00452037
0.00833532
0.0106991
0.01754
0.0219227
0.0329949
0.0397282
0.0542282
0.0636539
0.0815254
0.0928953
0.11402
0.131173
0.147593
0.183015
0.195381
0.247829
0.236874
0.00105742
0.0011721
0.00143231
0.00199084
0.00273289
0.00402485
0.00523134
0.00731127
0.0112431
0.0133544
0.0193957
0.023604
0.0335609
0.0393768
0.0518343
0.0596669
0.0754873
0.0863322
0.104131
0.119631
0.139892
0.158499
0.182996
0.208972
0.232093
0.279062
0.300361
0.374723
0.383553
5.80627e-005
5.80628e-005
5.80628e-005
5.80628e-005
5.80628e-005
5.80629e-005
5.80629e-005
5.80629e-005
5.80629e-005
5.8063e-005
5.8063e-005
5.8063e-005
5.80631e-005
5.80631e-005
5.80631e-005
5.80631e-005
5.80632e-005
5.80632e-005
5.80632e-005
5.80633e-005
5.80633e-005
5.80633e-005
5.80633e-005
5.80634e-005
5.80634e-005
5.80634e-005
5.80635e-005
5.80635e-005
5.80635e-005
5.80636e-005
5.80636e-005
5.80636e-005
5.80637e-005
5.80637e-005
5.80638e-005
5.80638e-005
5.80638e-005
5.80639e-005
5.80639e-005
5.80639e-005
5.8064e-005
5.8064e-005
5.8064e-005
5.80641e-005
5.80641e-005
5.80641e-005
5.80642e-005
5.80642e-005
5.80642e-005
5.80643e-005
5.80643e-005
5.80643e-005
5.80644e-005
5.80644e-005
5.80644e-005
5.80645e-005
5.80645e-005
5.80645e-005
5.80646e-005
5.80646e-005
5.80646e-005
5.80647e-005
5.80647e-005
5.80647e-005
5.80648e-005
5.80648e-005
5.80648e-005
5.80648e-005
5.80649e-005
5.80649e-005
5.80649e-005
5.8065e-005
5.8065e-005
5.8065e-005
5.8065e-005
5.80651e-005
5.80651e-005
5.80651e-005
5.80651e-005
5.80652e-005
5.80652e-005
5.80652e-005
5.80652e-005
5.80652e-005
5.80653e-005
5.80653e-005
5.80653e-005
5.80653e-005
5.80654e-005
5.80654e-005
5.80654e-005
5.80654e-005
5.80654e-005
5.80654e-005
5.80655e-005
5.80655e-005
5.80655e-005
5.80655e-005
5.80655e-005
5.80655e-005
5.80656e-005
5.80656e-005
5.80656e-005
5.80656e-005
5.80656e-005
5.80656e-005
5.80656e-005
5.80657e-005
5.80657e-005
5.80657e-005
5.80657e-005
5.80657e-005
5.80657e-005
5.80657e-005
5.80657e-005
5.80658e-005
5.80658e-005
5.80658e-005
5.80658e-005
5.80658e-005
5.80658e-005
5.80658e-005
5.80658e-005
5.80658e-005
5.80658e-005
5.80658e-005
5.80658e-005
5.80658e-005
5.80659e-005
5.80659e-005
5.80659e-005
5.80659e-005
5.80659e-005
5.80659e-005
5.8066e-005
5.8066e-005
5.80661e-005
5.80726e-005
5.93073e-005
4.47852e-006
4.47861e-006
4.47868e-006
4.47875e-006
4.47882e-006
4.4789e-006
4.47897e-006
4.47905e-006
4.47913e-006
4.47921e-006
4.47929e-006
4.47937e-006
4.47945e-006
4.47954e-006
4.47963e-006
4.47971e-006
4.47981e-006
4.4799e-006
4.47999e-006
4.48009e-006
4.48018e-006
4.48028e-006
4.48038e-006
4.48048e-006
4.48058e-006
4.48068e-006
4.48078e-006
4.48089e-006
4.48099e-006
4.4811e-006
4.4812e-006
4.48131e-006
4.48142e-006
4.48152e-006
4.48163e-006
4.48174e-006
4.48185e-006
4.48196e-006
4.48207e-006
4.48218e-006
4.48229e-006
4.48239e-006
4.4825e-006
4.48261e-006
4.48272e-006
4.48283e-006
4.48294e-006
4.48304e-006
4.48315e-006
4.48326e-006
4.48336e-006
4.48347e-006
4.48357e-006
4.48367e-006
4.48377e-006
4.48388e-006
4.48398e-006
4.48408e-006
4.48418e-006
4.48427e-006
4.48437e-006
4.48447e-006
4.48456e-006
4.48466e-006
4.48475e-006
4.48484e-006
4.48493e-006
4.48502e-006
4.48511e-006
4.48519e-006
4.48528e-006
4.48536e-006
4.48544e-006
4.48553e-006
4.48561e-006
4.48569e-006
4.48576e-006
4.48584e-006
4.48592e-006
4.48599e-006
4.48606e-006
4.48613e-006
4.4862e-006
4.48627e-006
4.48634e-006
4.48641e-006
4.48647e-006
4.48654e-006
4.4866e-006
4.48666e-006
4.48672e-006
4.48678e-006
4.48683e-006
4.48689e-006
4.48694e-006
4.487e-006
4.48705e-006
4.4871e-006
4.48715e-006
4.4872e-006
4.48725e-006
4.48729e-006
4.48734e-006
4.48738e-006
4.48742e-006
4.48747e-006
4.48751e-006
4.48755e-006
4.48759e-006
4.48763e-006
4.48767e-006
4.4877e-006
4.48774e-006
4.48778e-006
4.48781e-006
4.48785e-006
4.48788e-006
4.48791e-006
4.48794e-006
4.48797e-006
4.48799e-006
4.48802e-006
4.48804e-006
4.48807e-006
4.48809e-006
4.48812e-006
4.48815e-006
4.48818e-006
4.48821e-006
4.48824e-006
4.48828e-006
4.48832e-006
4.48836e-006
4.48841e-006
4.48848e-006
4.48849e-006
4.48817e-006
4.15648e-006
4.94759e-006
2.90436e-006
2.90404e-006
2.90364e-006
2.90327e-006
2.90286e-006
2.90242e-006
2.90199e-006
2.90154e-006
2.90105e-006
2.90057e-006
2.90009e-006
2.89956e-006
2.89904e-006
2.89852e-006
2.89796e-006
2.8974e-006
2.89684e-006
2.89624e-006
2.89567e-006
2.89508e-006
2.89448e-006
2.89385e-006
2.89323e-006
2.89257e-006
2.89193e-006
2.8913e-006
2.89066e-006
2.88999e-006
2.88935e-006
2.88869e-006
2.88802e-006
2.88735e-006
2.8867e-006
2.88602e-006
2.88535e-006
2.88468e-006
2.88402e-006
2.88333e-006
2.88267e-006
2.882e-006
2.88133e-006
2.88065e-006
2.87999e-006
2.87932e-006
2.87867e-006
2.87799e-006
2.87734e-006
2.87669e-006
2.87605e-006
2.8754e-006
2.87476e-006
2.87414e-006
2.87352e-006
2.87289e-006
2.87227e-006
2.87166e-006
2.87106e-006
2.87047e-006
2.86986e-006
2.86927e-006
2.86869e-006
2.86812e-006
2.86756e-006
2.86701e-006
2.86646e-006
2.86587e-006
2.86531e-006
2.86479e-006
2.86427e-006
2.86376e-006
2.86326e-006
2.86275e-006
2.86226e-006
2.86176e-006
2.86128e-006
2.86081e-006
2.86035e-006
2.8599e-006
2.85947e-006
2.85902e-006
2.85858e-006
2.85815e-006
2.85773e-006
2.85731e-006
2.85691e-006
2.85652e-006
2.85615e-006
2.85578e-006
2.85541e-006
2.85505e-006
2.85468e-006
2.85432e-006
2.85399e-006
2.85364e-006
2.85332e-006
2.853e-006
2.85269e-006
2.85238e-006
2.85207e-006
2.85179e-006
2.85151e-006
2.85124e-006
2.85098e-006
2.85071e-006
2.85045e-006
2.8502e-006
2.84993e-006
2.84969e-006
2.84946e-006
2.84923e-006
2.84899e-006
2.84878e-006
2.84855e-006
2.84832e-006
2.84812e-006
2.84792e-006
2.84772e-006
2.84752e-006
2.84734e-006
2.84714e-006
2.84697e-006
2.8468e-006
2.84663e-006
2.84646e-006
2.84629e-006
2.84618e-006
2.84605e-006
2.8459e-006
2.84575e-006
2.84562e-006
2.84548e-006
2.84536e-006
2.84523e-006
2.84515e-006
2.84497e-006
2.84503e-006
2.86429e-006
2.17591e-005
0.00273233
4.64786e-005
4.6466e-005
4.64524e-005
4.64386e-005
4.64246e-005
4.64094e-005
4.6394e-005
4.63779e-005
4.63607e-005
4.63435e-005
4.63259e-005
4.63071e-005
4.62882e-005
4.62687e-005
4.62486e-005
4.62282e-005
4.62073e-005
4.61853e-005
4.61638e-005
4.61412e-005
4.6119e-005
4.60958e-005
4.60724e-005
4.60494e-005
4.60255e-005
4.60015e-005
4.59774e-005
4.5953e-005
4.59287e-005
4.59036e-005
4.58789e-005
4.5854e-005
4.58293e-005
4.58037e-005
4.57787e-005
4.57531e-005
4.57279e-005
4.57026e-005
4.56773e-005
4.56525e-005
4.56268e-005
4.56014e-005
4.55764e-005
4.55516e-005
4.5527e-005
4.5502e-005
4.54769e-005
4.54523e-005
4.5428e-005
4.5404e-005
4.53801e-005
4.53566e-005
4.53327e-005
4.53094e-005
4.52863e-005
4.52636e-005
4.52413e-005
4.52183e-005
4.51959e-005
4.51744e-005
4.51524e-005
4.51313e-005
4.51102e-005
4.50899e-005
4.5069e-005
4.50497e-005
4.50295e-005
4.50098e-005
4.49904e-005
4.49718e-005
4.4953e-005
4.49346e-005
4.49162e-005
4.48981e-005
4.48804e-005
4.4863e-005
4.48459e-005
4.48297e-005
4.48131e-005
4.47969e-005
4.47809e-005
4.47654e-005
4.47499e-005
4.47347e-005
4.47198e-005
4.47051e-005
4.46912e-005
4.46778e-005
4.4664e-005
4.46506e-005
4.46374e-005
4.46246e-005
4.46122e-005
4.45998e-005
4.45879e-005
4.45763e-005
4.45646e-005
4.45532e-005
4.4542e-005
4.45317e-005
4.45214e-005
4.45116e-005
4.4501e-005
4.44918e-005
4.44817e-005
4.44729e-005
4.44635e-005
4.44549e-005
4.4446e-005
4.44374e-005
4.44292e-005
4.44214e-005
4.44131e-005
4.44049e-005
4.43969e-005
4.4389e-005
4.4381e-005
4.43733e-005
4.43661e-005
4.43585e-005
4.43519e-005
4.43449e-005
4.43381e-005
4.43317e-005
4.43247e-005
4.43186e-005
4.43115e-005
4.43051e-005
4.42981e-005
4.42915e-005
4.42846e-005
4.42781e-005
4.42705e-005
4.42636e-005
4.42549e-005
4.42517e-005
4.49593e-005
0.000601831
0.0246549
0.000463045
0.000462977
0.000462909
0.000462841
0.000462771
0.000462693
0.000462615
0.000462534
0.000462451
0.000462359
0.000462268
0.000462174
0.000462075
0.000461976
0.00046187
0.000461764
0.000461652
0.000461545
0.000461428
0.000461309
0.000461193
0.000461076
0.00046095
0.000460828
0.000460703
0.000460581
0.000460453
0.000460327
0.000460196
0.000460066
0.000459936
0.00045981
0.000459674
0.000459544
0.000459412
0.000459277
0.000459147
0.000459014
0.000458888
0.000458745
0.000458613
0.000458487
0.000458353
0.000458222
0.000458091
0.000457961
0.000457833
0.000457706
0.000457576
0.000457453
0.000457326
0.000457201
0.000457081
0.000456958
0.000456837
0.000456716
0.000456594
0.000456479
0.000456365
0.000456248
0.000456133
0.000456021
0.000455917
0.000455801
0.000455694
0.000455589
0.000455481
0.000455377
0.000455276
0.000455176
0.000455077
0.000454978
0.00045488
0.000454788
0.000454694
0.000454601
0.000454512
0.000454424
0.000454338
0.000454249
0.000454166
0.000454082
0.000454001
0.000453919
0.00045384
0.000453766
0.000453694
0.000453618
0.000453547
0.000453476
0.000453406
0.00045334
0.000453271
0.000453204
0.000453143
0.000453078
0.000453018
0.000452957
0.000452901
0.000452845
0.00045279
0.000452734
0.000452687
0.000452632
0.000452585
0.000452532
0.000452482
0.000452434
0.000452392
0.000452349
0.000452306
0.000452263
0.00045222
0.000452181
0.000452143
0.000452103
0.000452068
0.000452025
0.000451983
0.000451945
0.000451904
0.000451867
0.000451824
0.000451787
0.000451752
0.000451712
0.000451684
0.000451644
0.000451606
0.000451575
0.000451529
0.000451496
0.000451454
0.000451418
0.000451381
0.000451328
0.000447459
0.00342707
0.0681144
0.000794645
0.000794602
0.000794563
0.000794519
0.000794472
0.000794425
0.000794377
0.000794323
0.000794267
0.000794212
0.000794157
0.000794092
0.000794029
0.000793964
0.000793896
0.000793827
0.00079376
0.000793684
0.000793611
0.000793544
0.000793468
0.000793389
0.000793318
0.000793236
0.000793161
0.000793077
0.000793004
0.00079292
0.000792843
0.000792764
0.000792678
0.000792594
0.000792519
0.000792437
0.000792351
0.000792275
0.000792191
0.000792108