/*--------------------------------*- C++ -*----------------------------------*\
| =========                 |                                                 |
| \\      /  F ield         | OpenFOAM: The Open Source CFD Toolbox           |
|  \\    /   O peration     | Version:  5.x                                   |
|   \\  /    A nd           | Web:      www.OpenFOAM.org                      |
|    \\/     M anipulation  |                                                 |
\*---------------------------------------------------------------------------*/
/*   Windows 32 and 64 bit porting by blueCAPE: http://www.bluecape.com.pt   *\
|  Based on Windows porting (2.0.x v4) by Symscape: http://www.symscape.com   |
\*---------------------------------------------------------------------------*/
FoamFile
{
    version     2.0;
    format      ascii;
    class       volScalarField;
    location    "40";
    object      p;
}
// * * * * * * * * * * * * * * * * * * * * * * * * * * * * * * * * * * * * * //

dimensions      [0 2 -2 0 0 0 0];

internalField   nonuniform List<scalar> 
43900
(
0.46685
0.466549
0.46657
0.466439
0.466331
0.466205
0.466066
0.465915
0.465751
0.465577
0.465392
0.465197
0.464992
0.464778
0.464555
0.464324
0.464085
0.463837
0.463583
0.463321
0.463052
0.462776
0.462493
0.462204
0.461909
0.461607
0.4613
0.460987
0.460669
0.462285
0.463841
0.462692
0.462905
0.46259
0.46236
0.462134
0.461881
0.461628
0.461371
0.46111
0.460845
0.460576
0.460302
0.460024
0.459741
0.459453
0.459161
0.458863
0.45856
0.458253
0.45794
0.457622
0.457299
0.456971
0.456637
0.456298
0.455954
0.455605
0.457244
0.464591
0.459432
0.461866
0.459927
0.460237
0.45966
0.459325
0.458974
0.458625
0.458278
0.45793
0.457584
0.457238
0.456891
0.456544
0.456196
0.455848
0.455498
0.455146
0.454793
0.454438
0.454081
0.453721
0.45336
0.452996
0.45263
0.452262
0.451891
0.46141
0.471615
0.465648
0.468618
0.466249
0.466898
0.466155
0.46587
0.465521
0.465172
0.464826
0.464481
0.464135
0.46379
0.463443
0.463095
0.462745
0.462393
0.462039
0.461683
0.461324
0.460962
0.460597
0.460228
0.459857
0.459481
0.459103
0.45872
0.458334
0.468202
0.473422
0.471043
0.472284
0.471191
0.471528
0.471139
0.470965
0.47075
0.470525
0.470289
0.470043
0.469787
0.469521
0.469246
0.468962
0.468668
0.468365
0.468053
0.467733
0.467403
0.467066
0.466719
0.466364
0.466001
0.465628
0.465247
0.464858
0.464459
0.471117
0.472638
0.472089
0.472341
0.472077
0.472109
0.471985
0.471878
0.471747
0.471598
0.471433
0.471251
0.471054
0.470842
0.470614
0.470372
0.470116
0.469846
0.469562
0.469264
0.468954
0.468631
0.468295
0.467947
0.467586
0.467214
0.466831
0.466436
0.46603
0.474477
0.47462
0.47447
0.474426
0.474326
0.474246
0.474134
0.474009
0.473868
0.473709
0.473535
0.473344
0.473138
0.472915
0.472677
0.472424
0.472155
0.471872
0.471573
0.47126
0.470933
0.470592
0.470237
0.469868
0.469486
0.469092
0.468684
0.468265
0.467834
0.480888
0.48064
0.480512
0.480434
0.480343
0.480242
0.480119
0.479978
0.479819
0.479642
0.479447
0.479234
0.479003
0.478754
0.478488
0.478203
0.477902
0.477583
0.477248
0.476895
0.476527
0.476141
0.47574
0.475323
0.47489
0.474442
0.473978
0.4735
0.473007
0.488507
0.488088
0.488027
0.487961
0.48789
0.487797
0.487681
0.487542
0.48738
0.487195
0.486988
0.486758
0.486507
0.486233
0.485938
0.485622
0.485284
0.484926
0.484547
0.484147
0.483728
0.483289
0.48283
0.482352
0.481855
0.48134
0.480806
0.480254
0.479685
0.496334
0.495833
0.495777
0.495697
0.495617
0.49551
0.495377
0.495218
0.495032
0.49482
0.494582
0.494318
0.494029
0.493714
0.493374
0.493009
0.49262
0.492206
0.491769
0.491308
0.490823
0.490316
0.489785
0.489233
0.488658
0.488062
0.487445
0.486807
0.486149
0.505213
0.504646
0.504563
0.504462
0.504359
0.504226
0.504062
0.503868
0.503644
0.503389
0.503105
0.50279
0.502446
0.502073
0.50167
0.501239
0.500779
0.500291
0.499776
0.499232
0.498662
0.498065
0.497442
0.496793
0.496119
0.49542
0.494696
0.493949
0.493178
0.51549
0.514838
0.514741
0.514622
0.514497
0.514338
0.514142
0.51391
0.513643
0.513339
0.513
0.512626
0.512217
0.511774
0.511296
0.510785
0.51024
0.509662
0.509051
0.508408
0.507734
0.507029
0.506293
0.505527
0.504732
0.503907
0.503055
0.502175
0.501268
0.527028
0.526283
0.526174
0.526035
0.525887
0.525697
0.525465
0.525189
0.524871
0.524511
0.524108
0.523664
0.523179
0.522652
0.522086
0.521479
0.520833
0.520148
0.519425
0.518665
0.517867
0.517033
0.516163
0.515258
0.514319
0.513347
0.512342
0.511305
0.510237
0.539791
0.538941
0.538817
0.538653
0.538476
0.53825
0.537973
0.537645
0.537266
0.536837
0.536358
0.53583
0.535253
0.534628
0.533955
0.533235
0.532469
0.531657
0.5308
0.529899
0.528955
0.527969
0.526941
0.525872
0.524764
0.523617
0.522432
0.52121
0.519953
0.553826
0.552856
0.552713
0.55252
0.552309
0.552039
0.551708
0.551317
0.550865
0.550355
0.549785
0.549157
0.548472
0.547729
0.54693
0.546076
0.545168
0.544205
0.543191
0.542124
0.541007
0.539841
0.538626
0.537365
0.536057
0.534705
0.533309
0.531871
0.530393
0.569168
0.568064
0.567901
0.567673
0.567421
0.567099
0.566705
0.566239
0.565702
0.565095
0.564418
0.563672
0.562858
0.561977
0.56103
0.560018
0.558942
0.557803
0.556602
0.555342
0.554022
0.552645
0.551212
0.549725
0.548185
0.546593
0.544951
0.543262
0.541526
0.585838
0.584585
0.5844
0.584133
0.583832
0.583449
0.58298
0.582426
0.581789
0.581068
0.580265
0.579381
0.578417
0.577374
0.576253
0.575055
0.573783
0.572438
0.57102
0.569533
0.567977
0.566355
0.564668
0.562918
0.561107
0.559237
0.557311
0.55533
0.553296
0.603849
0.602433
0.602224
0.601911
0.601554
0.601098
0.600542
0.599886
0.599131
0.598277
0.597327
0.596282
0.595142
0.593909
0.592586
0.591173
0.589672
0.588087
0.586417
0.584666
0.582836
0.58093
0.578948
0.576895
0.574772
0.572581
0.570327
0.56801
0.565634
0.623205
0.621613
0.621378
0.621012
0.620589
0.62005
0.619392
0.618616
0.617724
0.616717
0.615596
0.614363
0.613019
0.611567
0.610009
0.608346
0.606582
0.604718
0.602757
0.600702
0.598556
0.596321
0.594001
0.591598
0.589116
0.586558
0.583926
0.581225
0.578458
0.643899
0.642118
0.641855
0.641429
0.64093
0.640294
0.639519
0.638605
0.637555
0.63637
0.635051
0.633602
0.632023
0.630318
0.628489
0.626539
0.624471
0.622288
0.619992
0.617588
0.615079
0.612469
0.60976
0.606958
0.604065
0.601086
0.598025
0.594886
0.591674
0.665908
0.663928
0.663635
0.663141
0.662554
0.661807
0.660897
0.659825
0.658593
0.657204
0.655659
0.653962
0.652114
0.65012
0.647981
0.645703
0.643287
0.640738
0.638061
0.635258
0.632335
0.629296
0.626146
0.622889
0.61953
0.616074
0.612526
0.608891
0.605174
0.689188
0.687002
0.686678
0.686107
0.68542
0.684547
0.683483
0.682231
0.680793
0.679171
0.677369
0.67539
0.673236
0.670913
0.668422
0.66577
0.66296
0.659997
0.656885
0.653631
0.650239
0.646715
0.643064
0.639293
0.635407
0.631412
0.627315
0.623121
0.618837
0.713677
0.711282
0.710923
0.710268
0.709468
0.708452
0.707214
0.705759
0.704088
0.702205
0.700112
0.697815
0.695316
0.692621
0.689734
0.686661
0.683406
0.679976
0.676376
0.672612
0.668692
0.664622
0.660409
0.656059
0.651581
0.646981
0.642268
0.637448
0.632529
0.739287
0.736685
0.736289
0.73554
0.734615
0.733439
0.732007
0.730324
0.728393
0.726217
0.723801
0.721148
0.718263
0.715153
0.711822
0.708278
0.704525
0.700572
0.696425
0.692093
0.687582
0.682902
0.67806
0.673064
0.667925
0.66265
0.65725
0.651732
0.646108
0.765904
0.763105
0.762669
0.761818
0.760754
0.759401
0.757755
0.755821
0.753601
0.751101
0.748326
0.745279
0.741967
0.738397
0.734574
0.730507
0.726202
0.721669
0.716916
0.711951
0.706784
0.701426
0.695885
0.690173
0.6843
0.678276
0.672112
0.665822
0.659415
0.79339
0.790409
0.78993
0.788968
0.787752
0.786206
0.784326
0.782117
0.779583
0.776729
0.773559
0.770081
0.766301
0.762225
0.757862
0.75322
0.748309
0.743137
0.737715
0.732053
0.726164
0.720057
0.713745
0.707242
0.700558
0.693707
0.686705
0.679562
0.672296
0.821577
0.818438
0.817911
0.816832
0.815453
0.813699
0.811566
0.809061
0.806186
0.802949
0.799354
0.795408
0.791119
0.786495
0.781544
0.776277
0.770703
0.764835
0.758681
0.752258
0.745576
0.738649
0.731495
0.72412
0.716549
0.708792
0.700865
0.692792
0.684582
0.850273
0.84701
0.846429
0.845227
0.843674
0.841699
0.839298
0.836476
0.83324
0.829593
0.825543
0.821097
0.816263
0.811049
0.805466
0.799523
0.793236
0.786609
0.779668
0.772413
0.764872
0.757055
0.748972
0.740658
0.732112
0.723363
0.714436
0.705336
0.696097
0.879262
0.875915
0.875276
0.873945
0.872211
0.870005
0.867322
0.86417
0.860553
0.856476
0.851947
0.846971
0.841559
0.835719
0.829462
0.822801
0.815742
0.808316
0.80051
0.792375
0.783898
0.77511
0.766044
0.756685
0.747096
0.737273
0.727245
0.717049
0.706691
0.908312
0.904928
0.904223
0.902762
0.900842
0.898398
0.895426
0.891933
0.887922
0.8834
0.87837
0.872845
0.866825
0.860331
0.853363
0.845938
0.838079
0.829769
0.821084
0.811966
0.802505
0.792685
0.78252
0.772078
0.761322
0.750343
0.739116
0.727751
0.71618
0.937176
0.933808
0.933029
0.931438
0.929331
0.926647
0.923383
0.919543
0.915133
0.910154
0.904617
0.898519
0.891885
0.884698
0.877
0.868781
0.860049
0.850876
0.841169
0.831091
0.82053
0.809594
0.798286
0.786659
0.774729
0.762415
0.750001
0.737308
0.724354
0.965603
0.962303
0.961445
0.959726
0.957435
0.954514
0.95096
0.946777
0.941967
0.936535
0.930477
0.923817
0.916526
0.908669
0.900187
0.891147
0.881563
0.871366
0.86074
0.84952
0.837881
0.825733
0.81327
0.800395
0.786918
0.773438
0.759583
0.745289
0.731128
0.993344
0.990164
0.989221
0.98738
0.984912
0.981762
0.977928
0.973409
0.96821
0.962323
0.95577
0.948511
0.940626
0.932007
0.9228
0.912902
0.902355
0.891269
0.879551
0.86729
0.854351
0.841049
0.82726
0.81265
0.798172
0.78302
0.767532
0.752209
0.736239
1.02016
1.01715
1.01612
1.01416
1.01153
1.00816
1.00406
0.999227
0.993648
0.987341
0.980265
0.972497
0.963902
0.95468
0.944608
0.933886
0.922486
0.910343
0.897566
0.88385
0.869698
0.85516
0.83979
0.824302
0.807822
0.791122
0.774505
0.756857
0.739369
1.04584
1.04303
1.04191
1.03986
1.03707
1.03351
1.02916
1.02402
1.0181
1.01136
1.00386
0.995469
0.986386
0.976328
0.965593
0.953982
0.941441
0.928441
0.914378
0.899767
0.884451
0.868017
0.851436
0.833907
0.816102
0.798041
0.778944
0.760054
0.740932
1.07019
1.06762
1.06641
1.06427
1.06134
1.0576
1.05303
1.04763
1.04138
1.03428
1.02627
1.01748
1.00766
0.997094
0.985565
0.973055
0.959914
0.945349
0.930347
0.914414
0.897472
0.880087
0.86168
0.842679
0.823135
0.802633
0.782288
0.76127
0.739679
1.09307
1.09074
1.08946
1.08724
1.0842
1.0803
1.07553
1.06989
1.06335
1.05588
1.04753
1.03814
1.0279
1.01671
1.00442
0.991144
0.976692
0.961612
0.94521
0.927704
0.909719
0.890568
0.870426
0.849615
0.828273
0.806275
0.783099
0.759991
0.73687
1.11436
1.11228
1.11092
1.10864
1.1055
1.10147
1.09654
1.09069
1.08389
1.07614
1.06736
1.05764
1.04685
1.03499
1.02192
1.00777
0.992686
0.976296
0.958607
0.940316
0.920404
0.899577
0.877911
0.855483
0.83169
0.806858
0.782556
0.756975
0.730873
1.13396
1.13213
1.13072
1.12839
1.12517
1.12104
1.11596
1.10994
1.10293
1.09489
1.08583
1.07562
1.06438
1.05198
1.03839
1.02345
1.00717
0.989738
0.971262
0.951013
0.929811
0.907618
0.88387
0.858735
0.833042
0.807169
0.778799
0.750844
0.723051
1.15185
1.15025
1.1488
1.14643
1.14315
1.13893
1.13376
1.12758
1.1204
1.11214
1.10275
1.09231
1.08062
1.06772
1.0534
1.03772
1.02076
1.00222
0.982292
0.960991
0.938326
0.914131
0.887965
0.86129
0.833341
0.803135
0.773674
0.743223
0.711233
1.16801
1.16662
1.16514
1.16275
1.15943
1.15515
1.14988
1.14362
1.13626
1.12783
1.11827
1.10735
1.09539
1.082
1.06709
1.0508
1.03291
1.01352
0.992246
0.969436
0.94519
0.918812
0.891479
0.861929
0.830497
0.799186
0.765812
0.731216
0.697292
1.18247
1.18126
1.17977
1.17737
1.17402
1.16969
1.16438
1.158
1.15057
1.14197
1.13212
1.1212
1.10864
1.09481
1.07969
1.06262
1.04387
1.02324
1.0013
0.977043
0.95073
0.922968
0.892307
0.86035
0.827184
0.791687
0.755008
0.717869
0.679783
1.19528
1.19423
1.19274
1.19033
1.18697
1.18262
1.17725
1.17085
1.16329
1.15457
1.14469
1.13328
1.12072
1.1067
1.09069
1.07309
1.05351
1.0326
1.00863
0.983006
0.955672
0.925086
0.892644
0.858175
0.820755
0.782142
0.742237
0.700905
0.658153
1.20654
1.20561
1.20412
1.20172
1.19835
1.19399
1.18861
1.18213
1.17455
1.16576
1.1556
1.1443
1.13133
1.1167
1.10072
1.08233
1.06252
1.03963
1.01535
0.988784
0.958342
0.926168
0.891549
0.853889
0.813514
0.770664
0.726323
0.679984
0.633491
1.21632
1.21548
1.21401
1.21162
1.20826
1.2039
1.19849
1.19201
1.18437
1.17547
1.16537
1.15368
1.14053
1.12608
1.10919
1.09065
1.06962
1.0469
1.02143
0.992109
0.961235
0.926837
0.888935
0.847877
0.804425
0.757472
0.707432
0.656659
0.604226
1.22474
1.22398
1.22253
1.22015
1.2168
1.21244
1.20704
1.20054
1.19285
1.18398
1.17364
1.162
1.14882
1.13363
1.11681
1.09768
1.07647
1.0526
1.02553
0.996202
0.962876
0.925768
0.885489
0.841381
0.792986
0.741553
0.686811
0.629207
0.570376
1.23191
1.23122
1.22978
1.22742
1.22409
1.21974
1.21435
1.20782
1.20016
1.19114
1.1809
1.16912
1.15558
1.14057
1.12331
1.10384
1.08178
1.05705
1.02993
0.998852
0.963447
0.924307
0.881084
0.833329
0.780703
0.72357
0.66255
0.598177
0.531666
1.23796
1.23732
1.2359
1.23356
1.23024
1.22591
1.22051
1.21402
1.20626
1.19735
1.18696
1.17503
1.16174
1.1463
1.12873
1.10894
1.08676
1.06126
1.03287
1.00052
0.964308
0.922811
0.875743
0.823874
0.766858
0.704181
0.635385
0.56313
0.487845
1.243
1.2424
1.24101
1.23868
1.23538
1.23106
1.22569
1.21914
1.21149
1.20244
1.19202
1.18031
1.16665
1.151
1.13342
1.11346
1.0906
1.06504
1.03538
1.00218
0.964116
0.920477
0.871116
0.814343
0.751801
0.682292
0.60635
0.523685
0.437771
1.24716
1.24659
1.24521
1.2429
1.23962
1.23532
1.22993
1.22346
1.2157
1.2067
1.19639
1.18444
1.17066
1.15505
1.13736
1.11712
1.09387
1.06767
1.03756
1.00331
0.963655
0.918201
0.865672
0.805297
0.736509
0.659434
0.573674
0.480347
0.381083
1.25054
1.25
1.24863
1.24634
1.24307
1.23878
1.23343
1.2269
1.21924
1.2102
1.19979
1.18784
1.17407
1.1584
1.14056
1.11985
1.09676
1.06991
1.03916
1.00392
0.963226
0.915877
0.86035
0.795963
0.721499
0.635574
0.539341
0.432058
0.317524
1.25325
1.25273
1.25137
1.24909
1.24584
1.24156
1.23621
1.22972
1.22203
1.21296
1.20264
1.19055
1.1768
1.16111
1.14296
1.12238
1.09887
1.0716
1.04044
1.00445
0.962683
0.913419
0.855533
0.787076
0.706742
0.611842
0.502904
0.380028
0.244587
1.25537
1.25487
1.25352
1.25126
1.24802
1.24374
1.23842
1.23188
1.22427
1.21513
1.20485
1.19266
1.17905
1.16312
1.14493
1.12435
1.10042
1.07299
1.04151
1.00452
0.961865
0.911193
0.850959
0.779536
0.692837
0.588727
0.465543
0.322736
0.163124
1.257
1.25651
1.25517
1.25292
1.24969
1.24542
1.24011
1.23357
1.22599
1.21676
1.20663
1.19423
1.18078
1.16462
1.14661
1.1257
1.10169
1.07405
1.04219
1.00458
0.961083
0.908967
0.847411
0.772085
0.680717
0.566682
0.428355
0.261061
0.0681373
1.25822
1.25774
1.2564
1.25415
1.25094
1.24668
1.24138
1.23484
1.22725
1.21804
1.20786
1.19544
1.18212
1.16559
1.14788
1.12671
1.10259
1.0748
1.04241
1.00461
0.96018
0.906911
0.843873
0.765449
0.669537
0.5469
0.391808
0.196006
-0.0419437
1.25908
1.25861
1.25728
1.25504
1.25183
1.24757
1.24227
1.23577
1.2281
1.21903
1.20861
1.19653
1.18276
1.16652
1.1487
1.12725
1.10317
1.07523
1.04253
1.00412
0.958959
0.9047
0.839732
0.759081
0.657964
0.52803
0.355249
0.126255
-0.16967
1.25966
1.25919
1.25786
1.25562
1.25242
1.24817
1.24286
1.2364
1.22863
1.21981
1.20891
1.19745
1.18281
1.16734
1.14856
1.1277
1.10271
1.07502
1.04112
1.00318
0.955939
0.901675
0.833181
0.750913
0.643939
0.506324
0.316674
0.0506052
-0.327831
1.26
1.25953
1.2582
1.25596
1.25275
1.24849
1.24317
1.23682
1.2289
1.22038
1.2091
1.1983
1.18277
1.16795
1.14799
1.12747
1.10124
1.07344
1.03818
0.999658
0.950448
0.894962
0.823601
0.738262
0.626061
0.479825
0.276405
-0.0226786
-0.50389
1.26016
1.25969
1.25835
1.25608
1.25282
1.2485
1.24304
1.23641
1.22832
1.21943
1.20759
1.19615
1.17994
1.16452
1.14384
1.12227
1.09521
1.06647
1.02991
0.990232
0.939983
0.882605
0.808578
0.722913
0.601183
0.454524
0.237666
-0.0647232
-0.472128
0.460287
0.459838
0.459379
0.458912
0.458436
0.457952
0.45746
0.45696
0.456453
0.455938
0.455417
0.454889
0.454355
0.453814
0.453267
0.452715
0.452157
0.451593
0.451024
0.450451
0.449872
0.44929
0.448702
0.448111
0.447516
0.446917
0.446314
0.445708
0.445099
0.444488
0.443873
0.443256
0.442637
0.442016
0.441393
0.440769
0.440143
0.439516
0.438888
0.438259
0.43763
0.437001
0.436371
0.435741
0.435112
0.434484
0.433856
0.433229
0.432603
0.431979
0.431356
0.430736
0.430117
0.4295
0.428886
0.428275
0.427666
0.42706
0.426458
0.425859
0.425264
0.424672
0.424085
0.423502
0.422923
0.422349
0.42178
0.421215
0.420656
0.420102
0.419554
0.419011
0.418474
0.417943
0.417419
0.4169
0.416389
0.415884
0.415386
0.414894
0.41441
0.413934
0.413464
0.413003
0.412549
0.412103
0.411664
0.411234
0.410813
0.410399
0.409994
0.409598
0.409211
0.408832
0.408462
0.408101
0.40775
0.407407
0.407074
0.40675
0.406436
0.406132
0.405837
0.405551
0.405276
0.40501
0.404755
0.404509
0.404273
0.404047
0.403832
0.403626
0.403431
0.403246
0.403071
0.402907
0.402752
0.402608
0.402475
0.402351
0.402238
0.402135
0.402042
0.40196
0.401887
0.401825
0.401772
0.401729
0.401696
0.401673
0.401659
0.401655
0.401661
0.401674
0.401705
0.401725
0.401797
0.401798
0.401959
0.455187
0.454697
0.454199
0.453693
0.453181
0.452662
0.452135
0.451602
0.451063
0.450516
0.449964
0.449405
0.448839
0.448268
0.447691
0.447108
0.44652
0.445926
0.445327
0.444723
0.444115
0.443501
0.442884
0.442262
0.441636
0.441006
0.440373
0.439736
0.439096
0.438453
0.437808
0.43716
0.43651
0.435858
0.435204
0.434549
0.433892
0.433234
0.432575
0.431916
0.431256
0.430596
0.429937
0.429277
0.428618
0.42796
0.427302
0.426646
0.425992
0.425339
0.424687
0.424038
0.423391
0.422747
0.422105
0.421466
0.420831
0.420199
0.41957
0.418945
0.418324
0.417707
0.417095
0.416487
0.415884
0.415286
0.414693
0.414105
0.413523
0.412947
0.412377
0.411813
0.411254
0.410703
0.410158
0.40962
0.409089
0.408564
0.408048
0.407538
0.407036
0.406542
0.406056
0.405578
0.405108
0.404647
0.404193
0.403749
0.403313
0.402886
0.402468
0.402058
0.401659
0.401268
0.400887
0.400515
0.400153
0.399801
0.399458
0.399125
0.398803
0.39849
0.398187
0.397895
0.397613
0.397341
0.397079
0.396828
0.396587
0.396357
0.396137
0.395928
0.39573
0.395542
0.395365
0.395199
0.395044
0.3949
0.394767
0.394646
0.394535
0.394436
0.394348
0.39427
0.394203
0.394146
0.3941
0.394064
0.394037
0.394019
0.394011
0.394009
0.394024
0.394028
0.39406
0.394077
0.3941
0.394198
0.394053
0.451452
0.450941
0.450423
0.449899
0.449367
0.448829
0.448283
0.44773
0.44717
0.446603
0.44603
0.445449
0.444862
0.444269
0.443669
0.443063
0.442451
0.441833
0.441209
0.44058
0.439946
0.439306
0.438662
0.438013
0.43736
0.436702
0.436041
0.435376
0.434708
0.434036
0.433362
0.432685
0.432006
0.431324
0.430641
0.429956
0.42927
0.428582
0.427894
0.427205
0.426516
0.425827
0.425138
0.424449
0.42376
0.423073
0.422386
0.421701
0.421017
0.420335
0.419655
0.418977
0.418301
0.417628
0.416958
0.416291
0.415628
0.414967
0.414311
0.413658
0.41301
0.412366
0.411726
0.411091
0.410462
0.409837
0.409218
0.408605
0.407997
0.407395
0.4068
0.406211
0.405628
0.405053
0.404484
0.403922
0.403368
0.402821
0.402282
0.401751
0.401227
0.400712
0.400205
0.399706
0.399217
0.398735
0.398263
0.397799
0.397345
0.3969
0.396465
0.396039
0.395622
0.395216
0.394819
0.394432
0.394056
0.393689
0.393333
0.392987
0.392652
0.392327
0.392013
0.39171
0.391417
0.391135
0.390864
0.390603
0.390354
0.390116
0.38989
0.389676
0.389474
0.389285
0.389108
0.388943
0.388791
0.388651
0.388524
0.38841
0.388312
0.388228
0.38816
0.388106
0.388067
0.388042
0.388032
0.388037
0.388057
0.388091
0.38814
0.388207
0.388254
0.388434
0.388436
0.388755
0.388549
0.389299
0.388535
0.457873
0.457334
0.456786
0.456229
0.455663
0.455088
0.454504
0.453909
0.453306
0.452693
0.45207
0.451439
0.450799
0.45015
0.449493
0.448828
0.448155
0.447475
0.446788
0.446094
0.445393
0.444687
0.443975
0.443257
0.442534
0.441806
0.441074
0.440337
0.439597
0.438853
0.438105
0.437355
0.436602
0.435847
0.43509
0.434331
0.433572
0.432811
0.43205
0.431289
0.430528
0.429767
0.429007
0.428247
0.427489
0.426731
0.425975
0.42522
0.424468
0.423717
0.422969
0.422223
0.42148
0.42074
0.420004
0.419271
0.418542
0.417816
0.417096
0.416379
0.415668
0.414961
0.41426
0.413564
0.412873
0.412189
0.411511
0.410839
0.410173
0.409514
0.408862
0.408217
0.40758
0.40695
0.406328
0.405714
0.405108
0.40451
0.403921
0.40334
0.402769
0.402207
0.401653
0.40111
0.400576
0.400051
0.399536
0.399032
0.398537
0.398053
0.397579
0.397116
0.396664
0.396222
0.395792
0.395372
0.394964
0.394568
0.394183
0.39381
0.393448
0.393099
0.392762
0.392438
0.392125
0.391826
0.39154
0.391269
0.391017
0.390784
0.390569
0.390372
0.390193
0.39003
0.389885
0.389755
0.389643
0.389546
0.389467
0.389405
0.389358
0.389321
0.389293
0.389277
0.389272
0.389281
0.389304
0.389344
0.3894
0.389474
0.389566
0.389718
0.389692
0.390163
0.389911
0.390845
0.389855
0.392116
0.389146
0.463979
0.463412
0.462829
0.462233
0.461622
0.460998
0.460361
0.459713
0.459052
0.458381
0.457699
0.457006
0.456304
0.455593
0.454872
0.454142
0.453404
0.452657
0.451902
0.451139
0.450369
0.449592
0.448808
0.448017
0.447221
0.446418
0.445611
0.444798
0.44398
0.443159
0.442333
0.441504
0.440672
0.439838
0.439001
0.438165
0.437333
0.436505
0.435679
0.434855
0.434033
0.433212
0.432393
0.431575
0.430759
0.429944
0.42913
0.428319
0.427509
0.426702
0.425898
0.425096
0.424297
0.423502
0.422711
0.421924
0.421141
0.420362
0.419587
0.418817
0.418053
0.417293
0.416539
0.415791
0.415049
0.414313
0.413583
0.412861
0.412145
0.411437
0.410736
0.410042
0.409357
0.408679
0.408009
0.407348
0.406694
0.406049
0.405413
0.404785
0.404165
0.403555
0.402954
0.402363
0.401781
0.40121
0.400649
0.400099
0.39956
0.399032
0.398515
0.39801
0.397517
0.397036
0.396566
0.39611
0.395666
0.395234
0.394816
0.39441
0.394018
0.39364
0.393275
0.392924
0.392587
0.392265
0.391958
0.391663
0.391378
0.391103
0.390838
0.390583
0.39034
0.390109
0.389892
0.389688
0.389498
0.389323
0.389162
0.389011
0.388873
0.38875
0.388647
0.388561
0.388493
0.388443
0.388409
0.388394
0.388395
0.388415
0.388452
0.388524
0.388474
0.388963
0.388295
0.389596
0.388159
0.39068
0.387388
0.46554
0.464958
0.464357
0.463738
0.463103
0.46245
0.461781
0.461097
0.460397
0.459682
0.458954
0.458211
0.457455
0.456686
0.455905
0.455111
0.454307
0.453491
0.452666
0.45183
0.450985
0.450131
0.449269
0.448399
0.447521
0.446637
0.445746
0.444849
0.443946
0.443039
0.442127
0.441211
0.440292
0.439369
0.438447
0.437522
0.436592
0.435658
0.434722
0.433784
0.432845
0.431906
0.430969
0.430032
0.429098
0.428166
0.427238
0.426312
0.425391
0.424473
0.423561
0.422653
0.42175
0.420852
0.419959
0.419072
0.418192
0.417318
0.41645
0.41559
0.414738
0.413892
0.413055
0.412226
0.411405
0.410593
0.409789
0.408994
0.408208
0.407432
0.406664
0.405907
0.405158
0.40442
0.403692
0.402974
0.402266
0.401569
0.400882
0.400206
0.399541
0.398887
0.398244
0.397612
0.396991
0.396382
0.395785
0.395198
0.394624
0.394061
0.39351
0.392971
0.392443
0.391928
0.391425
0.390933
0.390454
0.389987
0.389533
0.38909
0.38866
0.388243
0.387837
0.387444
0.387063
0.386694
0.386337
0.385991
0.385657
0.385335
0.385024
0.384725
0.384438
0.384164
0.383902
0.383652
0.383415
0.38319
0.382978
0.38278
0.382597
0.38243
0.382279
0.382143
0.382023
0.381917
0.381825
0.381748
0.381685
0.381634
0.381596
0.381574
0.381541
0.381634
0.381352
0.381948
0.381
0.382309
0.380606
0.467312
0.466691
0.466048
0.465385
0.464701
0.463998
0.463276
0.462535
0.461775
0.460998
0.460202
0.459391
0.458562
0.457718
0.456859
0.455985
0.455097
0.454197
0.453284
0.452359
0.451423
0.450477
0.449521
0.448555
0.447581
0.446599
0.445609
0.444611
0.443607
0.442596
0.441579
0.440557
0.439529
0.438498
0.437462
0.436421
0.435376
0.434328
0.433278
0.432227
0.431175
0.430124
0.429072
0.428023
0.426975
0.42593
0.424888
0.423849
0.422815
0.421786
0.420761
0.419742
0.418729
0.417723
0.416723
0.415731
0.414746
0.41377
0.412801
0.411841
0.41089
0.409948
0.409015
0.408091
0.407177
0.406273
0.405379
0.404496
0.403623
0.40276
0.401909
0.401068
0.400239
0.399421
0.398615
0.397821
0.397038
0.396268
0.395511
0.394766
0.394034
0.393316
0.39261
0.391917
0.391238
0.390571
0.389917
0.389277
0.388649
0.388034
0.387433
0.386844
0.386269
0.385706
0.385157
0.384621
0.384098
0.383588
0.383091
0.382608
0.382138
0.381682
0.381239
0.380809
0.380393
0.379991
0.379602
0.379228
0.378867
0.37852
0.378188
0.37787
0.377566
0.377275
0.376998
0.376733
0.376482
0.376244
0.376019
0.375807
0.375609
0.375423
0.375251
0.375091
0.374945
0.374813
0.374693
0.374586
0.374492
0.374411
0.374343
0.374287
0.374241
0.374218
0.374174
0.374255
0.374029
0.374506
0.373708
0.472409
0.471695
0.470956
0.470193
0.469406
0.468596
0.467764
0.466911
0.466037
0.465142
0.464229
0.463296
0.462345
0.461377
0.460392
0.459392
0.458376
0.457345
0.456301
0.455243
0.454174
0.453092
0.452
0.450898
0.449786
0.448666
0.447538
0.446404
0.445263
0.444117
0.442966
0.441812
0.440655
0.439495
0.43833
0.437163
0.435994
0.434823
0.433651
0.43248
0.431309
0.430139
0.428972
0.427807
0.426645
0.425487
0.424333
0.423184
0.42204
0.420903
0.419772
0.418647
0.41753
0.416421
0.41532
0.414227
0.413143
0.412069
0.411004
0.409949
0.408905
0.407871
0.406848
0.405835
0.404835
0.403846
0.402868
0.401903
0.40095
0.40001
0.399083
0.398168
0.397267
0.39638
0.395506
0.394645
0.393799
0.392967
0.39215
0.391346
0.390557
0.389782
0.389021
0.388275
0.387543
0.386825
0.386122
0.385433
0.384759
0.384099
0.383454
0.382823
0.382207
0.381606
0.381019
0.380447
0.379889
0.379346
0.378818
0.378304
0.377805
0.37732
0.376851
0.376395
0.375955
0.375528
0.375116
0.374719
0.374336
0.373966
0.373611
0.373269
0.372942
0.372627
0.372327
0.37204
0.371767
0.371507
0.371261
0.371028
0.370809
0.370603
0.37041
0.37023
0.370064
0.369911
0.36977
0.369643
0.369528
0.369426
0.369335
0.369258
0.369191
0.369138
0.369092
0.369069
0.369021
0.369082
0.368873
0.478993
0.478167
0.47731
0.476424
0.475509
0.474568
0.4736
0.472606
0.471589
0.470548
0.469484
0.468399
0.467294
0.466168
0.465025
0.463863
0.462685
0.461491
0.460282
0.45906
0.457824
0.456576
0.455318
0.454049
0.452771
0.451484
0.450191
0.448891
0.447585
0.446275
0.444961
0.443644
0.442325
0.441004
0.439683
0.438362
0.437041
0.435721
0.434403
0.433088
0.431776
0.430467
0.429163
0.427865
0.426572
0.425285
0.424005
0.422733
0.421468
0.420212
0.418965
0.417727
0.416499
0.415281
0.414074
0.412877
0.411691
0.410517
0.409355
0.408206
0.407068
0.405944
0.404833
0.403735
0.402651
0.401581
0.400525
0.399484
0.398457
0.397445
0.396447
0.395465
0.394497
0.393545
0.392608
0.391686
0.39078
0.389889
0.389014
0.388154
0.38731
0.386481
0.385668
0.38487
0.384089
0.383323
0.382572
0.381838
0.381119
0.380416
0.379728
0.379057
0.378401
0.37776
0.377136
0.376526
0.375933
0.375355
0.374792
0.374245
0.373713
0.373197
0.372696
0.37221
0.371739
0.371283
0.370843
0.370417
0.370006
0.36961
0.369229
0.368862
0.36851
0.368172
0.367848
0.367539
0.367244
0.366964
0.366697
0.366445
0.366207
0.365982
0.365771
0.365575
0.365391
0.365222
0.365066
0.364923
0.364793
0.364677
0.364574
0.364484
0.364407
0.364342
0.364289
0.36425
0.364217
0.364219
0.364097
0.48535
0.484395
0.483405
0.482382
0.481326
0.480238
0.479121
0.477974
0.476799
0.475597
0.47437
0.473119
0.471844
0.470547
0.46923
0.467893
0.466538
0.465165
0.463777
0.462374
0.460957
0.459528
0.458088
0.456638
0.455178
0.453711
0.452237
0.450757
0.449273
0.447785
0.446294
0.444801
0.443307
0.441814
0.440322
0.438831
0.437343
0.435859
0.434379
0.432904
0.431434
0.429971
0.428515
0.427067
0.425627
0.424197
0.422776
0.421365
0.419965
0.418576
0.417199
0.415834
0.414481
0.413142
0.411816
0.410504
0.409206
0.407923
0.406655
0.405401
0.404163
0.402941
0.401734
0.400544
0.39937
0.398212
0.39707
0.395945
0.394837
0.393746
0.392672
0.391615
0.390575
0.389552
0.388546
0.387558
0.386586
0.385632
0.384695
0.383775
0.382872
0.381987
0.381119
0.380268
0.379434
0.378618
0.377819
0.377037
0.376272
0.375524
0.374794
0.37408
0.373383
0.372704
0.372041
0.371395
0.370765
0.370152
0.369556
0.368976
0.368413
0.367866
0.367335
0.36682
0.366322
0.365839
0.365372
0.364921
0.364485
0.364065
0.363661
0.363272
0.362898
0.36254
0.362196
0.361868
0.361555
0.361256
0.360972
0.360703
0.360449
0.360209
0.359984
0.359772
0.359576
0.359393
0.359224
0.35907
0.35893
0.358803
0.35869
0.358591
0.358506
0.358434
0.358375
0.358329
0.358295
0.358287
0.358166
0.492243
0.491126
0.48997
0.488775
0.487543
0.486276
0.484975
0.483641
0.482277
0.480882
0.479459
0.47801
0.476535
0.475037
0.473516
0.471975
0.470414
0.468835
0.46724
0.46563
0.464006
0.46237
0.460723
0.459066
0.457402
0.455731
0.454054
0.452373
0.450689
0.449003
0.447316
0.44563
0.443945
0.442263
0.440584
0.43891
0.437241
0.435579
0.433924
0.432277
0.430639
0.42901
0.427392
0.425784
0.424189
0.422605
0.421035
0.419478
0.417935
0.416407
0.414893
0.413395
0.411913
0.410448
0.408998
0.407566
0.406151
0.404754
0.403374
0.402013
0.40067
0.399345
0.398039
0.396752
0.395484
0.394235
0.393005
0.391794
0.390603
0.38943
0.388278
0.387144
0.38603
0.384936
0.383861
0.382805
0.381769
0.380752
0.379755
0.378777
0.377818
0.376878
0.375958
0.375057
0.374174
0.373311
0.372467
0.371641
0.370834
0.370046
0.369276
0.368524
0.367791
0.367076
0.366379
0.3657
0.365039
0.364396
0.36377
0.363162
0.362571
0.361998
0.361441
0.360902
0.36038
0.359874
0.359385
0.358913
0.358457
0.358018
0.357594
0.357187
0.356796
0.356421
0.356062
0.355718
0.35539
0.355077
0.35478
0.354498
0.354231
0.353979
0.353742
0.353521
0.353314
0.353121
0.352944
0.35278
0.352632
0.352497
0.352377
0.352271
0.35218
0.352102
0.352039
0.35199
0.351954
0.351942
0.351822
0.500169
0.498856
0.497498
0.496097
0.494654
0.493171
0.491649
0.490091
0.488499
0.486874
0.485218
0.483533
0.48182
0.480083
0.478322
0.476539
0.474736
0.472915
0.471078
0.469226
0.467361
0.465485
0.463599
0.461706
0.459806
0.457901
0.455993
0.454084
0.452173
0.450264
0.448357
0.446454
0.444555
0.442662
0.440776
0.438899
0.43703
0.435172
0.433325
0.43149
0.429668
0.427859
0.426065
0.424287
0.422524
0.420777
0.419047
0.417336
0.415642
0.413967
0.412311
0.410674
0.409057
0.40746
0.405884
0.404329
0.402795
0.401282
0.39979
0.39832
0.396872
0.395445