/*--------------------------------*- C++ -*----------------------------------*\
| =========                 |                                                 |
| \\      /  F ield         | OpenFOAM: The Open Source CFD Toolbox           |
|  \\    /   O peration     | Version:  5.x                                   |
|   \\  /    A nd           | Web:      www.OpenFOAM.org                      |
|    \\/     M anipulation  |                                                 |
\*---------------------------------------------------------------------------*/
/*   Windows 32 and 64 bit porting by blueCAPE: http://www.bluecape.com.pt   *\
|  Based on Windows porting (2.0.x v4) by Symscape: http://www.symscape.com   |
\*---------------------------------------------------------------------------*/
FoamFile
{
    version     2.0;
    format      ascii;
    class       surfaceScalarField;
    location    "40";
    object      phi;
}
// * * * * * * * * * * * * * * * * * * * * * * * * * * * * * * * * * * * * * //

dimensions      [0 3 -1 0 0 0 0];

internalField   nonuniform List<scalar> 
87341
(
0.434776
39.4883
0.481947
39.8759
0.522969
39.882
0.56944
39.8766
0.612504
39.88
0.654064
39.8815
0.694753
39.8823
0.734415
39.8834
0.773101
39.8844
0.810953
39.8852
0.848031
39.886
0.884388
39.8867
0.920066
39.8874
0.955085
39.888
0.989499
39.8886
1.02335
39.8892
1.05666
39.8897
1.08947
39.8902
1.12179
39.8907
1.15365
39.8912
1.18507
39.8916
1.21597
39.8921
1.24643
39.8926
1.27647
39.893
1.3061
39.8934
1.33534
39.8938
1.3642
39.8942
1.39269
39.8946
39.8947
1.42106
0.636322
38.8519
0.776597
39.7356
0.824237
39.8344
0.890035
39.8108
0.942722
39.8273
1.00085
39.8233
1.05669
39.8265
1.11201
39.8281
1.16642
39.8299
1.2199
39.8317
1.27245
39.8334
1.32412
39.835
1.37497
39.8365
1.42516
39.8378
1.47465
39.8391
1.52341
39.8404
1.57147
39.8417
1.61887
39.8428
1.66562
39.844
1.71174
39.8451
1.75725
39.8461
1.80199
39.8474
1.84618
39.8484
1.88996
39.8492
1.93319
39.8502
1.97585
39.8511
2.01797
39.8521
2.05955
39.853
39.8542
2.1
1.39647
37.4555
1.75886
39.3732
1.82671
39.7665
1.87178
39.7657
1.9284
39.7707
1.98465
39.7671
2.04438
39.7668
2.10705
39.7654
2.17227
39.7647
2.2399
39.7641
2.30941
39.7639
2.38062
39.7638
2.45331
39.7638
2.5272
39.7639
2.60221
39.7641
2.67828
39.7644
2.75521
39.7647
2.83287
39.7652
2.91113
39.7657
2.98989
39.7663
3.06906
39.7669
3.14847
39.768
3.22803
39.7688
3.30758
39.7697
3.38711
39.7706
3.46661
39.7716
3.54593
39.7727
3.62498
39.7739
39.7755
3.70366
1.20789
36.2476
1.83891
38.7422
1.94716
39.6583
1.99137
39.7215
2.05548
39.7066
2.11536
39.7072
2.17949
39.7026
2.24496
39.6999
2.31273
39.697
2.38266
39.6941
2.45485
39.6917
2.5291
39.6896
2.60521
39.6877
2.68321
39.6859
2.76274
39.6846
2.8436
39.6835
2.92567
39.6826
3.00903
39.6818
3.09332
39.6814
3.17839
39.6812
3.26404
39.6813
3.35092
39.6811
3.43814
39.6816
3.52542
39.6824
3.61267
39.6834
3.69915
39.6852
3.78452
39.6874
3.86881
39.6896
39.691
3.95338
0.462247
35.7853
1.00526
38.1992
1.17582
39.4877
1.30688
39.5904
1.4354
39.578
1.56422
39.5784
1.69207
39.5748
1.81936
39.5726
1.94597
39.5703
2.07174
39.5684
2.19672
39.5667
2.32091
39.5654
2.44429
39.5643
2.56668
39.5635
2.68823
39.563
2.8089
39.5628
2.92868
39.5629
3.04735
39.5632
3.16505
39.5637
3.28175
39.5645
3.39738
39.5657
3.51238
39.5661
3.62642
39.5675
3.73951
39.5693
3.85163
39.5713
3.9633
39.5735
4.07492
39.5758
4.18667
39.5779
39.5794
4.29825
0.200087
35.5852
0.469167
37.9301
0.660958
39.2959
0.845181
39.4062
1.02133
39.4019
1.19717
39.4026
1.37006
39.4019
1.54092
39.4018
1.70947
39.4018
1.87578
39.4021
2.03996
39.4025
2.20208
39.4033
2.36222
39.4042
2.52038
39.4054
2.67664
39.4068
2.83104
39.4084
2.9836
39.4103
3.13432
39.4124
3.28326
39.4148
3.43044
39.4173
3.57585
39.4202
3.71973
39.4222
3.86197
39.4253
4.00262
39.4287
4.14176
39.4321
4.27955
39.4357
4.41602
39.4393
4.55077
39.4431
39.4477
4.68248
0.192018
35.3932
0.407806
37.7143
0.59027
39.1135
0.770799
39.2257
0.946994
39.2257
1.12299
39.2266
1.29757
39.2273
1.47091
39.2284
1.643
39.2297
1.81381
39.2312
1.98333
39.233
2.15152
39.2351
2.31837
39.2373
2.48387
39.2399
2.64802
39.2426
2.81079
39.2457
2.97216
39.2489
3.13215
39.2524
3.29072
39.2562
3.44785
39.2602
3.60355
39.2645
3.75767
39.2681
3.91024
39.2727
4.0612
39.2777
4.21044
39.2829
4.35779
39.2883
4.50311
39.294
4.64644
39.2998
39.3061
4.788
0.190041
35.2032
0.389635
37.5147
0.572951
38.9301
0.753941
39.0447
0.933008
39.0466
1.11177
39.0478
1.2897
39.0494
1.46683
39.0513
1.64306
39.0535
1.81835
39.056
1.99262
39.0588
2.16581
39.0619
2.33786
39.0653
2.50872
39.069
2.67833
39.073
2.84665
39.0774
3.0136
39.082
3.17915
39.0869
3.34325
39.0921
3.50583
39.0976
3.66689
39.1035
3.82592
39.1091
3.98323
39.1154
4.13881
39.1221
4.29261
39.1291
4.44455
39.1364
4.59453
39.144
4.74248
39.1519
39.1598
4.88884
0.172294
35.0309
0.349524
37.3375
0.546311
38.7334
0.746424
38.8446
0.946082
38.847
1.14487
38.849
1.34284
38.8514
1.53987
38.8542
1.73591
38.8574
1.93087
38.861
2.12467
38.865
2.31726
38.8693
2.50853
38.874
2.69843
38.8791
2.88688
38.8846
3.0738
38.8904
3.25913
38.8967
3.44279
38.9032
3.62471
38.9102
3.80484
38.9175
3.98314
38.9252
4.15918
38.9331
4.3332
38.9414
4.50521
38.9501
4.67515
38.9592
4.84298
38.9686
5.00864
38.9783
5.17203
38.9885
38.9986
5.33318
0.18797
34.8429
0.37569
37.1497
0.589295
38.5198
0.807744
38.6261
1.02584
38.6289
1.24334
38.6315
1.46013
38.6346
1.67609
38.6383
1.8911
38.6424
2.10505
38.6471
2.31783
38.6522
2.52932
38.6578
2.73942
38.6639
2.94803
38.6705
3.15504
38.6776
3.36036
38.6851
3.56389
38.6931
3.76554
38.7016
3.96521
38.7105
4.16281
38.7199
4.35827
38.7297
4.55138
38.7399
4.74215
38.7506
4.93053
38.7617
5.11645
38.7732
5.29983
38.7852
5.48063
38.7975
5.6588
38.8103
38.8232
5.83422
0.212621
34.6303
0.424888
36.9375
0.659685
38.285
0.898211
38.3876
1.13631
38.3908
1.37384
38.394
1.61064
38.3978
1.84658
38.4023
2.08151
38.4075
2.3153
38.4133
2.5478
38.4197
2.77888
38.4267
3.00842
38.4344
3.23628
38.4426
3.46234
38.4515
3.68648
38.461
3.90857
38.471
4.1285
38.4817
4.34616
38.4929
4.56143
38.5046
4.77421
38.5169
4.98437
38.5298
5.19182
38.5432
5.39648
38.5571
5.59825
38.5715
5.79704
38.5864
5.99279
38.6018
6.18542
38.6176
38.6337
6.37492
0.235648
34.3947
0.47149
36.7016
0.730193
38.0263
0.992277
38.1255
1.25377
38.1293
1.51452
38.1332
1.77437
38.138
2.03315
38.1436
2.29071
38.1499
2.54689
38.1571
2.80153
38.165
3.05448
38.1738
3.30559
38.1833
3.55471
38.1935
3.80169
38.2045
4.0464
38.2163
4.28868
38.2287
4.52842
38.2419
4.76547
38.2558
4.99971
38.2704
5.23101
38.2856
5.45924
38.3016
5.6843
38.3181
5.90607
38.3353
6.12444
38.3531
6.33932
38.3715
6.5506
38.3905
6.75821
38.41
38.4298
6.96213
0.259453
34.1352
0.519369
36.4417
0.804321
37.7413
1.09269
37.8371
1.38031
37.8417
1.667
37.8465
1.95256
37.8524
2.23682
37.8593
2.51959
37.8672
2.80068
37.876
3.0799
37.8858
3.35709
37.8966
3.63206
37.9083
3.90464
37.9209
4.17466
37.9345
4.44195
37.949
4.70636
37.9643
4.96772
37.9806
5.22588
37.9977
5.48069
38.0156
5.732
38.0343
5.97969
38.0539
6.22361
38.0742
6.46364
38.0953
6.69964
38.1171
6.93151
38.1396
7.15914
38.1629
7.3824
38.1868
38.2109
7.60131
0.285856
33.8493
0.5725
36.1551
0.886315
37.4275
1.20353
37.5199
1.51983
37.5254
1.83501
37.5314
2.14883
37.5386
2.46108
37.5471
2.77152
37.5567
3.07995
37.5676
3.38614
37.5796
3.68987
37.5928
3.99095
37.6072
4.28916
37.6227
4.58431
37.6394
4.87619
37.6571
5.16463
37.6759
5.44942
37.6958
5.7304
37.7167
6.00739
37.7386
6.28022
37.7615
6.54873
37.7854
6.81276
37.8102
7.07218
37.8359
7.32683
37.8625
7.57658
37.8899
7.8213
37.9181
8.06088
37.9472
37.9765
8.29529
0.314967
33.5344
0.631184
35.8389
0.976665
37.082
1.32544
37.1711
1.67313
37.1777
2.01946
37.185
2.36416
37.1939
2.70698
37.2042
3.04763
37.2161
3.38587
37.2293
3.72142
37.2441
4.05404
37.2602
4.38347
37.2778
4.70947
37.2967
5.03182
37.317
5.35026
37.3386
5.66458
37.3616
5.97457
37.3858
6.28001
37.4112
6.5807
37.4379
6.87645
37.4657
7.16706
37.4947
7.45237
37.5248
7.7322
37.556
8.00639
37.5883
8.27478
37.6215
8.53725
37.6557
8.79364
37.6908
37.7262
9.04393
0.346691
33.1877
0.695241
35.4903
1.07526
36.702
1.45841
36.788
1.84024
36.7959
2.22046
36.8048
2.59873
36.8156
2.97474
36.8282
3.34816
36.8426
3.71868
36.8588
4.086
36.8768
4.44981
36.8964
4.80982
36.9178
5.16574
36.9408
5.51729
36.9655
5.8642
36.9917
6.2062
37.0196
6.54305
37.0489
6.87449
37.0798
7.20029
37.1121
7.52023
37.1458
7.83409
37.1809
8.14167
37.2173
8.44277
37.2549
8.73721
37.2938
9.02483
37.3339
9.30545
37.3751
9.57893
37.4173
37.4599
9.84524
0.38102
32.8067
0.764689
35.1066
1.18211
36.2846
1.60244
36.3676
2.0212
36.3771
2.43803
36.388
2.85254
36.4011
3.26434
36.4164
3.67306
36.4339
4.07832
36.4536
4.47977
36.4753
4.87704
36.4991
5.26978
36.525
5.65767
36.5529
6.04036
36.5828
6.41754
36.6146
6.78891
36.6482
7.15416
36.6837
7.51301
36.7209
7.86519
36.7599
8.21044
36.8006
8.54851
36.8428
8.87917
36.8866
9.20221
36.9319
9.51742
36.9786
9.8246
37.0267
10.1236
37.0761
10.4142
37.1267
37.1777
10.6964
0.417947
32.3887
0.839557
34.685
1.29723
35.8269
1.75753
35.9073
2.21595
35.9187
2.67207
35.9319
3.12544
35.9478
3.57559
35.9663
4.02209
35.9874
4.46449
36.0112
4.90236
36.0374
5.33528
36.0662
5.76284
36.0975
6.18465
36.1311
6.60032
36.1671
7.00947
36.2054
7.41175
36.2459
7.80681
36.2886
8.19433
36.3334
8.574
36.3803
8.94551
36.429
9.30858
36.4797
9.66296
36.5322
10.0084
36.5865
10.3446
36.6424
10.6715
36.6998
10.9888
36.7588
11.2964
36.8192
36.88
11.594
0.457427
31.9313
0.919806
34.2226
1.42053
35.3262
1.92352
35.4044
2.42428
35.4179
2.92232
35.4338
3.4171
35.453
3.9081
35.4753
4.39477
35.5008
4.8766
35.5293
5.35309
35.561
5.82375
35.5956
6.28809
35.6331
6.74565
35.6735
7.19599
35.7168
7.63867
35.7627
8.07327
35.8113
8.4994
35.8625
8.91669
35.9161
9.32476
35.9722
9.72329
36.0305
10.1119
36.0911
10.4904
36.1537
10.8585
36.2184
11.2159
36.285
11.5623
36.3534
11.8976
36.4235
12.2216
36.4952
36.5675
12.5341
0.49933
31.432
1.00524
33.7167
1.55171
34.7797
2.09997
34.8561
2.64562
34.8723
3.18808
34.8914
3.72672
34.9143
4.2609
34.9411
4.79001
34.9716
5.31345
35.0059
5.83063
35.0438
6.34097
35.0852
6.84391
35.1302
7.33892
35.1785
7.82547
35.2302
8.30307
35.2851
8.77124
35.3432
9.22951
35.4042
9.67746
35.4682
10.1147
35.535
10.5408
35.6044
10.9554
35.6765
11.3582
35.7509
11.7489
35.8277
12.1272
35.9067
12.4928
35.9878
12.8455
36.0707
13.1852
36.1555
36.2411
13.5116
0.543476
30.8885
1.09556
33.1647
1.69026
34.185
2.28622
34.2601
2.87913
34.2793
3.46833
34.3022
4.05306
34.3296
4.63261
34.3616
5.20624
34.398
5.77328
34.4389
6.33302
34.484
6.8848
34.5334
7.42799
34.587
7.96194
34.6446
8.48607
34.7061
8.99979
34.7714
9.50256
34.8404
9.99386
34.9129
10.4732
34.9889
10.9401
35.0681
11.3941
35.1504
11.8348
35.2357
12.2619
35.3238
12.675
35.4146
13.0738
35.5079
13.458
35.6035
13.8275
35.7013
14.1819
35.8011
35.902
14.5209
0.589601
30.2989
1.19031
32.5639
1.83548
33.5398
2.4813
33.6143
3.1236
33.637
3.76158
33.6642
4.39442
33.6968
5.02125
33.7347
5.64126
33.778
6.25364
33.8265
6.8576
33.8801
7.45237
33.9387
8.03721
34.0022
8.61139
34.0704
9.17424
34.1432
9.72508
34.2206
10.2633
34.3022
10.7883
34.3879
11.2995
34.4777
11.7964
34.5712
12.2784
34.6683
12.7452
34.7689
13.1964
34.8727
13.6315
34.9795
14.0501
35.0892
14.4522
35.2015
14.8372
35.3162
15.2051
35.4332
35.5518
15.5554
0.637353
29.6615
1.28886
31.9124
1.98639
32.8423
2.68388
32.9168
3.37733
32.9436
4.06584
32.9757
4.74845
33.0142
5.42419
33.059
6.09212
33.1101
6.7513
33.1673
7.40084
33.2305
8.03986
33.2997
8.66751
33.3745
9.28297
33.4549
9.88544
33.5408
10.4742
33.6318
11.0485
33.7279
11.6076
33.8288
12.151
33.9343
12.678
34.0442
13.1881
34.1583
13.6807
34.2762
14.1555
34.3979
14.6119
34.5231
15.0498
34.6514
15.4685
34.7827
15.8681
34.9167
16.2482
35.0531
35.1919
16.6081
0.686294
28.9752
1.3904
31.2083
2.14169
32.091
2.89223
32.1663
3.63816
32.1977
4.3785
32.2353
5.11215
32.2805
5.83802
32.3331
6.55502
32.3931
7.26212
32.4602
7.95828
32.5344
8.64251
32.6154
9.31384
32.7032
9.97133
32.7975
10.6141
32.898
11.2412
33.0047
11.852
33.1171
12.4455
33.2352
13.0212
33.3586
13.5783
33.4871
14.1162
33.6204
14.6342
33.7582
15.132
33.9001
15.6092
34.0459
16.065
34.1956
16.4995
34.3482
16.9122
34.504
17.3025
34.6628
34.8243
17.6701
0.735875
28.2394
1.49389
30.4503
2.2998
31.2851
3.10418
31.3619
3.9034
31.3984
4.69636
31.4424
5.48182
31.495
6.25856
31.5564
7.02537
31.6262
7.78107
31.7045
8.52451
31.7909
9.25454
31.8854
9.97008
31.9876
10.6701
32.0975
11.3535
32.2146
12.0194
32.3388
12.6668
32.4697
13.2948
32.6072
13.9027
32.7508
14.4898
32.9001
15.0549
33.0552
15.5981
33.215
16.1184
33.3798
16.6148
33.5495
17.0884
33.722
17.537
33.8995
17.961
34.08
18.3612
34.2626
34.4519
18.7337
0.785448
27.4539
1.59806
29.6377
2.45877
30.4244
3.31716
30.5035
4.16984
30.5458
5.01559
30.5966
5.85306
30.6576
6.68088
30.7286
7.49771
30.8094
8.30224
30.9
9.09316
31
9.86921
31.1093
10.6292
31.2277
11.3718
31.3548
12.096
31.4904
12.8007
31.6341
13.4848
31.7857
14.1471
31.9448
14.7873
32.1106
15.4034
32.284
15.9963
32.4623
16.5635
32.6478
17.1047
32.8386
17.6219
33.0323
18.1095
33.2345
18.5718
33.4372
19.0077
33.6442
19.4113
33.859
34.0733
19.7898
0.834282
26.6196
1.70147
28.7705
2.61636
29.5095
3.52818
29.5917
4.43376
29.6402
5.33179
29.6986
6.2208
29.7686
7.09929
29.8501
7.96579
29.9429
8.81883
30.0469
9.657
30.1619
10.4789
30.2875
11.2831
30.4235
12.0682
30.5697
12.8331
30.7255
13.5764
30.8909
14.2969
31.0652
14.9939
31.2478
15.6647
31.4398
16.3119
31.6367
16.9294
31.8449
17.5207
32.0565
18.0859
32.2733
18.6152
32.503
19.123
32.7267
19.5971
32.9632
20.0344
33.2068
20.4529
33.4406
33.6985
20.8277
0.881573
25.7381
1.80245
27.8496
2.77005
28.5419
3.73388
28.6279
4.69099
28.6831
5.64002
28.7496
6.57937
28.8292
7.50744
28.922
8.42263
29.0277
9.32333
29.1462
10.208
29.2772
11.075
29.4204
11.9228
29.5757
12.7502
29.7423
13.5551
29.9206
14.337
30.109
15.0938
30.3083
15.8232
30.5184
16.5293
30.7338
17.1997
30.9663
17.848
31.1966
18.4639
31.4406
19.0393
31.6979
19.6015
31.9409
20.1129
32.2153
20.5927
32.4834
21.0573
32.7422
21.4583
33.0396
33.3151
21.8416
0.926465
24.8116
1.8992
26.8769
2.9171
27.524
3.93059
27.6144
4.937
27.6767
5.9349
27.7517
6.92263
27.8415
7.89847
27.9462
8.8607
28.0655
9.80759
28.1993
10.7375
28.3473
11.6485
28.5094
12.5394
28.6848
13.4074
28.8742
14.253
29.075
15.0717
29.2903
15.8637
29.5164
16.6315
29.7505
17.358
30.0073
18.0711
30.2532
18.7368
30.5309
19.3674
30.81
19.9901
31.0751
20.5365
31.3945
21.0741
31.6777
21.5841
31.9734
22.0098
32.3165
22.4488
32.6006
32.9403
22.8237
0.968081
23.8435
1.98982
25.8552
3.05462
26.4592
4.1145
26.5545
5.16704
26.6241
6.21083
26.7079
7.24414
26.8082
8.26518
26.9251
9.27212
27.0586
10.2631
27.2083
11.2363
27.3742
12.1902
27.5556
13.1216
27.7533
14.0318
27.964
14.9133
28.1935
15.7714
28.4321
16.6016
28.6862
17.3891
28.9631
18.1725
29.2239
18.8858
29.5399
19.5865
29.8302
20.268
30.1285
20.8531
30.4901
21.4646
30.783
22.0134
31.1289
22.4793
31.5075
22.9818
31.8139
23.385
32.1975
32.5764
23.7489
1.00555
22.838
2.07236
24.7883
3.17967
25.3519
4.2817
25.4525
5.37631
25.5295
6.46213
25.622
7.5374
25.7329
8.6003
25.8622
9.64892
26.0099
10.6813
26.1759
11.6957
26.3597
12.6892
26.5621
13.6628
26.7797
14.607
27.0198
15.5331
27.2674
16.4237
27.5415
17.2795
27.8304
18.1325
28.1101
18.8954
28.4609
19.6808
28.7546
20.4111
29.0998
21.0499
29.4898
21.7376
29.8024
22.3293
30.1912
22.8515
30.6067
23.4174
30.9416
23.8464
31.3849
24.2573
31.7866
32.181
24.6526
1.03807
21.7999
2.14493
23.6815
3.28941
24.2074
4.42844
24.3134
5.56015
24.3978
6.68327
24.4989
7.79609
24.6201
8.89674
24.7616
9.98331
24.9234
11.0539
25.1054
12.1058
25.3078
13.1394
25.5285
14.145
25.7741
15.1375
26.0274
16.0862
26.3186
17.0175
26.6103
17.9315
26.9164
18.754
27.2876
19.6261
27.5888
20.3999
27.9808
21.1133
28.3865
21.8825
28.7205
22.5165
29.1684
23.099
29.6087
23.7355
29.9702
24.207
30.4701
24.6736
30.9183
25.1275
31.3327
31.8407
25.4679
1.06491
20.735
2.20579
22.5406
3.38124
23.032
4.55125
23.1434
5.71427
23.2348
6.86917
23.344
8.01432
23.4749
9.14795
23.628
10.268
23.8033
11.3725
24.0009
12.4604
24.22
13.5243
24.4646
14.5772
24.7211
15.5833
25.0214
16.5912
25.3108
17.5544
25.6471
18.4533
26.0175
19.403
26.3379
20.2274
26.7644
21.0239
27.1843
21.868
27.5424
22.5492
28.0393
23.2116
28.506
23.9144
28.906
24.431
29.4536
24.9855
29.9156
25.4697
30.4341
25.8506
30.9518
31.4608
26.2305
1.08546
19.6495
2.25344
21.3726
3.45289
21.8325
4.64714
21.9492
5.83495
22.047
7.0154
22.1636
8.18705
22.3033
9.34804
22.467
10.4968
22.6546
11.6311
22.8665
12.747
23.1041
13.8518
23.3598
14.9146
23.6583
15.9907
23.9452
16.9975
24.304
17.9872
24.6573
18.9952
25.0095
19.8788
25.4543
20.7602
25.8829
21.685
26.2595
22.4098
26.8176
23.1744
27.2746
23.9189
27.7615
24.5184
28.3065
25.1673
28.8047
25.6795
29.4034
26.1518
29.9618
26.6069
30.4967
31.1319
26.9358
1.0993
18.5502
2.28672
20.1852
3.50264
20.6166
4.71378
20.738
5.91927
20.8415
7.11849
20.9644
8.31006
21.1117
9.49268
21.2843
10.664
21.4832
11.8223
21.7082
12.969
21.9574
14.0846
22.2443
15.2138
22.5291
16.2668
22.8922
17.3453
23.2255
18.3908
23.6119
19.3487
24.0515
20.3204
24.4827
21.2778
24.9256
22.0774
25.4599
22.9704
25.9245
23.7483
26.4968
24.4771
27.0327
25.169
27.6146
25.7213
28.2523
26.31
28.8147
26.833
29.4388
27.164
30.1658
30.7501
27.5457
1.10622
17.444
2.30497
18.9864
3.52947
19.3921
4.7498
19.5177
5.96545
19.6259
7.17609
19.7537
8.38087
19.9069
9.57797
20.0872
10.7666
20.2946
11.9449
20.5299
13.1039
20.7984
14.2699
21.0783
15.3701
21.4289
16.5125
21.7498
17.5912
22.1468
18.6275
22.5755
19.6681
23.011
20.6856
23.4652
21.6202
23.991
22.5551
24.5249
23.3922
25.0875
24.2364
25.6525
24.9846
26.2845
25.6091
26.9902
26.3311
27.5303
26.8835
28.2623
27.2964
29.0258
27.8379
29.6243
30.4619
28.126
1.10615
16.3379
2.30795
17.7846
3.5331
18.167
4.75487
18.2959
5.97307
18.4077
7.18779
18.539
8.39818
18.6965
9.60367
18.8818
10.8022
19.0961
11.9906
19.3415
13.18
19.6089
14.3239
19.9344
15.5124
20.2404
16.6198
20.6424
17.7235
21.0431
18.8468
21.4522
19.9197
21.9381
20.918
22.4669
21.8929
23.016
22.8406
23.5773
23.7657
24.1623
24.5705
24.8478
25.3044
25.5506
26.1805
26.114
26.7387
26.9721
27.2713
27.7297
27.8945
28.4027
28.2361
29.2828
30.1017
28.5963
1.09923
15.2386
2.29585
16.588
3.51387
16.949
4.72947
17.0803
5.94272
17.1944
7.15405
17.3277
8.36315
17.4874
9.56915
17.6758
10.7705
17.8947
11.9713
18.1407
13.1466
18.4337
14.3555
18.7255
15.4924
19.1035
16.653
19.4818
17.8174
19.8787
18.9044
20.3651
19.9752
20.8673
21.0553
21.3868
22.0825
21.9889
23.0893
22.5705
23.957
23.2947
24.8458
23.9589
25.7649
24.6315
26.3917
25.4872
27.0883
26.2755
27.7757
27.0423
28.2119
27.9664
28.6641
28.8305
29.7412
29.0246
1.08575
14.1529
2.26924
15.4045
3.47269
15.7455
4.67481
15.8782
5.87593
15.9933
7.07662
16.127
8.27733
16.2867
9.4766
16.4765
10.6774
16.694
11.8661
16.952
13.0769
17.2229
14.2382
17.5642
15.4325
17.9092
16.6121
18.3022
17.7391
18.7517
18.878
19.2262
20.0382
19.7072
21.0831
20.3418
22.1809
20.8911
23.1262
21.6252
24.1423
22.2785
25.0883
23.013
25.8781
23.8417
26.6994
24.666
27.4096
25.5653
28.012
26.4399
28.5669
27.4116
29.031
28.3664
29.4327
29.3396
1.06614
13.0867
2.22909
14.2416
3.41102
14.5636
4.59288
14.6963
5.77491
14.8113
6.95858
14.9433
8.14303
15.1023
9.33165
15.2879
10.5151
15.5105
11.7148
15.7523
12.8855
16.0522
14.0817
16.368
15.2828
16.7081
16.437
17.1479
17.6101
17.5787
18.7995
18.0368
19.878
18.6287
21.0478
19.1719
22.0872
19.8517
23.1942
20.5182
24.1918
21.281
25.1324
22.0723
26.0169
22.9571
26.8247
23.8582
27.6381
24.7519
28.2517
25.8262
28.8032
26.86
29.2301
27.9396
29.0458
29.617
1.04095
12.0458
2.17663
13.1059
3.3308
13.4094
4.48611
13.541
5.64319
13.6542
6.80248
13.784
7.96728
13.9375
9.13102
14.1241
10.3102
14.3314
11.4725
14.5899
12.6645
14.8601
13.8575
15.175
15.0014
15.5642
16.2056
15.9438
17.3931
16.3912
18.5318
16.8981
19.7191
17.4413
20.8449
18.0462
22.0127
18.684
23.0649
19.4659
24.1129
20.233
25.0692
21.116
26.088
21.9383
26.9485
22.9977
27.6657
24.0347
28.371
25.121
29.0212
26.2098
29.4857
27.4752
28.7571
29.7743
1.01071
11.0351
2.11334
12.0033
3.23426
12.2885
4.35773
12.4176
5.48373
12.5282
6.61508
12.6527
7.74852
12.804
8.8961
12.9765
10.0335
13.194
11.2031
13.4203
12.3585
13.7048
13.5049
14.0286
14.7167
14.3524
15.8822
14.7783
17.048
15.2254
18.2233
15.7228
19.4246
16.24
20.6064
16.8644
21.6582
17.6322
22.8526
18.2716
23.9491
19.1365
25.0266
20.0385
25.9217
21.0432
26.9081
22.0113
27.7212
23.2217
28.4696
24.3725
29.0509
25.6284
29.5518
26.9744
28.3637
29.9452
0.975955
10.0591
2.04085
10.9384
3.12398
11.2054
4.21075
11.3308
5.30192
11.437
6.39709
11.5575
7.50365
11.6975
8.60666
11.8735
9.7403
12.0604
10.8537
12.3069
11.9939
12.5646
13.173
12.8495
14.2871
13.2383
15.4731
13.5923
16.6629
14.0356
17.8497
14.536
18.9952
15.0945
20.1523
15.7073
21.4426
16.3418
22.5649
17.1493
23.6543
18.0471
24.7359
18.9569
25.8036
19.9756
26.7395
21.0754
27.6953
22.2658
28.4433
23.6246
29.0908
24.9809
29.6212
26.444
28.0107
29.9742
0.937396
9.12172
1.96096
9.91482
3.00253
10.1638
4.04913
10.2842
5.10023
10.3859
6.15974
10.498
7.22163
10.6356
8.30668
10.7885
9.37694
10.9901
10.489
11.1948
11.6051
11.4484
12.6872
11.7674
13.8805
12.045
15.0144
12.4585
16.1483
12.9016
17.3485
13.3358
18.5559
13.8871
19.7378
14.5254
20.9084
15.1712
22.0521
16.0055
23.3118
16.7874
24.4559
17.8128
25.513
18.9185
26.5197
20.0686
27.4712
21.3144
28.3415
22.7542
29.043
24.2794
29.6259
25.8611
27.623
30.0136
0.896387
8.22534
1.87554
8.93567
2.87273
9.1666
3.87583
9.28107
4.8853
9.37646
5.90024
9.48306
6.93011
9.60573
7.9566
9.76197
9.01889
9.92781
10.0723
10.1415
11.1299
10.3908
12.2789
10.6184
13.3303
10.9936
14.4583
11.3305
15.6622
11.6977
16.7987
12.1993
17.9567
12.7291
19.1693
13.3128
20.3572
13.9833
21.6486
14.7141
22.7768
15.6592
23.9872
16.6024
25.1769
17.7289
26.2328
19.0128
27.21
20.3371
28.1213
21.843
28.9171
23.4836
29.515
25.2632
27.2066
29.9314
0.854155
7.37118
1.78642
8.0034
2.73704
8.21599
3.69478
8.32332
4.65873
8.41251
5.63225
8.50953
6.61089
8.62709
7.61134
8.76152
8.61056
8.92859
9.62811
9.12391
10.7005
9.31841
11.6931
9.62572
12.815
9.87174
13.9379
10.2076
15.0144
10.6213
16.1662
11.0474
17.3359
11.5595
18.5829
12.0658
19.7753
12.7908
20.9242
13.5652
22.2361
14.3474
23.4252
15.4132
24.6462
16.5079
25.861
17.7979
26.8977
19.3004
27.8702
20.8704
28.7021
22.6518
29.3951
24.5701
26.7558
29.8459
0.810956
6.56022
1.69504
7.11932
2.59785
7.31318
3.50855
7.41262
4.42656
7.4945
5.35247
7.58362
6.2903
7.68926
7.23798
7.81385
8.1968
7.96976
9.19569
8.12503
10.1475
8.36657
11.2168
8.55647
12.2455
8.84304
13.2776
9.1755
14.3864
9.51247
15.5128
9.92105
16.7163
10.356
17.795
10.9871
19.0345
11.5514
20.3122
12.2875
21.5279
13.1316
22.8652
14.0759
24.0567
15.3165
25.2868
16.5678
26.4851
18.1021
27.5536
19.802
28.4631
21.7422
29.171
23.8623
26.2626
29.6641
0.767266
5.79296
1.60274
6.28385
2.45717
6.45875
3.32013
6.54965
4.19089
6.62375
5.06965
6.70486
5.96177
6.79714
6.85735
6.91826
7.79201
7.0351
8.69098
7.22605
9.68762
7.36993
10.6366
7.60751
11.6243
7.85534
12.6621
8.13774
13.7322
8.44232
14.8278
8.82548
15.871
9.31274
17.1374
9.72069
18.297
10.3919
19.519
11.0655
20.7928
11.8578
22.0444
12.8243
23.4694
13.8915
24.705
15.3322
25.9321
16.875
27.1125
18.6215
28.164
20.6908
28.9504
23.0759
25.6977
29.5153
0.723602
5.06936
1.51069
5.49676
2.31673
5.65271
3.13197
5.73441
3.95444
5.80128
4.78817
5.87113
5.62491
5.9604
6.49506
6.04812
7.33502
6.19514
8.26438
6.2967
9.13848
6.49583
10.0676
6.67842
11.0278
6.89506
12.0327
7.13283
13.0172
7.45783
14.0477
7.79505
15.2171
8.14327
16.2525
8.68534
17.4754
9.16889
18.7411
9.79982
19.9713
10.6277
21.2934
11.5022
22.5902
12.5946
24.0275
13.8949
25.3834
15.5191
26.5746
17.4303
27.7401
19.5253
28.6737
22.1422
25.0604
29.311
0.680428
4.38893
1.41985
4.75734
2.17812
4.89444
2.94553
4.967
3.72188
5.02493
4.50328
5.08973
5.30743
5.15625
6.09352
5.26204
6.95312
5.33554
7.75176
5.49806
8.62509
5.62249
9.51951
5.784
10.4298
5.98474
11.3397
6.22297
12.3224
6.4751
13.3382
6.77931
14.341
7.14046
15.527
7.49929
16.5877
8.10826
17.8169
8.57053
19.088
9.35662
20.401
10.1892
21.8281
11.1675
23.1615
12.5615
24.6797
14.001
26.0539
16.056
27.2837
18.2955
28.3292
21.0967
24.3251
29.0645
0.638119
3.75081
1.33102
4.06444
2.04236
4.1831
2.76332
4.24604
3.49129
4.29696
4.2317
4.34932
4.97093
4.41701
5.75036
4.48261
6.49506
4.59083
7.31209
4.68103
8.12675
4.80784
8.94373
4.96702
9.79548
5.13299
10.6991
5.31938
11.627
5.54714
12.5666
5.83974
13.6117
6.09533
14.5696
6.5414
15.8183
6.8596
16.8653
7.52352
18.1446
8.07725
19.4903
8.84356
20.8688
9.78902
22.3798
11.0506
23.8089
12.5719
25.3604
14.5045
26.7735
16.8824
27.9705
19.8997
23.462
28.8335
0.596978
3.15383
1.24479
3.41663
1.91058
3.5173
2.58545
3.57117
3.26949
3.61292
3.95687
3.66194
4.66977
3.70412
5.35832
3.79406
6.12571
3.82344
6.82316
3.98358
7.62132
4.00968
8.38314
4.20521
9.22087
4.29526
10.0419
4.49832
10.9144
4.67469
11.8344
4.91968
12.785
5.14479
13.8111
5.5153
14.7923
5.87836
16.0206
6.29524
17.1582
6.93965
18.4782
7.5236
19.8652
8.40196
21.3491
9.56664
22.9992
10.9218
24.5675
12.9363
26.1704
15.2795
27.5545
18.5155
22.4206
28.596
0.557218
2.59661
1.16161
2.81224
1.78325
2.89566
2.41405
2.94036
3.05224
2.97473
3.69961
3.01457
4.35398
3.04975
5.02497
3.12307
5.70745
3.14097
6.39226
3.29877
7.14161
3.26032
7.8293
3.51752
8.64526
3.47929
9.39323
3.75035
10.2569
3.81098
11.0854
4.09127
12.007
4.22315
12.9393
4.58303
14.0211
4.79656
14.981
5.33536
16.2871
5.63355
17.4145
6.39618
18.8433
6.97311
20.289
8.12103
21.9679
9.24289
23.7633
11.1409
25.5023
13.5405
27.1168
16.9011
21.1352
28.4022
0.519012
2.0776
1.08181
2.24944
1.66106
2.31641
2.2489
2.35253
2.84503
2.3786
3.44551
2.4141
4.06557
2.42968
4.67226
2.51638
5.3413
2.47193
5.94187
2.6982
6.68733
2.51486
7.27511
2.92975
8.12463
2.62977
8.72636
3.14862
9.60844
2.92889
10.3506
3.34911
11.2656
3.30812
12.0994
3.74923
13.1244
3.77158
14.0962
4.36359
15.2241
4.50563
16.4375
5.1828
17.7574
5.65321
19.193
6.68541
20.9015
7.53441
22.6247
9.4177
24.8599
11.3053
26.6396
15.1214
19.4182
28.3566
0.482433
1.59517
1.0055
1.72637
1.54406
1.77785
2.09091
1.80568
2.64514
1.82436
3.20528
1.85396
3.77971
1.85525
4.34959
1.9465
4.96826
1.85326
5.53196
2.1345
6.2237
1.82312
6.78843
2.36503
7.54534
1.87286
8.14618
2.54778
8.9929
2.08216
9.61075
2.73127
10.5352
2.38363
11.3055
2.97898
12.2888
2.78826
13.1603
3.49211
14.3063
3.35963
15.3477
4.14134
16.7579
4.24304
18.0278
5.4155
19.7826
5.77964
21.5245
7.67581
23.8716
8.95809
26.123
12.87
17.239
28.3022
0.447622
1.14755
0.933075
1.24092
1.43294
1.27798
1.94077
1.29786
2.45491
1.31022
2.97735
1.33153
3.50412
1.32847
4.04875
1.40187
4.59638
1.30563
5.15498
1.5759
5.74862
1.22947
6.32619
1.78746
6.98296
1.21609
7.56362
1.96712
8.30516
1.34063
8.9819
2.05452
9.76892
1.59661
10.5078
2.24009
11.3978
1.89824
12.3021
2.58783
13.3474
2.31431
14.4114
3.07735
15.6812
2.97329
17.0675
4.02919
18.6609
4.18617
20.639
5.6977
22.8404
6.75674
25.696
10.0144
14.2649
28.6701
0.414393
0.733153
0.863708
0.791605
1.32639
0.8153
1.79647
0.827772
2.27276
0.833934
2.75598
0.848307
3.24547
0.838984
3.75068
0.896661
4.24509
0.811218
4.80819
1.0128
5.28626
0.751405
5.92422
1.14949
6.4157
0.72462
7.13726
1.24556
7.63774
0.840144
8.41283
1.27944
9.00656
1.00289
9.85035
1.3963
10.5366
1.21199
11.5192
1.60523
12.335
1.4985
13.4819
1.93044
14.532
1.9232
15.9743
2.58692
17.4766
2.68382
19.4776
3.69669
21.779
4.45535
25.3744
6.41897
10.2417
29.3977
0.383604
0.349549
0.800638
0.374571
1.22981
0.386125
1.66598
0.391602
2.10719
0.39273
2.55563
0.399865
3.00047
0.394146
3.4852
0.411927
3.91017
0.386252
4.45343
0.469539
4.85568
0.34915
5.46953
0.535639
5.85714
0.33701
6.52108
0.581622
6.95577
0.405453
7.64019
0.595011
8.16415
0.478932
8.9004
0.660042
9.5355
0.576894
10.3819
0.758858
11.1615
0.718882
12.1755
0.916396
13.1903
0.90848
14.5098
1.26742
15.9594
1.23422
17.8417
1.81438
20.1407
2.15634
23.9696
2.59007
5.51829
28.693
0.349549
0.724119
1.11024
1.50185
1.89458
2.29444
2.68859
3.10052
3.48677
3.95631
4.30546
4.8411
5.17811
5.75973
6.16518
6.76019
7.23912
7.89917
8.47606
9.23492
9.9538
10.8702
11.7787
13.0461
14.2803
16.0947
18.251
20.8411
26.3594
1.4588
54.1025
1.49558
54.1035
1.5317
54.1041
1.56711
54.1048
1.60186
54.1055
1.63594
54.1062
1.66932
54.1069
1.70201
54.1075
1.73402
54.1082
1.76533
54.1089
1.79591
54.1096
1.8258
54.1103
1.85497
54.1111
1.88339
54.1118
1.91109
54.1125
1.93803
54.1133
1.96421
54.1141
1.98964
54.1148
2.01428
54.1156
2.03813
54.1164
2.06118
54.1172
2.08344
54.118
2.10487
54.1188
2.12548
54.1196
2.14526
54.1205
2.16419
54.1213
2.18227
54.1222
2.19951
54.123
2.21588
54.1239
2.23138
54.1247
2.24602
54.1256
2.25977
54.1265
2.27264
54.1274
2.28463
54.1282
2.29574
54.1291
2.30595
54.13
2.31526
54.1309
2.32369
54.1318
2.33122
54.1327
2.33784
54.1336
2.34356
54.1345
2.34839
54.1354
2.35232
54.1363
2.35534
54.1372
2.35747
54.1381
2.35872
54.139
2.35908
54.1399
2.35855
54.1408
2.35714
54.1416
2.35486
54.1425
2.3517
54.1434
2.34767
54.1443
2.34277
54.1451
2.33702
54.146
2.33043
54.1468
2.32299
54.1477
2.31471
54.1485
2.30559
54.1493
2.29565
54.1502
2.28491
54.151
2.27336
54.1518
2.26101
54.1526
2.24786
54.1534
2.23393
54.1542
2.21923
54.1549
2.20377
54.1557
2.18755
54.1564
2.1706
54.1572
2.15291
54.1579
2.13449
54.1587
2.11535
54.1594
2.09551
54.1601
2.07498
54.1608
2.05377
54.1614
2.03189
54.1621
2.00935
54.1628
1.98615
54.1634
1.96231
54.1641
1.93783
54.1647
1.91273
54.1653
1.88703
54.1659
1.86073
54.1665
1.83386
54.1671
1.80641
54.1677
1.77842
54.1682
1.74986
54.1688
1.72076
54.1693
1.69112
54.1699
1.66096
54.1704
1.63029
54.1709
1.59913
54.1714
1.56749
54.1719
1.53539
54.1723
1.50282
54.1728
1.46981
54.1732
1.43636
54.1737
1.4025
54.1741
1.36821
54.1745
1.33353
54.1749
1.29845
54.1753
1.26298
54.1757
1.22713
54.1761
1.1909
54.1765
1.15432
54.1768
1.11739
54.1772
1.08012
54.1775
1.04253
54.1778
1.00461
54.1782
0.966373
54.1785
0.92783
54.1788
0.888981
54.1791
0.849835
54.1794
0.810395
54.1797
0.770672
54.18
0.730674
54.1802
0.690421
54.1805
0.649926
54.1807
0.609217
54.1809
0.568304
54.1811
0.527211
54.1813
0.485946
54.1815
0.444526
54.1817
0.402951
54.1818
0.361231
54.182
0.319362
54.1821
0.277317