/*--------------------------------*- C++ -*----------------------------------*\
| =========                 |                                                 |
| \\      /  F ield         | OpenFOAM: The Open Source CFD Toolbox           |
|  \\    /   O peration     | Version:  5.x                                   |
|   \\  /    A nd           | Web:      www.OpenFOAM.org                      |
|    \\/     M anipulation  |                                                 |
\*---------------------------------------------------------------------------*/
/*   Windows 32 and 64 bit porting by blueCAPE: http://www.bluecape.com.pt   *\
|  Based on Windows porting (2.0.x v4) by Symscape: http://www.symscape.com   |
\*---------------------------------------------------------------------------*/
FoamFile
{
    version     2.0;
    format      ascii;
    class       volVectorField;
    location    "40";
    object      U;
}
// * * * * * * * * * * * * * * * * * * * * * * * * * * * * * * * * * * * * * //

dimensions      [0 1 -1 0 0 0 0];

internalField   nonuniform List<vector> 
43900
(
(1.15539 0.000358207 -2.22858e-027)
(1.16364 0.00138091 -5.96244e-027)
(1.16391 0.000955366 9.36251e-031)
(1.16384 0.00127472 2.03178e-030)
(1.16387 0.00131257 1.9934e-030)
(1.16389 0.00141518 2.2584e-030)
(1.16389 0.00150686 7.94349e-027)
(1.16391 0.00159662 -1.58767e-026)
(1.16392 0.00168415 5.75916e-030)
(1.16392 0.00176965 -1.58586e-026)
(1.16393 0.00185336 1.58712e-026)
(1.16394 0.0019354 6.8144e-030)
(1.16395 0.00201587 -1.58372e-026)
(1.16396 0.00209485 1.48831e-029)
(1.16396 0.00217242 1.5472e-029)
(1.16397 0.00224868 1.60378e-029)
(1.16398 0.00232371 -3.16091e-026)
(1.16398 0.00239757 3.42142e-029)
(1.16399 0.00247033 3.16262e-026)
(1.164 0.00254203 1.8103e-029)
(1.164 0.00261272 1.85765e-029)
(1.16401 0.00268234 1.90355e-029)
(1.16401 0.00275089 1.9481e-029)
(1.16402 0.00281848 1.99134e-029)
(1.16403 0.00288513 2.03335e-029)
(1.16403 0.0029509 -3.1434e-026)
(1.16404 0.00301581 4.22767e-029)
(1.16404 0.00307987 4.3048e-029)
(1.16405 0.00314339 1.25603e-025)
(1.15182 0.0033412 0)
(1.16611 0.00033063 0)
(1.16641 0.00260786 0)
(1.16592 0.00177809 0)
(1.16621 0.00213023 0)
(1.16616 0.00239109 0)
(1.16622 0.00238755 0)
(1.16626 0.00256017 0)
(1.1663 0.00268513 0)
(1.16634 0.00281215 0)
(1.16637 0.00293704 0)
(1.16641 0.00305983 0)
(1.16644 0.00318082 0)
(1.16646 0.00329937 0)
(1.16649 0.00341698 0)
(1.16651 0.00353272 0)
(1.16654 0.00364682 0)
(1.16656 0.00375927 0)
(1.16658 0.00387014 0)
(1.1666 0.00397974 0)
(1.16661 0.00408766 0)
(1.16663 0.00419419 0)
(1.16665 0.00429898 0)
(1.16667 0.00440174 0)
(1.16668 0.00450488 0)
(1.16669 0.00460595 0)
(1.16671 0.00470587 0)
(1.16672 0.00480513 0)
(1.16673 0.00490075 0)
(1.12741 0.0125469 0)
(1.16583 -0.00339641 0)
(1.17045 0.00965717 0)
(1.17006 0.00136932 0)
(1.17035 0.00648617 0)
(1.17028 0.00409278 0)
(1.17034 0.00520534 0)
(1.17036 0.00515192 0)
(1.17038 0.00531838 0)
(1.1704 0.00548423 0)
(1.17043 0.00565456 0)
(1.17045 0.0058294 0)
(1.17048 0.00600813 0)
(1.1705 0.00619052 0)
(1.17052 0.00637553 0)
(1.17055 0.00656346 0)
(1.17057 0.0067535 0)
(1.1706 0.00694565 0)
(1.17063 0.00713944 0)
(1.17065 0.00733433 0)
(1.17068 0.00753148 0)
(1.17072 0.00772728 0)
(1.17075 0.00792538 0)
(1.17078 0.00812358 0)
(1.17081 0.008321 0)
(1.17084 0.00851886 0)
(1.17087 0.00871597 0)
(1.17091 0.00891261 0)
(1.17094 0.00910935 2.16383e-027)
(1.07401 0.0134829 0)
(1.14724 -0.00471936 0)
(1.16584 0.0114605 0)
(1.16646 0.000999527 0)
(1.16637 0.00771972 0)
(1.16635 0.00431143 0)
(1.1663 0.00600146 0)
(1.16626 0.00576494 0)
(1.16623 0.00597364 0)
(1.1662 0.00615593 0)
(1.16617 0.00634217 0)
(1.16615 0.00653434 0)
(1.16613 0.00673131 0)
(1.16612 0.00693406 0)
(1.16611 0.00714025 0)
(1.1661 0.0073508 0)
(1.1661 0.00756413 0)
(1.16611 0.00778171 0)
(1.16611 0.00800146 0)
(1.16612 0.00822314 0)
(1.16613 0.0084475 0)
(1.16616 0.00867332 0)
(1.16618 0.0089021 0)
(1.1662 0.00913121 0)
(1.16623 0.00935977 0)
(1.16626 0.00958761 0)
(1.16629 0.00981309 0)
(1.16633 0.0100369 0)
(1.16638 0.0102574 2.34537e-027)
(1.04997 0.00616202 4.943e-027)
(1.12207 -0.00252937 0)
(1.15655 0.00662292 0)
(1.15889 0.0010474 0)
(1.15849 0.00521653 0)
(1.15846 0.00347731 0)
(1.15832 0.00469938 0)
(1.15822 0.00484149 0)
(1.15813 0.00520915 0)
(1.15805 0.00555831 0)
(1.15798 0.00590531 0)
(1.15792 0.00625019 0)
(1.15787 0.00659264 0)
(1.15783 0.00693278 0)
(1.1578 0.00727038 0)
(1.15777 0.00760571 0)
(1.15775 0.00793839 0)
(1.15774 0.00826808 0)
(1.15773 0.00859547 0)
(1.15773 0.00891981 0)
(1.15774 0.00924216 0)
(1.15773 0.00955973 0)
(1.15774 0.0098789 0)
(1.15776 0.0101943 0)
(1.15778 0.0105078 0)
(1.15781 0.0108181 0)
(1.15784 0.0111228 0)
(1.15788 0.0114241 0)
(1.15792 0.0117354 -9.844e-027)
(1.04483 0.00221449 -5.21042e-027)
(1.1142 -0.000663563 0)
(1.15365 0.00288484 0)
(1.15691 0.00139807 0)
(1.15662 0.0031708 0)
(1.15663 0.0030708 0)
(1.15655 0.0037865 0)
(1.1565 0.00424685 0)
(1.15645 0.00474685 0)
(1.15642 0.00523569 0)
(1.15639 0.00571815 0)
(1.15637 0.00619466 0)
(1.15636 0.00666528 0)
(1.15636 0.00713 0)
(1.15637 0.00758922 0)
(1.15638 0.00804277 0)
(1.15641 0.00849119 0)
(1.15644 0.00893385 0)
(1.15647 0.00937154 0)
(1.15652 0.00980374 0)
(1.15658 0.0102312 0)
(1.15661 0.0106528 0)
(1.15667 0.0110707 0)
(1.15675 0.0114826 0)
(1.15683 0.0118903 0)
(1.15691 0.012295 0)
(1.157 0.0126989 0)
(1.1571 0.0130959 0)
(1.15719 0.013487 5.21548e-027)
(1.04128 0.000819778 0)
(1.10955 0.000487965 0)
(1.15039 0.00185444 0)
(1.15376 0.0019221 0)
(1.15365 0.00273601 0)
(1.15367 0.0031622 0)
(1.15365 0.00373787 0)
(1.15365 0.00426645 0)
(1.15366 0.00479989 0)
(1.15367 0.00532835 0)
(1.15369 0.00585278 0)
(1.15372 0.00637328 0)
(1.15375 0.00688968 0)
(1.15379 0.00740185 0)
(1.15384 0.00790999 0)
(1.1539 0.00841371 0)
(1.15397 0.00891339 0)
(1.15404 0.00940858 0)
(1.15412 0.00989954 0)
(1.15421 0.0103862 0)
(1.15431 0.0108681 0)
(1.15438 0.0113459 0)
(1.15448 0.0118183 0)
(1.1546 0.0122859 0)
(1.15472 0.0127479 0)
(1.15485 0.0132042 0)
(1.15498 0.0136562 0)
(1.15512 0.0141035 0)
(1.15526 0.0145423 0)
(1.03445 0.000161361 0)
(1.10233 0.000952967 0)
(1.14398 0.00166848 0)
(1.14739 0.00212982 0)
(1.14746 0.00276473 0)
(1.1475 0.00332148 0)
(1.14755 0.00390884 0)
(1.14761 0.00448499 0)
(1.14768 0.00506008 0)
(1.14775 0.00563203 0)
(1.14783 0.00620067 0)
(1.14792 0.00676601 0)
(1.14801 0.00732769 0)
(1.14811 0.00788557 0)
(1.14822 0.00843956 0)
(1.14834 0.00898929 0)
(1.14846 0.0095348 0)
(1.1486 0.0100758 0)
(1.14874 0.010612 0)
(1.14888 0.0111436 0)
(1.14904 0.0116703 0)
(1.14918 0.0121912 0)
(1.14935 0.0127056 0)
(1.14952 0.013215 0)
(1.14971 0.0137184 0)
(1.1499 0.0142159 0)
(1.1501 0.0147067 0)
(1.15031 0.0151929 0)
(1.15053 0.0156704 0)
(1.02875 -9.98837e-005 0)
(1.09636 0.00110791 0)
(1.13733 0.00146659 0)
(1.14057 0.00223824 0)
(1.14063 0.00291336 0)
(1.14068 0.00359093 0)
(1.14073 0.00427393 0)
(1.1408 0.00495221 0)
(1.14088 0.00562747 0)
(1.14097 0.00629917 0)
(1.14107 0.00696699 0)
(1.14118 0.00763079 0)
(1.1413 0.00829019 0)
(1.14143 0.008945 0)
(1.14157 0.00959496 0)
(1.14172 0.0102398 0)
(1.14188 0.0108793 0)
(1.14205 0.0115132 0)
(1.14223 0.0121412 0)
(1.14242 0.012763 0)
(1.14262 0.0133792 0)
(1.14282 0.0139877 0)
(1.14304 0.014589 0)
(1.14327 0.0151835 0)
(1.14351 0.0157709 0)
(1.14376 0.0163513 0)
(1.14402 0.016924 0)
(1.14428 0.0174899 0)
(1.14456 0.0180467 0)
(1.02383 -0.00013634 0)
(1.09143 0.00129219 0)
(1.13173 0.00164172 0)
(1.13486 0.00256859 0)
(1.13493 0.00332843 0)
(1.135 0.0041164 0)
(1.13508 0.00490468 0)
(1.13517 0.00568968 0)
(1.13528 0.00647157 0)
(1.1354 0.00724976 0)
(1.13553 0.00802393 0)
(1.13568 0.00879362 0)
(1.13584 0.00955848 0)
(1.13601 0.0103181 0)
(1.13619 0.0110721 0)
(1.13639 0.0118202 0)
(1.1366 0.0125619 0)
(1.13682 0.013297 0)
(1.13706 0.014025 0)
(1.13731 0.0147457 0)
(1.13756 0.015459 0)
(1.13783 0.0161638 0)
(1.13811 0.0168602 0)
(1.13841 0.0175481 0)
(1.13871 0.0182271 0)
(1.13903 0.0188971 0)
(1.13935 0.0195577 0)
(1.13969 0.0202094 0)
(1.14004 0.0208506 -1.36433e-026)
(1.01809 -0.00013456 0)
(1.0857 0.00152444 0)
(1.12536 0.00196782 0)
(1.12839 0.00302341 0)
(1.12848 0.00389974 0)
(1.12857 0.00480979 0)
(1.12867 0.00571891 0)
(1.12879 0.00662472 0)
(1.12893 0.00752707 0)
(1.12909 0.00842517 0)
(1.12926 0.00931873 0)
(1.12945 0.010207 0)
(1.12965 0.0110897 0)
(1.12987 0.0119662 0)
(1.13011 0.012836 0)
(1.13036 0.0136987 0)
(1.13063 0.0145538 0)
(1.13091 0.0154008 0)
(1.13121 0.0162394 0)
(1.13153 0.0170689 0)
(1.13186 0.0178893 0)
(1.1322 0.0186997 0)
(1.13256 0.0194999 0)
(1.13293 0.0202897 0)
(1.13331 0.0210685 0)
(1.13371 0.0218361 0)
(1.13412 0.0225921 0)
(1.13455 0.0233366 0)
(1.13498 0.0240688 1.44109e-026)
(1.01147 -0.000149386 0)
(1.07907 0.00177959 0)
(1.11806 0.00231154 0)
(1.12098 0.00352891 0)
(1.12109 0.00454812 0)
(1.12119 0.00560383 0)
(1.12132 0.00665785 0)
(1.12147 0.00770769 0)
(1.12164 0.00875303 0)
(1.12183 0.00979296 0)
(1.12205 0.0108271 0)
(1.12228 0.0118546 0)
(1.12254 0.0128751 0)
(1.12281 0.0138877 0)
(1.12311 0.014892 0)
(1.12342 0.0158874 0)
(1.12376 0.0168733 0)
(1.12411 0.0178491 0)
(1.12449 0.0188143 0)
(1.12488 0.0197684 0)
(1.12529 0.0207109 0)
(1.12572 0.0216412 0)
(1.12616 0.0225588 0)
(1.12662 0.0234634 0)
(1.1271 0.0243545 0)
(1.1276 0.0252316 0)
(1.12811 0.0260943 0)
(1.12863 0.0269425 0)
(1.12917 0.0277757 1.57255e-026)
(1.00418 -0.000165887 0)
(1.07178 0.00206524 0)
(1.11004 0.00269506 0)
(1.11285 0.00410459 0)
(1.11297 0.00529139 0)
(1.11311 0.00651808 0)
(1.11326 0.00774228 0)
(1.11345 0.00896111 0)
(1.11366 0.010174 0)
(1.1139 0.0113801 0)
(1.11416 0.0125787 0)
(1.11445 0.0137688 0)
(1.11477 0.01495 0)
(1.11511 0.0161212 0)
(1.11547 0.0172819 0)
(1.11586 0.0184312 0)
(1.11627 0.0195686 0)
(1.11671 0.0206932 0)
(1.11717 0.0218045 0)
(1.11765 0.0229018 0)
(1.11816 0.0239845 0)
(1.11869 0.0250519 0)
(1.11923 0.0261036 0)
(1.1198 0.0271388 0)
(1.12039 0.0281572 0)
(1.121 0.029158 0)
(1.12162 0.0301409 0)
(1.12227 0.0311056 0)
(1.12293 0.0320516 -1.66166e-026)
(0.996193 -0.000183287 0)
(1.06377 0.00239851 0)
(1.10124 0.00314471 0)
(1.10395 0.00477659 0)
(1.1041 0.00615834 0)
(1.10426 0.00758384 0)
(1.10446 0.00900591 0)
(1.10468 0.0104212 0)
(1.10495 0.0118289 0)
(1.10524 0.0132279 0)
(1.10556 0.0146174 0)
(1.10592 0.0159962 0)
(1.10631 0.0173635 0)
(1.10672 0.0187183 0)
(1.10717 0.0200597 0)
(1.10765 0.0213868 0)
(1.10816 0.0226987 0)
(1.10869 0.0239946 0)
(1.10926 0.0252737 0)
(1.10985 0.0265351 0)
(1.11047 0.0277781 0)
(1.11111 0.029002 0)
(1.11178 0.030206 0)
(1.11248 0.0313894 0)
(1.1132 0.0325516 0)
(1.11394 0.033692 0)
(1.1147 0.0348099 0)
(1.11549 0.0359048 0)
(1.1163 0.0369767 -1.82365e-026)
(0.987388 -0.000202195 0)
(1.05493 0.00278665 0)
(1.09156 0.00367068 0)
(1.09417 0.00555928 0)
(1.09435 0.00716755 0)
(1.09455 0.00882365 0)
(1.09479 0.0104751 0)
(1.09507 0.012118 0)
(1.09539 0.0137513 0)
(1.09574 0.0153736 0)
(1.09614 0.0169837 0)
(1.09658 0.0185804 0)
(1.09705 0.0201625 0)
(1.09756 0.0217288 0)
(1.09811 0.0232782 0)
(1.0987 0.0248095 0)
(1.09932 0.0263216 0)
(1.09997 0.0278136 0)
(1.10066 0.0292843 0)
(1.10138 0.0307328 0)
(1.10213 0.0321582 0)
(1.10292 0.0335595 0)
(1.10373 0.0349359 0)
(1.10458 0.0362864 0)
(1.10545 0.0376105 0)
(1.10635 0.0389072 0)
(1.10728 0.0401759 0)
(1.10823 0.0414158 0)
(1.10921 0.0426273 1.92774e-026)
(0.977688 -0.000221759 0)
(1.04518 0.00323485 0)
(1.08091 0.00428178 0)
(1.08342 0.00646571 0)
(1.08364 0.00833646 0)
(1.08388 0.0102591 0)
(1.08417 0.0121756 0)
(1.08451 0.0140814 0)
(1.0849 0.0159748 0)
(1.08534 0.0178544 0)
(1.08582 0.0197186 0)
(1.08635 0.0215659 0)
(1.08693 0.0233947 0)
(1.08755 0.0252035 0)
(1.08822 0.026991 0)
(1.08893 0.0287558 0)
(1.08968 0.0304964 0)
(1.09048 0.0322117 0)
(1.09132 0.0339002 0)
(1.09219 0.0355609 0)
(1.0931 0.0371925 0)
(1.09406 0.0387939 0)
(1.09504 0.0403642 0)
(1.09606 0.0419022 0)
(1.09712 0.0434071 0)
(1.09821 0.0448779 0)
(1.09933 0.0463137 0)
(1.10048 0.0477136 0)
(1.10165 0.0490784 0)
(0.967019 -0.000240987 0)
(1.03444 0.00374965 0)
(1.0692 0.00498887 0)
(1.07162 0.00751074 0)
(1.07188 0.00968438 0)
(1.07217 0.0119139 0)
(1.07253 0.0141353 0)
(1.07294 0.016343 0)
(1.07342 0.0185353 0)
(1.07395 0.0207102 0)
(1.07454 0.0228656 0)
(1.07518 0.0249997 0)
(1.07588 0.0271106 0)
(1.07664 0.0291963 0)
(1.07745 0.0312553 0)
(1.07831 0.0332856 0)
(1.07922 0.0352858 0)
(1.08018 0.037254 0)
(1.08119 0.0391888 0)
(1.08225 0.0410887 0)
(1.08335 0.0429524 0)
(1.0845 0.0447783 0)
(1.08569 0.0465653 0)
(1.08692 0.0483121 0)
(1.08819 0.0500176 0)
(1.0895 0.0516808 0)
(1.09084 0.0533006 0)
(1.09222 0.0548757 0)
(1.09363 0.0564077 0)
(0.955306 -0.000258756 0)
(1.02263 0.00433826 0)
(1.05635 0.00580406 0)
(1.0587 0.00871076 0)
(1.059 0.0112324 0)
(1.05936 0.0138135 0)
(1.05979 0.0163842 0)
(1.06029 0.0189377 0)
(1.06086 0.0214717 0)
(1.06151 0.0239839 0)
(1.06222 0.0264717 0)
(1.063 0.0289327 0)
(1.06385 0.0313646 0)
(1.06476 0.0337651 0)
(1.06573 0.036132 0)
(1.06677 0.0384632 0)
(1.06787 0.0407566 0)
(1.06903 0.0430101 0)
(1.07025 0.045222 0)
(1.07152 0.0473904 0)
(1.07285 0.0495136 0)
(1.07423 0.0515899 0)
(1.07566 0.0536178 0)
(1.07714 0.0555958 0)
(1.07866 0.0575227 0)
(1.08022 0.0593972 0)
(1.08183 0.061218 0)
(1.08348 0.0629834 0)
(1.08516 0.0646963 0)
(0.942475 -0.000273522 5.77233e-026)
(1.00967 0.00500814 0)
(1.04229 0.00674041 0)
(1.04456 0.0100832 0)
(1.04493 0.0130031 0)
(1.04536 0.0159856 0)
(1.04588 0.0189545 0)
(1.04648 0.0219021 0)
(1.04717 0.0248253 0)
(1.04795 0.0277212 0)
(1.04881 0.0305866 0)
(1.04975 0.0334187 0)
(1.05076 0.0362144 0)
(1.05186 0.038971 0)
(1.05304 0.0416858 0)
(1.05429 0.0443561 0)
(1.05561 0.0469794 0)
(1.057 0.0495532 0)
(1.05846 0.0520753 0)
(1.05998 0.0545434 0)
(1.06157 0.0569554 0)
(1.06322 0.0593095 0)
(1.06493 0.0616037 0)
(1.0667 0.0638363 0)
(1.06851 0.0660058 0)
(1.07038 0.0681106 0)
(1.0723 0.0701496 0)
(1.07426 0.07212 0)
(1.07626 0.0740267 0)
(0.928453 -0.000283526 2.06029e-027)
(0.995475 0.00576655 0)
(1.02693 0.00781111 0)
(1.02914 0.0116457 0)
(1.02958 0.0150191 0)
(1.0301 0.0184578 0)
(1.03072 0.021879 0)
(1.03145 0.0252736 0)
(1.03228 0.028638 0)
(1.03321 0.0319685 0)
(1.03424 0.0352612 0)
(1.03536 0.0385125 0)
(1.03658 0.0417188 0)
(1.0379 0.0448766 0)
(1.0393 0.0479826 0)
(1.0408 0.0510335 0)
(1.04238 0.0540263 0)
(1.04404 0.0569579 0)
(1.04578 0.0598257 0)
(1.04761 0.0626268 0)
(1.0495 0.0653589 0)
(1.05147 0.0680194 0)
(1.0535 0.0706064 0)
(1.0556 0.0731176 0)
(1.05776 0.0755513 0)
(1.05998 0.0779057 0)
(1.06225 0.0801796 0)
(1.06457 0.0823692 0)
(1.06694 0.0844817 0)
(0.913172 -0.000286176 -6.68845e-026)
(0.979968 0.00662031 0)
(1.0102 0.00902984 0)
(1.01237 0.0134159 0)
(1.01289 0.0173035 0)
(1.01351 0.021258 0)
(1.01426 0.0251904 0)
(1.01512 0.0290899 0)
(1.01611 0.0329522 0)
(1.01722 0.0367727 0)
(1.01845 0.0405466 0)
(1.0198 0.0442695 0)
(1.02125 0.0479369 0)
(1.02282 0.0515447 0)
(1.0245 0.0550887 0)
(1.02628 0.0585649 0)
(1.02816 0.0619697 0)
(1.03014 0.0652994 0)
(1.03221 0.0685506 0)
(1.03437 0.0717201 0)
(1.03662 0.0748049 0)
(1.03895 0.0778022 0)
(1.04137 0.0807094 0)
(1.04385 0.083524 0)
(1.04641 0.086244 0)
(1.04903 0.0888672 0)
(1.05171 0.0913926 0)
(1.05445 0.0938149 0)
(1.05725 0.0961444 0)
(0.896572 -0.000278278 0)
(0.963075 0.00757556 0)
(0.992035 0.0104102 0)
(0.994177 0.0154114 0)
(0.994794 0.019879 0)
(0.995532 0.0244139 0)
(0.996418 0.0289211 0)
(0.99745 0.0333881 0)
(0.998627 0.0378095 0)
(0.999946 0.0421797 0)
(1.00141 0.046493 0)
(1.003 0.0507439 0)
(1.00473 0.054927 0)
(1.00659 0.0590371 0)
(1.00858 0.0630694 0)
(1.01069 0.0670189 0)
(1.01292 0.0708811 0)
(1.01526 0.0746516 0)
(1.01771 0.0783265 0)
(1.02027 0.0819016 0)
(1.02293 0.0853737 0)
(1.02569 0.0887391 0)
(1.02853 0.0919949 0)
(1.03146 0.0951383 0)
(1.03447 0.0981667 0)
(1.03756 0.101078 0)
(1.04072 0.10387 0)
(1.04393 0.106537 0)
(1.04721 0.109093 0)
(0.878601 -0.000255885 -8.32584e-026)
(0.944731 0.00863724 0)
(0.972371 0.0119651 0)
(0.974506 0.0176482 0)
(0.975234 0.0227662 0)
(0.976107 0.0279508 0)
(0.977155 0.033101 0)
(0.978376 0.0382023 0)
(0.979767 0.0432484 0)
(0.981327 0.0482323 0)
(0.983051 0.0531473 0)
(0.984936 0.0579865 0)
(0.986979 0.0627435 0)
(0.989174 0.0674121 0)
(0.991519 0.0719862 0)
(0.994007 0.07646 0)
(0.996635 0.080828 0)
(0.999396 0.0850849 0)
(1.00229 0.0892258 0)
(1.0053 0.0932462 0)
(1.00843 0.0971415 0)
(1.01167 0.100908 0)
(1.01501 0.104542 0)
(1.01845 0.10804 0)
(1.02198 0.111399 0)
(1.0256 0.114617 0)
(1.02929 0.117692 0)
(1.03306 0.120617 0)
(1.03688 0.123408 7.37658e-026)
(0.859218 -0.000213783 -3.17196e-027)
(0.924879 0.00980841 0)
(0.951163 0.0137062 0)
(0.953313 0.0201403 0)
(0.954167 0.0259833 0)
(0.955194 0.0318908 0)
(0.956426 0.037756 0)
(0.957861 0.0435624 0)
(0.959497 0.0493026 0)
(0.961329 0.0549681 0)
(0.963355 0.0605507 0)
(0.965569 0.0660423 0)
(0.967968 0.0714351 0)
(0.970545 0.0767217 0)
(0.973297 0.0818945 0)
(0.976217 0.0869468 0)
(0.979299 0.0918719 0)
(0.982536 0.0966631 0)
(0.985923 0.101315 0)
(0.98945 0.105822 0)
(0.993114 0.110179 0)
(0.996903 0.114381 0)
(1.00081 0.118422 0)
(1.00483 0.122303 0)
(1.00895 0.126015 0)
(1.01318 0.129556 0)
(1.01748 0.132932 0)
(1.02186 0.136119 0)
(1.02632 0.13915 1.64224e-027)
(0.8384 -0.000146166 9.68957e-026)
(0.903475 0.0110901 0)
(0.92838 0.0156429 0)
(0.930568 0.0228983 0)
(0.931565 0.0295442 0)
(0.932764 0.0362507 0)
(0.934203 0.0429061 0)
(0.935879 0.0494917 0)
(0.937789 0.0559986 0)
(0.939929 0.0624167 0)
(0.942294 0.0687363 0)
(0.944879 0.0749477 0)
(0.947679 0.0810416 0)
(0.950687 0.0870087 0)
(0.953898 0.0928406 0)
(0.957305 0.0985288 0)
(0.960899 0.104065 0)
(0.964675 0.109442 0)
(0.968621 0.114652 0)
(0.972735 0.11969 0)
(0.976997 0.124548 0)
(0.981414 0.129219 0)
(0.985962 0.133706 0)
(0.99063 0.137991 0)
(0.995438 0.14208 0)
(1.00032 0.145974 0)
(1.00532 0.149647 0)
(1.01042 0.15312 0)
(1.01555 0.156401 -8.45383e-026)
(0.816136 -4.6244e-005 0)
(0.880491 0.0124804 0)
(0.904009 0.0177815 0)
(0.906256 0.0259287 0)
(0.907412 0.0334571 0)
(0.908804 0.041041 0)
(0.910472 0.048564 0)
(0.912416 0.056005 0)
(0.914631 0.0633536 0)
(0.917112 0.070598 0)
(0.919855 0.0777266 0)
(0.922853 0.0847281 0)
(0.9261 0.091591 0)
(0.92959 0.0983049 0)
(0.933314 0.104859 0)
(0.937265 0.111243 0)
(0.941434 0.117449 0)
(0.945809 0.123463 0)
(0.950392 0.129286 0)
(0.955145 0.134898 0)
(0.960107 0.140297 0)
(0.965204 0.145491 0)
(0.970467 0.150431 0)
(0.975913 0.155168 0)
(0.981399 0.159668 0)
(0.987109 0.163884 0)
(0.992887 0.167935 0)
(0.998679 0.171662 0)
(1.00472 0.175166 0)
(0.792439 9.39036e-005 0)
(0.855919 0.0139742 0)
(0.878055 0.0201243 0)
(0.880386 0.0292323 0)
(0.881715 0.0377235 0)
(0.883317 0.0462636 0)
(0.885238 0.0547322 0)
(0.887475 0.0631058 0)
(0.890025 0.0713726 0)
(0.892881 0.0795187 0)
(0.89604 0.0875306 0)
(0.899492 0.0953942 0)
(0.903233 0.103098 0)
(0.907252 0.110626 0)
(0.911546 0.117969 0)
(0.916097 0.125115 0)
(0.920902 0.132044 0)
(0.925956 0.138767 0)
(0.931207 0.145238 0)
(0.936749 0.151484 0)
(0.942385 0.157489 0)
(0.948318 0.163184 0)
(0.954418 0.168698 0)
(0.960518 0.173875 0)
(0.967093 0.178747 0)
(0.973488 0.183481 0)
(0.980054 0.187729 0)
(0.987059 0.191783 0)
(0.993601 0.195646 1.00461e-025)
(0.767344 0.000282707 0)
(0.829774 0.0155629 0)
(0.850551 0.0226685 0)
(0.852986 0.0328034 0)
(0.854504 0.0423359 0)
(0.856333 0.0519099 0)
(0.858525 0.0614013 0)
(0.861079 0.0707846 0)
(0.86399 0.0800459 0)
(0.867253 0.08917 0)
(0.870861 0.0981394 0)
(0.874809 0.106941 0)
(0.879084 0.115555 0)
(0.883689 0.123973 0)
(0.888592 0.132173 0)
(0.893815 0.140139 0)
(0.899318 0.147883 0)
(0.90507 0.155327 0)
(0.911205 0.162559 0)
(0.917341 0.169477 0)
(0.924065 0.176056 0)
(0.930724 0.18249 0)
(0.937528 0.188409 0)
(0.94512 0.194097 0)
(0.951901 0.199647 0)
(0.959604 0.204402 0)
(0.967548 0.209305 0)
(0.974479 0.213686 0)
(0.982987 0.217429 1.70371e-027)
(0.740909 0.00052876 0)
(0.802096 0.0172343 0)
(0.821554 0.0254049 0)
(0.824111 0.0366284 0)
(0.825829 0.0472774 0)
(0.827898 0.0579597 0)
(0.830378 0.0685486 0)
(0.833269 0.0790162 0)
(0.836565 0.0893479 0)
(0.84026 0.0995236 0)
(0.844352 0.10953 0)
(0.848824 0.119337 0)
(0.853687 0.128948 0)
(0.858892 0.138315 0)
(0.864503 0.147451 0)
(0.8704 0.156331 0)
(0.876661 0.164881 0)
(0.883347 0.173245 0)
(0.889947 0.181172 0)
(0.897607 0.188814 0)
(0.904555 0.196285 0)
(0.9124 0.203031 0)
(0.920918 0.209764 0)
(0.92783 0.21619 0)
(0.9374 0.221541 0)
(0.945667 0.227553 0)
(0.953181 0.232422 0)
(0.963886 0.236708 0)
(0.971415 0.241679 -2.31308e-025)
(0.713217 0.000840416 0)
(0.772952 0.0189725 0)
(0.791145 0.0283178 0)
(0.793843 0.0406854 0)
(0.795769 0.05252 0)
(0.798088 0.0643797 0)
(0.800867 0.0761358 0)
(0.804107 0.0877596 0)
(0.807804 0.0992318 0)
(0.811956 0.110538 0)
(0.816547 0.121642 0)
(0.821593 0.132556 0)
(0.827029 0.143199 0)
(0.832972 0.153639 0)
(0.839176 0.163757 0)
(0.845962 0.173579 0)
(0.853054 0.183188 0)
(0.860174 0.192253 0)
(0.868797 0.201161 0)
(0.875681 0.209743 0)
(0.885231 0.217492 0)
(0.893965 0.225481 0)
(0.901277 0.232845 0)
(0.913346 0.238913 0)
(0.920656 0.246395 0)
(0.930088 0.251554 0)
(0.942824 0.256834 0)
(0.949144 0.262882 0)
(0.961248 0.266109 -1.53076e-027)
(0.684376 0.00122493 0)
(0.742442 0.0207586 0)
(0.759439 0.0313837 0)
(0.762287 0.0449436 0)
(0.764427 0.0580246 0)
(0.766999 0.0711231 0)
(0.770083 0.0841102 0)
(0.773679 0.0969533 0)
(0.777789 0.109639 0)
(0.7824 0.12213 0)
(0.78753 0.134441 0)
(0.793106 0.146462 0)
(0.79929 0.158332 0)
(0.805701 0.169774 0)
(0.813001 0.181062 0)
(0.820261 0.191961 0)
(0.828114 0.202388 0)
(0.837389 0.212691 0)
(0.844115 0.222494 0)
(0.85601 0.231477 0)
(0.863606 0.24087 0)
(0.872722 0.249293 0)
(0.886781 0.25616 0)
(0.892302 0.26558 0)
(0.905688 0.270802 0)
(0.918468 0.277541 0)
(0.924349 0.28484 0)
(0.940589 0.287744 0)
(0.9503 0.294493 1.32839e-025)
(0.654519 0.0016876 0)
(0.710695 0.0225711 0)
(0.726573 0.0345718 0)
(0.72958 0.0493632 0)
(0.731933 0.0637409 0)
(0.734756 0.0781302 0)
(0.73814 0.0924009 0)
(0.742093 0.106526 0)
(0.746608 0.120471 0)
(0.751702 0.134252 0)
(0.75731 0.147742 0)
(0.763604 0.161135 0)
(0.770127 0.173988 0)
(0.77785 0.186925 0)
(0.785032 0.199101 0)
(0.793913 0.211236 0)
(0.803088 0.222867 0)
(0.810231 0.234201 0)
(0.824325 0.24447 0)
(0.829673 0.255546 0)
(0.842802 0.265081 0)
(0.856516 0.273009 0)
(0.861447 0.284995 0)
(0.878957 0.289409 0)
(0.889879 0.298952 0)
(0.897837 0.306889 0)
(0.917568 0.309853 0)
(0.925296 0.319205 0)
(0.938596 0.321963 1.43685e-025)
(0.623798 0.00223091 0)
(0.677869 0.0243873 0)
(0.692714 0.0378445 0)
(0.695881 0.0538966 0)
(0.698441 0.069609 0)
(0.701504 0.0853274 0)
(0.705178 0.100928 0)
(0.709471 0.116371 0)
(0.714394 0.131665 0)
(0.719908 0.146694 0)
(0.726151 0.161658 0)
(0.732701 0.176027 0)
(0.740635 0.190713 0)
(0.747625 0.204183 0)
(0.757645 0.218379 0)
(0.765803 0.231105 0)
(0.774638 0.244517 0)
(0.789428 0.255835 0)
(0.792999 0.269329 0)
(0.811127 0.279449 0)
(0.821481 0.289387 0)
(0.82838 0.303544 0)
(0.849485 0.307189 0)
(0.85807 0.321027 0)
(0.869837 0.327972 0)
(0.890128 0.332507 0)
(0.897797 0.344723 0)
(0.915023 0.34588 0)
(0.930107 0.353331 -1.52641e-025)
(0.592386 0.00285376 0)
(0.644149 0.0261837 0)
(0.658047 0.0411586 0)
(0.661371 0.0584897 0)
(0.664125 0.0755595 0)
(0.667412 0.0926344 0)
(0.671353 0.109589 0)
(0.675969 0.12641 0)
(0.681246 0.143015 0)
(0.687272 0.159556 0)
(0.693748 0.175548 0)
(0.701595 0.19196 0)
(0.708454 0.20687 0)
(0.719285 0.223265 0)
(0.725934 0.236956 0)
(0.737731 0.252998 0)
(0.750557 0.265078 0)
(0.754602 0.281635 0)
(0.776321 0.291564 0)
(0.782423 0.305353 0)
(0.794388 0.319965 0)
(0.815933 0.32467 0)
(0.823176 0.342509 0)
(0.839135 0.347288 0)
(0.857885 0.356641 0)
(0.867157 0.369519 0)
(0.88947 0.369753 0)
(0.901683 0.381563 0)
(0.917291 0.386058 1.63635e-025)
(0.560466 0.00355095 0)
(0.609741 0.0279384 0)
(0.622779 0.0444676 0)
(0.626251 0.0630837 0)
(0.62918 0.0815186 0)
(0.632664 0.0999571 0)
(0.636842 0.118293 0)
(0.641736 0.136468 0)
(0.647388 0.154565 0)
(0.653653 0.172247 0)
(0.661124 0.190272 0)
(0.667977 0.206877 0)
(0.678881 0.22526 0)
(0.684347 0.240195 0)
(0.699178 0.258967 0)
(0.707617 0.271817 0)
(0.715669 0.291485 0)
(0.737866 0.301606 0)
(0.741085 0.319793 0)
(0.758372 0.333008 0)
(0.777834 0.34187 0)
(0.784597 0.361636 0)
(0.80608 0.366161 0)
(0.821228 0.38136 0)
(0.834893 0.391449 0)
(0.858768 0.394302 0)
(0.869989 0.410774 0)
(0.891294 0.41229 0)
(0.910329 0.417534 -3.47965e-025)
(0.528228 0.00431333 0)
(0.574865 0.0296323 0)
(0.587124 0.0477256 0)
(0.590728 0.0676195 0)
(0.593809 0.087409 0)
(0.597457 0.107209 0)
(0.601834 0.126908 0)
(0.606976 0.146519 0)
(0.612855 0.16588 0)
(0.619747 0.185404 0)
(0.626607 0.203917 0)
(0.636791 0.22387 0)
(0.641972 0.24065 0)
(0.658373 0.26145 0)
(0.662289 0.275809 0)
(0.677166 0.298221 0)
(0.69465 0.308854 0)
(0.697407 0.331003 0)
(0.721121 0.344449 0)
(0.73371 0.35832 0)
(0.743585 0.377228 0)
(0.769747 0.38454 0)
(0.78029 0.40396 0)
(0.801055 0.410988 0)
(0.822458 0.420966 0)
(0.834558 0.437726 0)
(0.860304 0.437788 0)
(0.880071 0.449467 0)
(0.895789 0.457656 5.13732e-028)
(0.495868 0.00512759 0)
(0.539751 0.0312492 0)
(0.551301 0.0508884 0)
(0.55502 0.07204 0)
(0.558223 0.0931573 0)
(0.562 0.114293 0)
(0.566524 0.135359 0)
(0.571846 0.156304 0)
(0.578045 0.177258 0)
(0.584731 0.197707 0)
(0.593707 0.218907 0)
(0.599373 0.238046 0)
(0.615284 0.260002 0)
(0.616817 0.277299 0)
(0.636914 0.300524 0)
(0.646145 0.313673 0)
(0.654354 0.339621 0)
(0.679241 0.352627 0)
(0.685088 0.371042 0)
(0.705613 0.389261 0)
(0.727519 0.401922 0)
(0.735843 0.421847 0)
(0.762271 0.429485 0)
(0.782969 0.446823 0)
(0.796203 0.461194 0)
(0.825333 0.464311 0)
(0.844579 0.480159 0)
(0.862513 0.486907 0)
(0.893674 0.490829 1.18451e-027)
(0.463581 0.00597756 0)
(0.504636 0.0327764 0)
(0.515538 0.0539157 0)
(0.519345 0.0762908 0)
(0.52264 0.0986947 0)
(0.526496 0.121124 0)
(0.531129 0.143517 0)
(0.536574 0.165848 0)
(0.542804 0.188058 0)
(0.550474 0.210409 0)
(0.556801 0.231978 0)
(0.570538 0.2547 0)
(0.571747 0.275102 0)
(0.594316 0.298498 0)
(0.596791 0.31602 0)
(0.612706 0.343056 0)
(0.63247 0.355387 0)
(0.637273 0.380903 0)
(0.665183 0.397908 0)
(0.676957 0.416845 0)
(0.690384 0.435223 0)
(0.721622 0.448718 0)
(0.738305 0.46827 0)
(0.751297 0.48176 0)
(0.786955 0.490829 0)
(0.804555 0.508522 0)
(0.826789 0.516392 0)
(0.858537 0.522615 0)
(0.874795 0.534302 2.07778e-025)
(0.431565 0.00684547 0)
(0.469755 0.0342058 0)
(0.480056 0.0567717 0)
(0.483922 0.0803251 0)
(0.487269 0.103952 0)
(0.491171 0.127641 0)
(0.495826 0.151278 0)
(0.501346 0.174981 0)
(0.507846 0.198522 0)
(0.514427 0.222193 0)
(0.525319 0.24566 0)
(0.528108 0.269025 0)
(0.549492 0.292558 0)
(0.54848 0.314469 0)
(0.570035 0.340869 0)
(0.580875 0.35623 0)
(0.591425 0.38736 0)
(0.617852 0.40157 0)
(0.624159 0.427069 0)
(0.646584 0.444951 0)
(0.676075 0.465003 0)
(0.685387 0.48394 0)
(0.707201 0.501316 0)
(0.744855 0.514942 0)
(0.758283 0.534468 0)
(0.786171 0.542618 0)
(0.815308 0.554652 0)
(0.838715 0.569374 0)
(0.873852 0.570109 -2.16217e-025)
(0.400007 0.00771403 0)
(0.435338 0.035533 0)
(0.445072 0.0594286 0)
(0.448962 0.0840969 0)
(0.452329 0.108893 0)
(0.456208 0.133728 0)
(0.460882 0.158674 0)
(0.466367 0.18343 0)
(0.472594 0.208692 0)
(0.480976 0.233092 0)
(0.485779 0.258855 0)
(0.503217 0.282899 0)
(0.501365 0.307732 0)
(0.525757 0.334979 0)
(0.529434 0.354091 0)
(0.547942 0.386186 0)
(0.563994 0.401716 0)
(0.574824 0.432407 0)
(0.601334 0.450332 0)
(0.622075 0.475476 0)
(0.630845 0.495962 0)
(0.664638 0.51786 0)
(0.692746 0.534071 0)
(0.705689 0.556037 0)
(0.743607 0.566097 0)
(0.766262 0.588362 0)
(0.800724 0.597858 0)
(0.829361 0.603657 0)
(0.855609 0.61964 2.30391e-025)
(0.369083 0.00856787 0)
(0.401598 0.0367584 0)
(0.410784 0.0618628 0)
(0.414663 0.0875826 0)
(0.418003 0.113441 0)
(0.421844 0.139442 0)
(0.426401 0.165352 0)
(0.431831 0.191759 0)
(0.438411 0.217306 0)
(0.444312 0.244778 0)
(0.456873 0.269452 0)
(0.457388 0.297406 0)
(0.479785 0.324241 0)
(0.48021 0.346904 0)
(0.502402 0.379611 0)
(0.509605 0.398513 0)
(0.529655 0.431836 0)
(0.549462 0.449935 0)
(0.562424 0.482271 0)
(0.581527 0.502166 0)
(0.617463 0.52875 0)
(0.630138 0.547153 0)
(0.656601 0.574334 0)
(0.694152 0.587873 0)
(0.711886 0.615072 0)
(0.755593 0.621147 0)
(0.775872 0.640117 0)
(0.816792 0.657225 0)
(0.853484 0.657034 0)
(0.338954 0.00939436 0)
(0.368725 0.0378837 0)
(0.377373 0.0640629 0)
(0.381201 0.0907454 0)
(0.384484 0.117626 0)
(0.388205 0.144552 0)
(0.392681 0.171822 0)
(0.397986 0.19858 0)
(0.403792 0.226992 0)
(0.412589 0.25265 0)
(0.416004 0.282931 0)
(0.434309 0.308714 0)
(0.433152 0.335719 0)
(0.456098 0.368818 0)
(0.459683 0.390202 0)
(0.482058 0.424738 0)
(0.492595 0.445318 0)
(0.509708 0.483279 0)
(0.534341 0.500562 0)
(0.559292 0.532153 0)
(0.569435 0.557776 0)
(0.609878 0.585199 0)
(0.628635 0.603975 0)
(0.659792 0.633979 0)
(0.700963 0.644926 0)
(0.720561 0.672963 0)
(0.770244 0.684013 0)
(0.800163 0.694753 0)
(0.838048 0.711926 2.44335e-025)
(0.309766 0.0101806 0)
(0.33688 0.0389107 0)
(0.344992 0.0660182 0)
(0.348731 0.0935945 0)
(0.351914 0.121346 0)
(0.35551 0.149337 0)
(0.359789 0.177173 0)
(0.364795 0.206058 0)
(0.371268 0.23312 0)
(0.37624 0.264363 0)
(0.38909 0.289908 0)
(0.389035 0.321695 0)
(0.410913 0.352077 0)
(0.411027 0.376132 0)
(0.433414 0.414024 0)
(0.440893 0.436887 0)
(0.460708 0.473821 0)
(0.479374 0.495609 0)
(0.498146 0.531209 0)
(0.513578 0.562699 0)
(0.553124 0.586429 0)
(0.564775 0.616354 0)
(0.609078 0.644138 0)
(0.629948 0.664581 0)
(0.665566 0.696453 0)
(0.71442 0.709155 0)
(0.737898 0.734011 0)
(0.791114 0.743884 0)
(0.829981 0.756428 -9.04816e-027)
(0.281648 0.0109078 0)
(0.306189 0.0398326 0)
(0.313769 0.0677368 0)
(0.317382 0.0961026 0)
(0.320436 0.12471 0)
(0.323856 0.153388 0)
(0.327892 0.182616 0)
(0.332901 0.211075 0)
(0.337879 0.242205 0)
(0.346624 0.26903 0)
(0.349213 0.302955 0)
(0.366567 0.330791 0)
(0.365203 0.359969 0)
(0.387528 0.397975 0)
(0.391435 0.421142 0)
(0.41146 0.458767 0)
(0.425204 0.488646 0)
(0.440573 0.520932 0)
(0.463079 0.557803 0)
(0.490809 0.579525 0)