/*--------------------------------*- C++ -*----------------------------------*\
| =========                 |                                                 |
| \\      /  F ield         | OpenFOAM: The Open Source CFD Toolbox           |
|  \\    /   O peration     | Version:  5.x                                   |
|   \\  /    A nd           | Web:      www.OpenFOAM.org                      |
|    \\/     M anipulation  |                                                 |
\*---------------------------------------------------------------------------*/
/*   Windows 32 and 64 bit porting by blueCAPE: http://www.bluecape.com.pt   *\
|  Based on Windows porting (2.0.x v4) by Symscape: http://www.symscape.com   |
\*---------------------------------------------------------------------------*/
FoamFile
{
    version     2.0;
    format      ascii;
    class       volScalarField;
    location    "150";
    object      epsilon;
}
// * * * * * * * * * * * * * * * * * * * * * * * * * * * * * * * * * * * * * //

dimensions      [0 2 -3 0 0 0 0];

internalField   nonuniform List<scalar> 
43900
(
0.00152924
0.00151916
0.00151979
0.00151972
0.00151968
0.00151967
0.00151967
0.00151968
0.00151967
0.00151968
0.00151968
0.00151968
0.00151968
0.00151968
0.00151968
0.00151968
0.00151969
0.00151969
0.00151969
0.00151969
0.00151969
0.00151969
0.00151969
0.00151969
0.00151969
0.00151969
0.00151969
0.00151969
0.00151969
0.000390061
3.7533e-005
3.16521e-005
3.15278e-005
3.27552e-005
3.28032e-005
3.28038e-005
3.28023e-005
3.27931e-005
3.28015e-005
3.28026e-005
3.28045e-005
3.28061e-005
3.28072e-005
3.28081e-005
3.2809e-005
3.28098e-005
3.28105e-005
3.28114e-005
3.28123e-005
3.28131e-005
3.28138e-005
3.28145e-005
3.28151e-005
3.28156e-005
3.28161e-005
3.28165e-005
3.28169e-005
3.28171e-005
0.0497603
0.00546738
0.000258183
9.82979e-006
1.61017e-006
1.32542e-006
1.35534e-006
1.41537e-006
1.41992e-006
1.41777e-006
1.4175e-006
1.41796e-006
1.4183e-006
1.41858e-006
1.41885e-006
1.41909e-006
1.41931e-006
1.41952e-006
1.41971e-006
1.41989e-006
1.42004e-006
1.42017e-006
1.42028e-006
1.42038e-006
1.42047e-006
1.42055e-006
1.42062e-006
1.42068e-006
1.42072e-006
0.145422
0.0429245
0.0092496
0.0011847
6.5465e-005
2.43569e-006
2.53055e-007
1.14e-007
1.08447e-007
1.18611e-007
1.20497e-007
1.19847e-007
1.19662e-007
1.19709e-007
1.19756e-007
1.19794e-007
1.19829e-007
1.19861e-007
1.19889e-007
1.19914e-007
1.19936e-007
1.19955e-007
1.19971e-007
1.19987e-007
1.20001e-007
1.20014e-007
1.20025e-007
1.20036e-007
1.20045e-007
0.196232
0.082829
0.0325465
0.0103751
0.00226514
0.000258013
1.24272e-005
4.55388e-007
4.39554e-008
1.79402e-008
1.64905e-008
1.82375e-008
1.86608e-008
1.86181e-008
1.86103e-008
1.8615e-008
1.86204e-008
1.8625e-008
1.86294e-008
1.86335e-008
1.86372e-008
1.86406e-008
1.86438e-008
1.86469e-008
1.86499e-008
1.86527e-008
1.86554e-008
1.86581e-008
1.86608e-008
0.222351
0.107827
0.052
0.0240442
0.00969492
0.00281359
0.000494136
3.81256e-005
1.50275e-006
6.26939e-008
8.03443e-009
4.24096e-009
4.23958e-009
4.45329e-009
4.48672e-009
4.48949e-009
4.49082e-009
4.49197e-009
4.49304e-009
4.494e-009
4.49467e-009
4.49545e-009
4.49618e-009
4.49701e-009
4.49776e-009
4.49815e-009
4.49919e-009
4.50009e-009
4.50087e-009
0.233613
0.121884
0.0642863
0.0337277
0.0171002
0.0079213
0.0028599
0.000652394
7.23701e-005
3.60871e-006
1.39643e-007
8.01083e-009
1.93667e-009
1.53693e-009
1.57438e-009
1.58018e-009
1.58063e-009
1.58092e-009
1.58124e-009
1.58158e-009
1.58197e-009
1.58228e-009
1.58255e-009
1.58284e-009
1.58316e-009
1.58363e-009
1.58396e-009
1.5842e-009
1.5844e-009
0.237029
0.129413
0.0718784
0.0402322
0.0223643
0.0120548
0.00601421
0.00247168
0.000654185
8.83078e-005
5.16032e-006
2.06808e-007
9.02137e-009
1.3403e-009
8.82603e-010
8.66427e-010
8.66985e-010
8.67056e-010
8.67121e-010
8.67242e-010
8.67493e-010
8.67691e-010
8.67961e-010
8.68112e-010
8.68354e-010
8.68986e-010
8.69024e-010
8.69047e-010
8.69101e-010
0.238297
0.134906
0.077883
0.0455516
0.0267452
0.0155573
0.00877491
0.00460888
0.00204982
0.000586677
8.73098e-005
5.25326e-006
2.0027e-007
7.90733e-009
1.05203e-009
7.85517e-010
7.73691e-010
7.73511e-010
7.73511e-010
7.73516e-010
7.73571e-010
7.73786e-010
7.74381e-010
7.74518e-010
7.74769e-010
7.75515e-010
7.74967e-010
7.74966e-010
7.74984e-010
0.233542
0.134465
0.079188
0.0474537
0.0287359
0.0174254
0.0104427
0.00605516
0.00326922
0.00151228
0.000441835
6.04249e-005
3.2493e-006
1.16732e-007
4.81037e-009
1.04237e-009
9.18207e-010
9.1464e-010
9.14632e-010
9.14637e-010
9.14682e-010
9.14958e-010
9.16384e-010
9.1633e-010
9.16388e-010
9.16968e-010
9.15513e-010
9.15509e-010
9.15519e-010
0.226681
0.132422
0.0790678
0.0481229
0.0296872
0.0184323
0.0114111
0.00694657
0.00406499
0.00219222
0.000987805
0.000258562
2.72522e-005
1.1795e-006
4.09837e-008
2.88297e-009
1.65365e-009
1.616e-009
1.61555e-009
1.61555e-009
1.6156e-009
1.61602e-009
1.61943e-009
1.61729e-009
1.61578e-009
1.61569e-009
1.61243e-009
1.61166e-009
1.61168e-009
0.219168
0.129356
0.0780854
0.0480007
0.0299499
0.0188664
0.0119022
0.00744088
0.00453565
0.0026221
0.00136066
0.00055031
0.000106643
7.16907e-006
2.54376e-007
1.19498e-008
4.22746e-009
3.98886e-009
3.98507e-009
3.98507e-009
3.98489e-009
3.98589e-009
3.98489e-009
3.98317e-009
3.97062e-009
3.96448e-009
3.96027e-009
3.955e-009
3.955e-009
0.21115
0.125544
0.0763662
0.047356
0.0297809
0.0189111
0.0120655
0.00766189
0.00477732
0.0028629
0.00158533
0.000743976
0.000225999
2.53323e-005
1.06126e-006
4.48459e-008
1.21626e-008
1.11401e-008
1.11186e-008
1.11187e-008
1.11138e-008
1.11138e-008
1.10889e-008
1.10849e-008
1.10296e-008
1.10036e-008
1.09897e-008
1.09743e-008
1.09743e-008
0.202771
0.121171
0.0740976
0.0462263
0.0292938
0.0187476
0.0120416
0.00771486
0.00487632
0.00298276
0.0017099
0.000859637
0.000313336
5.19062e-005
2.96205e-006
1.32762e-007
3.52739e-008
3.20399e-008
3.19671e-008
3.19676e-008
3.1925e-008
3.19252e-008
3.18086e-008
3.17317e-008
3.15547e-008
3.15295e-008
3.14219e-008
3.13873e-008
3.13871e-008
0.194083
0.11643
0.0714799
0.0447788
0.0285139
0.0183715
0.0118989
0.00767877
0.00489135
0.00303154
0.00177441
0.000926891
0.000371755
7.59611e-005
5.67844e-006
3.24911e-007
1.02986e-007
9.49351e-008
9.45768e-008
9.45787e-008
9.45005e-008
9.42175e-008
9.40617e-008
9.34741e-008
9.30645e-008
9.32371e-008
9.26272e-008
9.24679e-008
9.24675e-008
0.185174
0.111456
0.068662
0.0431703
0.0275951
0.0178536
0.0116273
0.0075666
0.00486242
0.00303844
0.00180398
0.00096518
0.000408902
9.46527e-005
8.45803e-006
5.90833e-007
2.19899e-007
2.04127e-007
2.03645e-007
2.03496e-007
2.02666e-007
2.02693e-007
2.02155e-007
2.01628e-007
2.01643e-007
2.00739e-007
2.00205e-007
1.99822e-007
1.99822e-007
0.176081
0.106321
0.0657162
0.0414642
0.0266044
0.0172821
0.0113049
0.00739512
0.00479035
0.00302332
0.00181338
0.000987927
0.000434684
0.000110024
1.13277e-005
8.80963e-007
3.22122e-007
2.95801e-007
2.94231e-007
2.93997e-007
2.94018e-007
2.93696e-007
2.92957e-007
2.92505e-007
2.91694e-007
2.91236e-007
2.91235e-007
2.90695e-007
2.90348e-007
0.166836
0.10107
0.0626842
0.0396962
0.0255698
0.0166796
0.01096
0.00720464
0.00469316
0.0029866
0.00181103
0.00100182
0.000454656
0.000124338
1.45611e-005
1.22069e-006
4.07816e-007
3.64963e-007
3.63048e-007
3.62749e-007
3.62324e-007
3.61602e-007
3.60944e-007
3.61004e-007
3.60626e-007
3.60095e-007
3.59619e-007
3.58489e-007
3.58518e-007
0.157443
0.0957202
0.0595876
0.0378865
0.0245089
0.0160608
0.0106052
0.00700855
0.00459268
0.00294337
0.00180348
0.00101231
0.000472731
0.000138278
1.81993e-005
1.64275e-006
4.84046e-007
4.16772e-007
4.11274e-007
4.11434e-007
4.11041e-007
4.09907e-007
4.10741e-007
4.09989e-007
4.08597e-007
4.08953e-007
4.08127e-007
4.08177e-007
4.08307e-007
0.147894
0.0902722
0.0564294
0.0360385
0.0234246
0.0154282
0.0102427
0.00680866
0.00449063
0.00289973
0.00179385
0.00102151
0.000489554
0.000152428
2.26209e-005
2.20913e-006
5.63866e-007
4.50332e-007
4.45312e-007
4.44821e-007
4.43595e-007
4.4487e-007
4.43487e-007
4.42058e-007
4.43474e-007
4.42433e-007
4.41933e-007
4.41846e-007
4.4098e-007
0.138242
0.0847542
0.0532247
0.0341605
0.0223216
0.0147849
0.00987489
0.00660689
0.0043889
0.00285759
0.00178623
0.00103244
0.000508268
0.000169197
2.82072e-005
2.97615e-006
6.5111e-007
4.81754e-007
4.68326e-007
4.6611e-007
4.67074e-007
4.65769e-007
4.65653e-007
4.66511e-007
4.64728e-007
4.64565e-007
4.64956e-007
4.64303e-007
4.63768e-007
0.12852
0.0791852
0.049985
0.0322595
0.0212046
0.0141338
0.00950373
0.00640482
0.00428878
0.00281817
0.00178185
0.0010471
0.00053117
0.000188761
3.53413e-005
4.12112e-006
7.95329e-007
5.06524e-007
4.83093e-007
4.8249e-007
4.81549e-007
4.81569e-007
4.80415e-007
4.79925e-007
4.81063e-007
4.80129e-007
4.79386e-007
4.79142e-007
4.78794e-007
0.118774
0.0735865
0.0467187
0.0303374
0.020072
0.013472
0.00912577
0.00619904
0.00418737
0.00277924
0.00177901
0.00106378
0.000554849
0.000209709
4.39766e-005
5.69128e-006
9.8992e-007
5.37557e-007
4.95647e-007
4.91169e-007
4.91637e-007
4.90856e-007
4.92054e-007
4.9204e-007
4.89503e-007
4.90036e-007
4.89444e-007
4.89376e-007
4.90379e-007
0.109097
0.0680048
0.0434494
0.0284059
0.0189294
0.0128021
0.00874228
0.00599022
0.00408502
0.00274105
0.00177824
0.00108291
0.000582517
0.000235626
5.58556e-005
8.10775e-006
1.31726e-006
5.79714e-007
5.06317e-007
5.01076e-007
4.99214e-007
4.9909e-007
4.97105e-007
4.96682e-007
4.98571e-007
4.97786e-007
4.97872e-007
4.97541e-007
4.9518e-007
0.0995517
0.0624751
0.0401967
0.0264757
0.0177828
0.0121273
0.00835496
0.00577938
0.00398253
0.00270442
0.00178037
0.00110613
0.000614227
0.000265369
7.08563e-005
1.16805e-005
1.88503e-006
6.62095e-007
5.2226e-007
5.05748e-007
5.04632e-007
5.04691e-007
5.06121e-007
5.0491e-007
5.02373e-007
5.0322e-007
5.02625e-007
5.02761e-007
5.03611e-007
0.0902129
0.0570353
0.0369786
0.0245544
0.016634
0.0114464
0.00796116
0.00556305
0.00387604
0.0026653
0.00178157
0.00112911
0.000647029
0.000297865
8.88631e-005
1.64345e-005
2.68547e-006
7.84626e-007
5.42953e-007
5.14732e-007
5.10792e-007
5.09465e-007
5.08983e-007
5.09409e-007
5.1005e-007
5.08342e-007
5.0854e-007
5.06691e-007
5.06456e-007
0.0811664
0.0517317
0.0338202
0.0226552
0.0154896
0.0107625
0.00756203
0.00534162
0.00376579
0.00262412
0.00178197
0.00115351
0.000682223
0.000333817
0.000111593
2.38126e-005
4.20159e-006
1.03474e-006
5.84185e-007
5.23156e-007
5.16e-007
5.15865e-007
5.16819e-007
5.14301e-007
5.12881e-007
5.13856e-007
5.13661e-007
5.14219e-007
5.11987e-007
0.0724877
0.0466062
0.0307445
0.0207905
0.014356
0.0100785
0.00715853
0.005115
0.00365111
0.00257987
0.00178099
0.00117808
0.000719583
0.000373734
0.000139532
3.38182e-005
6.31974e-006
1.42361e-006
6.54362e-007
5.39636e-007
5.23449e-007
5.20097e-007
5.19694e-007
5.22288e-007
5.21138e-007
5.17709e-007
5.17048e-007
5.17678e-007
5.2007e-007
0.0642445
0.0416976
0.0277737
0.0189725
0.0132395
0.00939725
0.00675167
0.00488305
0.00353132
0.00253173
0.00177798
0.00120209
0.000757786
0.000416511
0.000172859
4.84055e-005
1.03222e-005
2.24269e-006
8.0404e-007
5.68966e-007
5.33647e-007
5.30427e-007
5.27373e-007
5.25508e-007
5.2539e-007
5.26623e-007
5.252e-007
5.2271e-007
5.2307e-007
0.0564948
0.0370403
0.0249276
0.0172125
0.0121461
0.0087214
0.00634186
0.00464494
0.00340488
0.00247799
0.00177123
0.00122376
0.000795572
0.000460457
0.000210402
6.66331e-005
1.53365e-005
3.38192e-006
1.05079e-006
6.23078e-007
5.47173e-007
5.35424e-007
5.34643e-007
5.36606e-007
5.33011e-007
5.30258e-007
5.31908e-007
5.3079e-007
5.30827e-007
0.0492866
0.0326643
0.022225
0.0155217
0.0110822
0.00805424
0.00593046
0.0044008
0.00327119
0.00241751
0.00175871
0.00124155
0.000831119
0.000504488
0.000251429
9.08542e-005
2.44318e-005
5.72873e-006
1.56298e-006
7.35296e-007
5.76075e-007
5.48014e-007
5.40891e-007
5.40301e-007
5.464e-007
5.42283e-007
5.37225e-007
5.3727e-007
5.36234e-007
0.0426541
0.0285932
0.0196816
0.0139104
0.0100542
0.00739956
0.00551943
0.00415136
0.00313017
0.00234958
0.00173988
0.00125502
0.000864596
0.000548204
0.000295333
0.000119934
3.53508e-005
8.85124e-006
2.36347e-006
9.28712e-007
6.25321e-007
5.6318e-007
5.58241e-007
5.49299e-007
5.49427e-007
5.54909e-007
5.51625e-007
5.44507e-007
5.45554e-007
0.0366163
0.0248431
0.0173095
0.0123874
0.00906806
0.00676112
0.00511089
0.00389755
0.00298191
0.00227391
0.00171424
0.00126318
0.000894694
0.000591484
0.000342749
0.000156891
5.38815e-005
1.49931e-005
4.03678e-006
1.34802e-006
7.28576e-007
5.92456e-007
5.67496e-007
5.69528e-007
5.61973e-007
5.59773e-007
5.64298e-007
5.60733e-007
5.53373e-007
0.0311782
0.0214227
0.0151172
0.0109594
0.00812891
0.00614235
0.00470681
0.00364012
0.0028262
0.00218948
0.00167973
0.00126232
0.000918624
0.000629933
0.000388165
0.000196234
7.53675e-005
2.30079e-005
6.39963e-006
2.00828e-006
9.154e-007
6.47824e-007
5.86438e-007
5.77451e-007
5.81976e-007
5.76086e-007
5.70938e-007
5.76341e-007
5.71324e-007
0.0263321
0.0183335
0.0131094
0.00963178
0.00724121
0.00554666
0.0043095
0.00338038
0.00266353
0.00209619
0.00163644
0.00125569
0.000935956
0.000664443
0.000431741
0.000239224
0.000104093
3.55916e-005
1.08062e-005
3.31685e-006
1.28537e-006
7.63512e-007
6.2398e-007
5.95238e-007
5.91161e-007
5.9569e-007
5.90232e-007
5.84911e-007
5.9006e-007
0.0220586
0.0155708
0.0112872
0.00840775
0.00640869
0.00497732
0.00392149
0.00312007
0.00249488
0.00199435
0.00158386
0.00124021
0.000946174
0.000692569
0.000472487
0.00028267
0.000137575
5.31239e-005
1.72727e-005
5.45855e-006
1.93731e-006
9.59964e-007
7.00218e-007
6.22763e-007
6.12444e-007
6.07282e-007
6.10831e-007
6.05687e-007
6.00512e-007
0.018329
0.0131239
0.00964848
0.00728878
0.00563405
0.00443722
0.00354527
0.00286106
0.00232145
0.00188447
0.00152176
0.00121387
0.000945593
0.000713278
0.00050673
0.000325103
0.000174883
7.57886e-005
2.74472e-005
8.93025e-006
3.08535e-006
1.33016e-006
8.23192e-007
6.80169e-007
6.35127e-007
6.31497e-007
6.25814e-007
6.28889e-007
6.25889e-007
0.0151069
0.0109774
0.00818782
0.0062744
0.00491899
0.00392872
0.00318316
0.00260529
0.00214463
0.0017674
0.00145059
0.00117825
0.00093872
0.000726178
0.000535576
0.000362766
0.000213841
0.000103539
4.18066e-005
1.5157e-005
5.25941e-006
2.0708e-006
1.06679e-006
7.69461e-007
6.82183e-007
6.56219e-007
6.57196e-007
6.50086e-007
6.4882e-007
0.0123508
0.00911181
0.00689727
0.00536244
0.00426413
0.00345363
0.0028373
0.00235472
0.00196599
0.00164419
0.00137082
0.00113302
0.000922088
0.000728666
0.000555188
0.000396282
0.000251411
0.000134997
6.01879e-005
2.34708e-005
8.71493e-006
3.29997e-006
1.54796e-006
9.43433e-007
7.54105e-007
6.96371e-007
6.82445e-007
6.8938e-007
6.80342e-007
0.0100161
0.00750513
0.00576678
0.00454923
0.00366911
0.0030132
0.00250954
0.00211129
0.00178726
0.00151618
0.00128332
0.00107835
0.000894027
0.000723412
0.000566582
0.000419956
0.000285521
0.000167782
8.33196e-005
3.56331e-005
1.3961e-005
5.40915e-006
2.29407e-006
1.28976e-006
8.9326e-007
7.65353e-007
7.20963e-007
7.12497e-007
7.23594e-007
0.00805682
0.00613362
0.00478474
0.00382987
0.00313266
0.00260805
0.00220143
0.00187688
0.00161025
0.00138494
0.00118932
0.00101515
0.000856586
0.000709406
0.000567313
0.00043629
0.000310817
0.000199285
0.000108972
5.15936e-005
2.20017e-005
8.95655e-006
3.69258e-006
1.79271e-006
1.17283e-006
8.86982e-007
7.99934e-007
7.56574e-007
7.50945e-007
0.00642754
0.00497281
0.00393852
0.00319844
0.00265271
0.00223826
0.00191415
0.00165317
0.00143681
0.00125223
0.00109031
0.000944531
0.000810212
0.000684066
0.000561482
0.000443445
0.000331458
0.000224209
0.000135689
7.03518e-005
3.28209e-005
1.43456e-005
6.20553e-006
2.78522e-006
1.54093e-006
1.12736e-006
9.1395e-007
8.48496e-007
8.03073e-007
0.00508445
0.00399831
0.00321496
0.00264836
0.00222653
0.00190336
0.00164853
0.00144166
0.00126871
0.00111983
0.00098795
0.000867925
0.000756006
0.000649588
0.000546621
0.00044143
0.000342188
0.000246254
0.000157808
9.15365e-005
4.60333e-005
2.17064e-005
9.81774e-006
4.5405e-006
2.29964e-006
1.42365e-006
1.13887e-006
9.68394e-007
9.03969e-007
0.00398646
0.00318656
0.00260085
0.00217264
0.0018509
0.00160241
0.001405
0.00124356
0.00110758
0.000989545
0.000884012
0.00078695
0.000695367
0.00060708
0.000520658
0.000432882
0.000342993
0.000258622
0.000178944
0.000110015
6.27957e-005
3.14357e-005
1.53727e-005
7.16919e-006
3.56271e-006
2.02738e-006
1.38093e-006
1.20388e-006
1.03746e-006
0.00309588
0.00251534
0.00208333
0.00176414
0.00152226
0.0013341
0.00118366
0.00105987
0.000954898
0.000863099
0.000780298
0.000703358
0.000629897
0.000558111
0.000486749
0.000415106
0.000338628
0.00026253
0.000191949
0.000128514
7.75277e-005
4.44483e-005
2.27858e-005
1.17233e-005
5.67361e-006
3.03142e-006
1.86698e-006
1.40184e-006
1.29309e-006
0.00237893
0.00196422
0.0016502
0.00141582
0.00123686
0.00109683
0.00098431
0.000891276
0.000811957
0.000742123
0.000678605
0.00061898
0.000561366
0.00050429
0.000446725
0.000387945
0.00032706
0.000260333
0.000198012
0.000140941
9.30729e-005
5.58998e-005
3.29049e-005
1.74336e-005
9.58373e-006
4.93118e-006
2.82606e-006
1.84654e-006
1.48737e-006
0.00180584
0.00151478
0.00129015
0.00112093
0.00099093
0.000888799
0.000806498
0.000738247
0.000679823
0.000628082
0.000580644
0.000535642
0.000491584
0.000447417
0.000402053
0.00035508
0.000306102
0.000253195
0.000197232
0.000148325
0.000104059
6.9391e-005
4.20428e-005
2.58311e-005
1.41249e-005
8.24317e-006
4.52089e-006
2.74735e-006
1.91665e-006
0.00135096
0.00115074
0.000992938
0.000873134
0.000780754
0.000708092
0.000649544
0.000600974
0.000559303
0.000522213
0.000487944
0.000455057
0.000422336
0.000389168
0.000354479
0.000317957
0.000279105
0.000238825
0.000193214
0.000149568
0.000111336
7.92016e-005
5.41026e-005
3.3531e-005
2.17719e-005
1.22534e-005
7.59206e-006
4.37667e-006
2.78019e-006
0.000992496
0.000858012
0.000749456
0.000666638
0.000602786
0.00055273
0.000512589
0.000479402
0.000450928
0.000425472
0.00040179
0.000378683
0.000355249
0.000331206
0.000305487
0.000278128
0.000247715
0.000217039
0.000183474
0.000147148
0.000114265
8.54479e-005
6.31579e-005
4.42452e-005
2.86688e-005
1.95065e-005
1.14287e-005
7.45932e-006
4.40993e-006
0.00071234
0.000624582
0.000551733
0.000496215
0.000453706
0.000420743
0.000394634
0.000373241
0.000354933
0.000338499
0.000323151
0.000307666
0.00029161
0.000274973
0.000256704
0.000236473
0.000214207
0.000190084
0.000166453
0.00013977
0.000112849
8.81738e-005
6.79142e-005
5.24242e-005
3.83904e-005
2.62326e-005
1.854e-005
1.1405e-005
7.48403e-006
0.000495652
0.000440341
0.000392902
0.000357254
0.000330481
0.000310221
0.000294574
0.000281984
0.000271266
0.000261602
0.000252616
0.000242768
0.000232465
0.000221395
0.000209294
0.000194535
0.000178795
0.00016096
0.00014304
0.000125244
0.000106744
8.69745e-005
6.96428e-005
5.54928e-005
4.54682e-005
3.51652e-005
2.58837e-005
1.89092e-005
1.19077e-005
0.000330418
0.000296882
0.000267156
0.00024579
0.000230408
0.000219354
0.000211236
0.000204944
0.0001996
0.000194806
0.000190315
0.000184443
0.000178379
0.000171345
0.000163524
0.000153713
0.000142106
0.000129794
0.000117167
0.000103543
9.25817e-005
8.05837e-005
6.795e-005
5.59655e-005
4.65756e-005
4.04577e-005
3.33584e-005
2.71908e-005
2.10123e-005
0.00020698
0.000187324
0.000169745
0.00015854
0.000151135
0.000146472
0.000143417
0.000141305
0.00013942
0.000137886
0.000136127
0.000132793
0.000129905
0.000125028
0.000120423
0.000113546
0.000105348
9.6332e-005
8.83398e-005
7.93212e-005
7.18568e-005
6.5905e-005
6.03883e-005
5.31329e-005
4.63749e-005
4.03771e-005
3.76963e-005
3.2121e-005
2.8232e-005
0.000117643
0.000106281
9.70197e-005
9.28946e-005
9.0666e-005
9.00647e-005
8.99653e-005
9.01846e-005
9.0246e-005
9.0355e-005
8.99046e-005
8.82502e-005
8.6987e-005
8.33887e-005
8.06497e-005
7.62532e-005
7.02029e-005
6.4594e-005
5.79683e-005
5.06689e-005
4.60615e-005
4.20469e-005
4.10996e-005
4.12769e-005
4.20558e-005
4.16962e-005
4.24348e-005
4.16685e-005
3.95963e-005
5.6544e-005
4.99892e-005
4.64975e-005
4.67794e-005
4.7345e-005
4.87852e-005
4.99164e-005
5.10179e-005
5.1775e-005
5.2356e-005
5.21102e-005
5.17239e-005
5.08813e-005
4.74116e-005
4.49729e-005
4.2288e-005
4.12586e-005
4.15712e-005
4.53809e-005
5.20405e-005
6.64957e-005
8.41693e-005
0.000116092
0.00016881
0.000221142
0.000317637
0.000377413
0.000458712
0.000432768
1.98608e-005
1.66813e-005
1.66316e-005
1.87048e-005
1.9871e-005
2.18721e-005
2.2746e-005
2.38e-005
2.44442e-005
2.47737e-005
2.47974e-005
2.62655e-005
3.00963e-005
3.63582e-005
5.09336e-005
7.26162e-005
0.00012209
0.000193535
0.000355907
0.000551078
0.000951567
0.00142133
0.00214446
0.0031735
0.00423158
0.00618063
0.00746041
0.0105335
0.0108161
4.65279e-006
3.91846e-006
4.46416e-006
6.08118e-006
6.56929e-006
7.84641e-006
9.14184e-006
1.10228e-005
1.42642e-005
2.13683e-005
3.72952e-005
6.39071e-005
0.000130283
0.000240965
0.000477048
0.000801969
0.00140235
0.00219341
0.00354215
0.00518504
0.00773456
0.010835
0.0152575
0.0210617
0.0282459
0.0393954
0.0501395
0.073576
0.0873222
1.33541e-006
1.32313e-006
1.63386e-006
2.48838e-006
4.67341e-006
8.10316e-006
1.96668e-005
3.42681e-005
6.96689e-005
0.000148091
0.000317701
0.000567653
0.00108871
0.00183992
0.0030608
0.00470785
0.00719333
0.0104926
0.0152711
0.0213085
0.0298335
0.0404544
0.0554936
0.0744372
0.101296
0.137107
0.186327
0.267251
0.350516
9.16702e-007
1.22274e-006
2.05943e-006
4.93086e-006
1.785e-005
4.15054e-005
0.000113827
0.00021002
0.000431142
0.000844939
0.00154964
0.00258518
0.00442438
0.00691378
0.0106154
0.0155539
0.0226281
0.0319263
0.0448109
0.0610485
0.0835866
0.111469
0.151648
0.200624
0.275903
0.367279
0.523858
0.718108
1.02089
0.00151969
0.00151969
0.00151969
0.00151969
0.00151969
0.00151969
0.00151969
0.00151969
0.00151969
0.00151969
0.00151969
0.00151969
0.00151969
0.00151969
0.00151969
0.00151969
0.00151969
0.00151969
0.00151969
0.00151969
0.00151969
0.00151969
0.00151969
0.00151969
0.00151969
0.00151969
0.00151969
0.0015197
0.0015197
0.0015197
0.0015197
0.0015197
0.0015197
0.0015197
0.0015197
0.0015197
0.0015197
0.0015197
0.0015197
0.0015197
0.0015197
0.0015197
0.0015197
0.0015197
0.0015197
0.0015197
0.0015197
0.0015197
0.0015197
0.0015197
0.0015197
0.0015197
0.0015197
0.0015197
0.0015197
0.0015197
0.0015197
0.0015197
0.0015197
0.0015197
0.0015197
0.0015197
0.0015197
0.0015197
0.0015197
0.0015197
0.0015197
0.0015197
0.0015197
0.0015197
0.0015197
0.00151971
0.00151971
0.00151971
0.00151971
0.00151971
0.00151971
0.00151971
0.00151971
0.00151971
0.00151971
0.00151971
0.00151971
0.00151971
0.00151971
0.00151971
0.00151971
0.00151971
0.00151971
0.00151971
0.00151971
0.00151971
0.00151971
0.00151971
0.00151971
0.00151971
0.00151971
0.00151971
0.00151971
0.00151971
0.00151971
0.00151971
0.00151971
0.00151971
0.00151971
0.00151971
0.00151971
0.00151971
0.00151971
0.00151971
0.00151971
0.00151971
0.00151971
0.00151971
0.00151971
0.00151971
0.00151971
0.00151971
0.00151971
0.00151971
0.00151971
0.00151971
0.00151971
0.00151971
0.00151971
0.00151971
0.00151971
0.00151971
0.00151971
0.00151971
0.00151971
0.00151971
0.00151971
0.00151971
0.00151971
0.00151972
0.00151972
0.00151973
0.00154202
3.28174e-005
3.28177e-005
3.2818e-005
3.28181e-005
3.28182e-005
3.28183e-005
3.28184e-005
3.28184e-005
3.28184e-005
3.28185e-005
3.28186e-005
3.28186e-005
3.28187e-005
3.28189e-005
3.2819e-005
3.28192e-005
3.28194e-005
3.28195e-005
3.28197e-005
3.282e-005
3.28202e-005
3.28205e-005
3.28207e-005
3.28211e-005
3.28214e-005
3.28217e-005
3.28221e-005
3.28225e-005
3.28229e-005
3.28233e-005
3.28237e-005
3.28242e-005
3.28246e-005
3.28251e-005
3.28256e-005
3.2826e-005
3.28264e-005
3.28269e-005
3.28272e-005
3.28276e-005
3.2828e-005
3.28283e-005
3.28286e-005
3.28289e-005
3.28292e-005
3.28295e-005
3.28298e-005
3.283e-005
3.28302e-005
3.28304e-005
3.28307e-005
3.28309e-005
3.28311e-005
3.28312e-005
3.28314e-005
3.28316e-005
3.28318e-005
3.2832e-005
3.28322e-005
3.28325e-005
3.28327e-005
3.2833e-005
3.28333e-005
3.28335e-005
3.28338e-005
3.2834e-005
3.28342e-005
3.28344e-005
3.28346e-005
3.28348e-005
3.2835e-005
3.28352e-005
3.28354e-005
3.28356e-005
3.28357e-005
3.28359e-005
3.28361e-005
3.28362e-005
3.28364e-005
3.28365e-005
3.28366e-005
3.28367e-005
3.28368e-005
3.28369e-005
3.2837e-005
3.2837e-005
3.28371e-005
3.28371e-005
3.28371e-005
3.28371e-005
3.28372e-005
3.28372e-005
3.28373e-005
3.28375e-005
3.28376e-005
3.28378e-005
3.2838e-005
3.28382e-005
3.28384e-005
3.28386e-005
3.28389e-005
3.28391e-005
3.28393e-005
3.28395e-005
3.28397e-005
3.284e-005
3.28402e-005
3.28404e-005
3.28406e-005
3.28407e-005
3.28408e-005
3.28407e-005
3.28404e-005
3.28399e-005
3.28394e-005
3.28388e-005
3.28382e-005
3.28378e-005
3.28376e-005
3.28377e-005
3.28379e-005
3.2838e-005
3.28381e-005
3.28382e-005
3.2838e-005
3.28383e-005
3.28377e-005
3.28383e-005
3.28387e-005
3.2838e-005
3.28408e-005
3.28396e-005
3.2842e-005
3.2845e-005
3.2843e-005
3.28474e-005
3.28609e-005
3.2803e-005
3.37396e-005
1.42078e-006
1.42086e-006
1.42092e-006
1.42096e-006
1.42101e-006
1.42105e-006
1.42108e-006
1.42112e-006
1.42115e-006
1.42118e-006
1.42121e-006
1.42124e-006
1.42127e-006
1.42131e-006
1.42134e-006
1.42137e-006
1.4214e-006
1.42144e-006
1.42147e-006
1.42151e-006
1.42155e-006
1.42159e-006
1.42163e-006
1.42168e-006
1.42172e-006
1.42177e-006
1.42182e-006
1.42187e-006
1.42192e-006
1.42197e-006
1.42202e-006
1.42208e-006
1.42213e-006
1.42219e-006
1.42225e-006
1.42231e-006
1.42238e-006
1.42244e-006
1.42251e-006
1.42257e-006
1.42263e-006
1.4227e-006
1.42276e-006
1.42282e-006
1.42288e-006
1.42295e-006
1.42301e-006
1.42307e-006
1.42313e-006
1.42319e-006
1.42325e-006
1.42331e-006
1.42337e-006
1.42343e-006
1.42349e-006
1.42355e-006
1.42361e-006
1.42367e-006
1.42373e-006
1.42379e-006
1.42385e-006
1.4239e-006
1.42396e-006
1.42402e-006
1.42407e-006
1.42413e-006
1.42418e-006
1.42423e-006
1.42428e-006
1.42433e-006
1.42438e-006
1.42442e-006
1.42447e-006
1.42452e-006
1.42456e-006
1.4246e-006
1.42464e-006
1.42469e-006
1.42473e-006
1.42476e-006
1.4248e-006
1.42484e-006
1.42488e-006
1.42491e-006
1.42495e-006
1.42498e-006
1.42502e-006
1.42505e-006
1.42507e-006
1.42509e-006
1.4251e-006
1.42511e-006
1.42512e-006
1.42513e-006
1.42514e-006
1.42515e-006
1.42515e-006
1.42516e-006
1.42517e-006
1.42517e-006
1.42518e-006
1.42518e-006
1.42518e-006
1.42517e-006
1.42517e-006
1.42516e-006
1.42515e-006
1.42513e-006
1.42511e-006
1.42509e-006
1.42507e-006
1.42504e-006
1.42498e-006
1.42491e-006
1.42484e-006
1.42477e-006
1.4247e-006
1.42463e-006
1.42458e-006
1.42454e-006
1.42451e-006
1.42448e-006
1.42444e-006
1.4244e-006
1.42434e-006
1.42425e-006
1.42424e-006
1.42408e-006
1.42414e-006
1.42402e-006
1.42411e-006
1.42412e-006
1.4239e-006
1.42443e-006
1.42593e-006
1.42566e-006
1.33386e-006
1.63932e-006
7.46764e-005
1.20056e-007
1.20069e-007
1.2008e-007
1.2009e-007
1.201e-007
1.20109e-007
1.20119e-007
1.20127e-007
1.20136e-007
1.20145e-007
1.20154e-007
1.20163e-007
1.20172e-007
1.20181e-007
1.2019e-007
1.20199e-007
1.20209e-007
1.20219e-007
1.20228e-007
1.20238e-007
1.20248e-007
1.20259e-007
1.20269e-007
1.2028e-007
1.2029e-007
1.20301e-007
1.20312e-007
1.20323e-007
1.20334e-007
1.20346e-007
1.20357e-007
1.20369e-007
1.2038e-007
1.20392e-007
1.20404e-007
1.20417e-007
1.20429e-007
1.20442e-007
1.20454e-007
1.20467e-007
1.20479e-007
1.20492e-007
1.20504e-007
1.20517e-007
1.20529e-007
1.20542e-007
1.20554e-007
1.20567e-007
1.20579e-007
1.20592e-007
1.20604e-007
1.20616e-007
1.20629e-007
1.20641e-007
1.20653e-007
1.20665e-007
1.20678e-007
1.2069e-007
1.20702e-007
1.20714e-007
1.20725e-007
1.20736e-007
1.20747e-007
1.20758e-007
1.20769e-007
1.20779e-007
1.2079e-007
1.208e-007
1.20809e-007
1.20819e-007
1.20829e-007
1.20838e-007
1.20847e-007
1.20856e-007
1.20865e-007
1.20873e-007
1.20882e-007
1.2089e-007
1.20898e-007
1.20905e-007
1.20913e-007
1.2092e-007
1.20927e-007
1.20934e-007
1.20941e-007
1.20947e-007
1.20953e-007
1.20959e-007
1.20964e-007
1.20968e-007
1.20972e-007
1.20975e-007
1.20977e-007
1.2098e-007
1.20981e-007
1.20983e-007
1.20984e-007
1.20984e-007
1.20984e-007
1.20984e-007
1.20983e-007
1.20981e-007
1.20979e-007
1.20977e-007
1.20974e-007
1.20971e-007
1.20967e-007
1.20963e-007
1.20958e-007
1.20953e-007
1.20947e-007
1.20941e-007
1.20934e-007
1.20926e-007
1.20916e-007
1.20906e-007
1.20895e-007
1.20883e-007
1.20872e-007
1.20861e-007
1.2085e-007
1.20838e-007
1.20825e-007
1.20809e-007
1.20793e-007
1.20771e-007
1.20754e-007
1.20733e-007
1.20702e-007
1.20709e-007
1.20696e-007
1.20618e-007
1.20902e-007
1.21364e-007
1.15029e-007
1.1203e-007
6.15556e-007
7.76066e-005
0.00501733
1.86635e-008
1.86665e-008
1.86696e-008
1.86725e-008
1.86754e-008
1.86783e-008
1.86811e-008
1.86839e-008
1.86868e-008
1.86896e-008
1.86924e-008
1.86953e-008
1.86982e-008
1.87012e-008
1.87042e-008
1.87073e-008
1.87103e-008
1.87135e-008
1.87166e-008
1.87199e-008
1.87231e-008
1.87265e-008
1.87298e-008
1.87332e-008
1.87367e-008
1.87402e-008
1.87437e-008
1.87473e-008
1.87509e-008
1.87545e-008
1.87582e-008
1.87618e-008
1.87655e-008
1.87692e-008
1.87729e-008
1.87767e-008
1.87804e-008
1.87842e-008
1.87879e-008
1.87917e-008
1.87955e-008
1.87992e-008
1.8803e-008
1.88067e-008
1.88104e-008
1.88141e-008
1.88178e-008
1.88215e-008
1.88252e-008
1.88288e-008
1.88325e-008
1.88361e-008
1.88396e-008
1.88432e-008
1.88467e-008
1.88502e-008
1.88536e-008
1.8857e-008
1.88604e-008
1.88637e-008
1.88669e-008
1.887e-008
1.88731e-008
1.88762e-008
1.88792e-008
1.88822e-008
1.88852e-008
1.8888e-008
1.88908e-008
1.88936e-008
1.88963e-008
1.8899e-008
1.89016e-008
1.89041e-008
1.89066e-008
1.8909e-008
1.89113e-008
1.89136e-008
1.89158e-008
1.89179e-008
1.892e-008
1.8922e-008
1.89239e-008
1.89257e-008
1.89275e-008
1.89292e-008
1.89308e-008
1.89323e-008
1.89338e-008
1.89352e-008
1.89365e-008
1.89377e-008
1.89388e-008
1.89398e-008
1.89406e-008
1.89413e-008
1.89419e-008
1.89424e-008
1.89427e-008
1.89429e-008
1.89429e-008
1.89428e-008
1.89426e-008
1.89423e-008
1.89418e-008
1.89412e-008
1.89405e-008
1.89396e-008
1.89386e-008
1.89374e-008
1.8936e-008
1.89347e-008
1.89333e-008
1.89317e-008
1.893e-008
1.8928e-008
1.89257e-008
1.89233e-008
1.89207e-008
1.89178e-008
1.89147e-008
1.89111e-008
1.89072e-008
1.89025e-008
1.88972e-008
1.8892e-008
1.88839e-008
1.88799e-008
1.88718e-008
1.88644e-008
1.88841e-008