/*--------------------------------*- C++ -*----------------------------------*\
| =========                 |                                                 |
| \\      /  F ield         | OpenFOAM: The Open Source CFD Toolbox           |
|  \\    /   O peration     | Version:  5.x                                   |
|   \\  /    A nd           | Web:      www.OpenFOAM.org                      |
|    \\/     M anipulation  |                                                 |
\*---------------------------------------------------------------------------*/
/*   Windows 32 and 64 bit porting by blueCAPE: http://www.bluecape.com.pt   *\
|  Based on Windows porting (2.0.x v4) by Symscape: http://www.symscape.com   |
\*---------------------------------------------------------------------------*/
FoamFile
{
    version     2.0;
    format      ascii;
    class       volScalarField;
    location    "150";
    object      k;
}
// * * * * * * * * * * * * * * * * * * * * * * * * * * * * * * * * * * * * * //

dimensions      [0 2 -2 0 0 0 0];

internalField   nonuniform List<scalar> 
43900
(
0.000985334
0.000989521
0.000990247
0.000990186
0.00099013
0.000990123
0.000990123
0.000990131
0.000990122
0.000990129
0.000990129
0.000990131
0.000990132
0.000990133
0.000990133
0.000990134
0.000990135
0.000990135
0.000990136
0.000990136
0.000990137
0.000990138
0.000990138
0.000990138
0.000990139
0.000990139
0.00099014
0.00099014
0.00099014
0.00154586
5.4183e-005
3.89022e-005
3.814e-005
4.08645e-005
4.09795e-005
4.09811e-005
4.09695e-005
4.09583e-005
4.09694e-005
4.09709e-005
4.09733e-005
4.09752e-005
4.09767e-005
4.09779e-005
4.09791e-005
4.09802e-005
4.09811e-005
4.09823e-005
4.09835e-005
4.09845e-005
4.09854e-005
4.09863e-005
4.0987e-005
4.09877e-005
4.09883e-005
4.09888e-005
4.09893e-005
4.09896e-005
0.28802
0.0513375
0.00362117
9.67448e-005
4.4588e-006
3.07321e-006
3.09451e-006
3.36641e-006
3.38509e-006
3.37435e-006
3.37253e-006
3.374e-006
3.37493e-006
3.37561e-006
3.37624e-006
3.37682e-006
3.37735e-006
3.37784e-006
3.3783e-006
3.37872e-006
3.37908e-006
3.37938e-006
3.37964e-006
3.37986e-006
3.38007e-006
3.38026e-006
3.38043e-006
3.38058e-006
3.38066e-006
0.87179
0.369398
0.114986
0.021444
0.00161139
5.21512e-005
2.44664e-006
5.1505e-007
4.44483e-007
5.23238e-007
5.38598e-007
5.33012e-007
5.31301e-007
5.3154e-007
5.31759e-007
5.31926e-007
5.32076e-007
5.32213e-007
5.32334e-007
5.32441e-007
5.32533e-007
5.32613e-007
5.32684e-007
5.32748e-007
5.32808e-007
5.32865e-007
5.32915e-007
5.32962e-007
5.33e-007
1.27261
0.72227
0.379708
0.163952
0.0486245
0.00754099
0.000447984
1.57087e-005
7.56933e-007
1.52754e-007
1.18665e-007
1.42211e-007
1.48698e-007
1.47884e-007
1.47686e-007
1.47712e-007
1.47753e-007
1.47788e-007
1.47821e-007
1.47851e-007
1.47879e-007
1.47904e-007
1.4793e-007
1.47953e-007
1.47976e-007
1.47997e-007
1.48018e-007
1.48038e-007
1.48059e-007
1.53193
0.967265
0.600207
0.354401
0.184279
0.0706131
0.01636
0.00160456
7.06119e-005
2.65089e-006
1.76149e-007
5.80468e-008
4.97855e-008
5.53264e-008
5.63655e-008
5.64336e-008
5.64529e-008
5.64692e-008
5.64838e-008
5.64961e-008
5.65028e-008
5.65121e-008
5.652e-008
5.65305e-008
5.65391e-008
5.6539e-008
5.65548e-008
5.65674e-008
5.65774e-008
1.68957
1.12602
0.749541
0.491335
0.309538
0.178932
0.0829768
0.0243959
0.00346341
0.00019913
8.06083e-006
3.46138e-007
5.06256e-008
3.05009e-008
2.91955e-008
2.92638e-008
2.92713e-008
2.92742e-008
2.92782e-008
2.92839e-008
2.9292e-008
2.92979e-008
2.93042e-008
2.93091e-008
2.93153e-008
2.93276e-008
2.93319e-008
2.93341e-008
2.9337e-008
1.78465
1.22901
0.850914
0.587496
0.399486
0.262149
0.159652
0.0822518
0.0275843
0.00472464
0.000320557
1.35304e-005
5.54612e-007
4.70528e-008
2.77763e-008
2.67679e-008
2.67299e-008
2.673e-008
2.67302e-008
2.67318e-008
2.6738e-008
2.67443e-008
2.67539e-008
2.67578e-008
2.67657e-008
2.67893e-008
2.6785e-008
2.6785e-008
2.67856e-008
1.86489
1.31689
0.937577
0.669337
0.475457
0.332299
0.224405
0.14163
0.0775696
0.0288714
0.00537484
0.000372531
1.47782e-005
5.6312e-007
4.78219e-008
2.98648e-008
2.92682e-008
2.92567e-008
2.92568e-008
2.92573e-008
2.92604e-008
2.92686e-008
2.92898e-008
2.92939e-008
2.93024e-008
2.9329e-008
2.93065e-008
2.93065e-008
2.93068e-008
1.87096
1.33869
0.968361
0.705142
0.513947
0.372083
0.264617
0.181625
0.116534
0.0650773
0.0245857
0.0041994
0.000255833
9.47721e-006
3.69663e-007
5.78462e-008
4.75159e-008
4.72134e-008
4.7213e-008
4.72131e-008
4.72149e-008
4.72299e-008
4.73355e-008
4.73234e-008
4.73242e-008
4.73502e-008
4.72109e-008
4.72107e-008
4.7211e-008
1.86493
1.34667
0.983993
0.725038
0.536291
0.39592
0.289439
0.207103
0.14232
0.090665
0.0492905
0.01666
0.00215402
0.000101222
3.57457e-006
2.38954e-007
1.29847e-007
1.26542e-007
1.26499e-007
1.26501e-007
1.265e-007
1.26516e-007
1.26857e-007
1.26542e-007
1.26543e-007
1.26559e-007
1.2602e-007
1.2602e-007
1.26021e-007
1.84611
1.34225
0.987297
0.73299
0.54719
0.408744
0.303593
0.222236
0.158178
0.106975
0.0656607
0.0324874
0.00807306
0.000635408
2.33932e-005
1.14791e-006
4.3201e-007
4.1011e-007
4.09738e-007
4.09696e-007
4.09698e-007
4.09626e-007
4.10347e-007
4.08602e-007
4.07419e-007
4.07063e-007
4.06374e-007
4.06376e-007
4.06253e-007
1.8157
1.32727
0.98172
0.732483
0.549844
0.413695
0.310228
0.230112
0.166985
0.116471
0.0755944
0.0424913
0.0162338
0.0022446
0.000101527
4.55427e-006
1.40863e-006
1.31066e-006
1.30854e-006
1.30854e-006
1.30869e-006
1.30774e-006
1.30898e-006
1.3025e-006
1.29429e-006
1.29298e-006
1.29296e-006
1.29169e-006
1.29171e-006
1.77675
1.30324
0.96797
0.725979
0.547544
0.413723
0.311985
0.233285
0.17124
0.121536
0.0812321
0.0483951
0.0218491
0.00454401
0.000290069
1.39827e-005
4.3419e-006
4.02057e-006
4.01177e-006
4.01181e-006
4.00686e-006
4.00686e-006
4.00868e-006
3.98758e-006
3.9508e-006
3.94867e-006
3.94866e-006
3.94426e-006
3.94434e-006
1.73173
1.2735
0.948352
0.713427
0.540511
0.410635
0.311089
0.233703
0.172774
0.123965
0.0843106
0.0518735
0.0254729
0.00655645
0.000566489
3.55914e-005
1.30917e-005
1.22526e-005
1.22234e-005
1.22324e-005
1.22072e-005
1.22048e-005
1.22263e-005
1.21539e-005
1.20032e-005
1.19929e-005
1.19929e-005
1.19675e-005
1.19696e-005
1.68273
1.24019
0.925667
0.698047
0.530213
0.404185
0.307791
0.232541
0.172766
0.124851
0.0858712
0.0538654
0.027698
0.00805834
0.000844043
6.70694e-005
2.91944e-005
2.75536e-005
2.7516e-005
2.74821e-005
2.74133e-005
2.74336e-005
2.74045e-005
2.72932e-005
2.71514e-005
2.71121e-005
2.71121e-005
2.70489e-005
2.69786e-005
1.6308
1.20444
0.900939
0.680975
0.518524
0.396325
0.302729
0.229759
0.17179
0.12484
0.0866096
0.055117
0.0292353
0.00926082
0.00112421
0.000100279
4.32839e-005
4.05384e-005
4.03679e-005
4.03382e-005
4.03533e-005
4.03484e-005
4.02642e-005
4.01396e-005
3.99854e-005
3.99851e-005
4.00032e-005
3.9949e-005
3.98107e-005
1.57649
1.16683
0.874759
0.662762
0.505935
0.387751
0.297051
0.226182
0.169832
0.124283
0.0868344
0.0559228
0.0304154
0.0103496
0.00143213
0.00013738
5.47621e-005
5.03242e-005
5.01016e-005
5.00569e-005
5.00357e-005
4.9973e-005
4.98794e-005
4.98398e-005
4.9765e-005
4.97279e-005
4.97043e-005
4.95476e-005
4.95059e-005
1.52001
1.12764
0.847431
0.643718
0.49275
0.378755
0.291077
0.222407
0.167669
0.123305
0.086806
0.0565369
0.0314487
0.0113743
0.0017689
0.000181334
6.44312e-005
5.75541e-005
5.69639e-005
5.6964e-005
5.69358e-005
5.68281e-005
5.69006e-005
5.68e-005
5.66258e-005
5.66589e-005
5.65789e-005
5.65582e-005
5.65421e-005
1.46132
1.0869
0.819013
0.623916
0.479046
0.369413
0.284882
0.218501
0.165436
0.122299
0.0867102
0.0570832
0.0324064
0.0123968
0.00216934
0.000238338
7.37879e-005
6.22609e-005
6.17286e-005
6.1683e-005
6.15758e-005
6.1698e-005
6.15485e-005
6.13742e-005
6.14957e-005
6.13918e-005
6.13415e-005
6.13143e-005
6.12052e-005
1.40063
1.04474
0.789603
0.603428
0.464883
0.359781
0.278525
0.214526
0.163204
0.121345
0.0866862
0.0577203
0.0334683
0.0135784
0.00266352
0.000313539
8.32979e-005
6.63056e-005
6.49447e-005
6.47123e-005
6.48097e-005
6.46848e-005
6.46694e-005
6.474e-005
6.45447e-005
6.45146e-005
6.45508e-005
6.44849e-005
6.44169e-005
1.33799
1.00123
0.75925
0.582301
0.450304
0.3499
0.272044
0.210523
0.161013
0.12048
0.0867868
0.058517
0.034724
0.0149186
0.00328116
0.000423447
9.80796e-005
6.93452e-005
6.6981e-005
6.69246e-005
6.68313e-005
6.68304e-005
6.6711e-005
6.66421e-005
6.6752e-005
6.66624e-005
6.65745e-005
6.65389e-005
6.6494e-005
1.27352
0.956396
0.727953
0.560502
0.435256
0.339704
0.265367
0.206416
0.158793
0.119648
0.0869792
0.0593992
0.0360176
0.0163326
0.00401365
0.000571608
0.000117179
7.2777e-005
6.8607e-005
6.81338e-005
6.81853e-005
6.81133e-005
6.82424e-005
6.82375e-005
6.79639e-005
6.8007e-005
6.79441e-005
6.79311e-005
6.80298e-005
1.2076
0.910469
0.695835
0.538098
0.419775
0.329211
0.258504
0.202214
0.156551
0.118848
0.0872301
0.0603954
0.0375135
0.01804
0.0050001
0.000797006
0.000148976
7.7012e-005
6.98661e-005
6.93752e-005
6.91732e-005
6.9149e-005
6.89297e-005
6.88826e-005
6.90904e-005
6.90159e-005
6.90165e-005
6.89827e-005
6.87372e-005
1.14047
0.863605
0.663
0.515152
0.403896
0.318444
0.251471
0.197932
0.154307
0.118116
0.0876115
0.0615716
0.0392016
0.0199505
0.00621089
0.00112247
0.000202765
8.51625e-005
7.15752e-005
6.99269e-005
6.98238e-005
6.98363e-005
6.99841e-005
6.98684e-005
6.95679e-005
6.96642e-005
6.96156e-005
6.96313e-005
6.9727e-005
1.07247
0.815988
0.629532
0.491686
0.3876
0.30735
0.244193
0.193476
0.151948
0.117318
0.0879648
0.0627548
0.0409461
0.0219942
0.00763297
0.00155185
0.000277867
9.68293e-005
7.36301e-005
7.09344e-005
7.05397e-005
7.03941e-005
7.03247e-005
7.03845e-005
7.04589e-005
7.02783e-005
7.02902e-005
7.01166e-005
7.00775e-005
1.00405
0.767893
0.595595
0.467789
0.370927
0.295943
0.236668
0.188841
0.149479
0.116477
0.0883406
0.06402
0.0428133
0.0242123
0.00937818
0.00220332
0.000419225
0.000120579
7.76439e-005
7.17795e-005
7.1097e-005
7.10803e-005
7.11734e-005
7.09226e-005
7.07693e-005
7.08696e-005
7.08551e-005
7.09134e-005
7.07019e-005
0.935653
0.719598
0.561354
0.443552
0.353921
0.284235
0.228889
0.184006
0.146868
0.11555
0.0886894
0.0653194
0.0447898
0.0266246
0.0114673
0.00307496
0.000613978
0.000156949
8.42629e-005
7.34049e-005
7.18485e-005
7.15201e-005
7.14762e-005
7.17316e-005
7.16237e-005
7.12806e-005
7.12109e-005
7.12794e-005
7.15221e-005
0.867738
0.671391
0.526986
0.419077
0.33663
0.272238
0.220845
0.178946
0.144082
0.114507
0.0889834
0.0666206
0.0468158
0.0291539
0.0138669
0.00430664
0.000977599
0.000233149
9.83934e-005
7.62301e-005
7.28725e-005
7.25655e-005
7.22656e-005
7.20672e-005
7.20594e-005
7.21877e-005
7.20534e-005
7.17947e-005
7.18283e-005
0.800763
0.623566
0.492671
0.394462
0.319097
0.259955
0.212508
0.173613
0.141056
0.113265
0.0890954
0.0678209
0.0488155
0.0317075
0.0164851
0.00581582
0.0014297
0.000338101
0.000121246
8.12755e-005
7.41624e-005
7.30561e-005
7.2982e-005
7.31652e-005
7.28243e-005
7.25508e-005
7.27128e-005
7.26071e-005
7.26056e-005
0.735192
0.576427
0.458601
0.369823
0.301382
0.247407
0.203874
0.167981
0.137753
0.111777
0.0890202
0.0688541
0.0507065
0.0342292
0.0192476
0.00774197
0.0022214
0.000551554
0.000168639
9.17543e-005
7.69189e-005
7.42792e-005
7.36001e-005
7.35352e-005
7.41161e-005
7.37339e-005
7.32373e-005
7.32453e-005
7.31477e-005
0.671462
0.530269
0.424972
0.345283
0.283557
0.234628
0.194947
0.162038
0.134149
0.110025
0.0887633
0.0697414
0.0525008
0.0367058
0.0221221
0.0100123
0.00318254
0.000834628
0.000241941
0.000109566
8.14875e-005
7.5732e-005
7.52749e-005
7.44158e-005
7.4424e-005
7.49438e-005
7.46381e-005
7.39557e-005
7.4054e-005
0.60997
0.485369
0.391974
0.320968
0.265698
0.221658
0.185741
0.155776
0.13022
0.10797
0.0882342
0.0704168
0.0541378
0.0391233
0.0251032
0.0127486
0.00472386
0.00138202
0.000394261
0.00014798
9.10447e-005
7.85033e-005
7.61831e-005
7.63741e-005
7.56681e-005
7.543e-005
7.58557e-005
7.55265e-005
7.48201e-005
0.551062
0.44198
0.359784
0.296998
0.247882
0.208536
0.176265
0.149179
0.12593
0.105551
0.0873386
0.0707671
0.0555261
0.0412958
0.0279044
0.0155789
0.00649555
0.00208761
0.000607887
0.000208053
0.000108037
8.35656e-005
7.79611e-005
7.7135e-005
7.75604e-005
7.70226e-005
7.65069e-005
7.70101e-005
7.65608e-005
0.495035
0.400328
0.328572
0.273495
0.23019
0.195312
0.166543
0.142247
0.121258
0.102732
0.0860454
0.0707008
0.0565478
0.0432307
0.0305389
0.0185488
0.00876253
0.00316938
0.000999543
0.000326062
0.00014158
9.41455e-005
8.14242e-005
7.88279e-005
7.84368e-005
7.88577e-005
7.83665e-005
7.78379e-005
7.83203e-005
0.442127
0.360606
0.298491
0.250577
0.212709
0.182046
0.156608
0.134995
0.116203
0.0995011
0.0843499
0.0703476
0.0572443
0.0448275
0.0329437
0.0214456
0.0113224
0.00464187
0.00157522
0.000519561
0.000200626
0.000111906
8.845e-005
8.13731e-005
8.04502e-005
7.99526e-005
8.02766e-005
7.98137e-005
7.93136e-005
0.39252
0.322976
0.269676
0.228354
0.195527
0.168802
0.146505
0.127447
0.11077
0.0958471
0.0822164
0.0695493
0.0574875
0.0460588
0.0349785
0.0241821
0.0140631
0.0064896
0.00245125
0.000831302
0.000304703
0.000145291
9.94803e-005
8.66645e-005
8.25536e-005
8.22039e-005
8.16768e-005
8.19542e-005
8.16946e-005
0.346335
0.287563
0.242243
0.206928
0.178728
0.155647
0.136283
0.119633
0.104973
0.0917658
0.0796143
0.0682166
0.0572909
0.0468354
0.0366483
0.0265616
0.016821
0.00868187
0.00366168
0.00136769
0.000496607
0.00021151
0.000121227
9.46179e-005
8.68514e-005
8.45775e-005
8.46459e-005
8.40104e-005
8.38679e-005
0.303635
0.254454
0.216287
0.186392
0.162395
0.142651
0.125997
0.111596
0.0988365
0.0872667
0.0765459
0.0664148
0.0566772
0.0471065
0.0378273
0.0286081
0.0193844
0.0110814
0.00518996
0.00209335
0.00080027
0.000320248
0.000163765
0.000109975
9.32495e-005
8.80483e-005
8.68439e-005
8.74723e-005
8.67097e-005
0.264434
0.223702
0.191881
0.166824
0.146606
0.129888
0.115711
0.103384
0.0923981
0.082372
0.0730174
0.0641132
0.0554934
0.0469108
0.038508
0.0300733
0.0216251
0.0134827
0.00703395
0.00311943
0.00125992
0.000506754
0.000229824
0.000140271
0.000105409
9.43322e-005
9.03191e-005
8.95524e-005
9.05303e-005
0.228695
0.195327
0.169075
0.14829
0.131435
0.117429
0.105492
0.0950586
0.0857069
0.0771192
0.0690518
0.0613162
0.0537659
0.0462663
0.0386017
0.0310485
0.0232904
0.0157031
0.00901557
0.00442529
0.00193828
0.000813059
0.000352648
0.000184477
0.000129595
0.000104802
9.7465e-005
9.35266e-005
9.29739e-005
0.196334
0.169316
0.147896
0.130844
0.116947
0.105345
0.0954113
0.0866861
0.0788234
0.0715595
0.0646898
0.058054
0.0515259
0.0450104
0.0382961
0.0314613
0.0245548
0.017451
0.0110024
0.00592851
0.0028404
0.00126983
0.000567025
0.000270485
0.00016141
0.000125279
0.000107128
0.000101919
9.76563e-005
0.167234
0.145624
0.128351
0.114522
0.103199
0.093704
0.0855411
0.078339
0.0718163
0.0657556
0.059986
0.0543714
0.0488025
0.043195
0.0374699
0.0313383
0.025207
0.018881
0.0126411
0.00755302
0.00392094
0.00188823
0.000873885
0.000419159
0.000225959
0.000150273
0.0001256
0.000111586
0.000106755
0.141239
0.124183
0.110425
0.0993481
0.0902377
0.0825698
0.0759535
0.0700932
0.0647616
0.0597803
0.0550074
0.0503275
0.0456467
0.040888
0.0359892
0.0308032
0.0252152
0.0196613
0.0140705
0.00895856
0.00520688
0.00267924
0.00133394
0.000640401
0.0003305
0.000200328
0.000145703
0.000130337
0.000116914
0.118172
0.104901
0.0940871
0.0853318
0.0781025
0.0719994
0.0667185
0.0620262
0.0577399
0.0537142
0.0498316
0.0459952
0.0421241
0.0381501
0.0340177
0.0296873
0.0249053
0.0198552
0.0149278
0.0102544
0.00634598
0.00367277
0.00192654
0.00100868
0.000509119
0.000283638
0.000185533
0.000146519
0.000136973
0.0978351
0.0876689
0.0792897
0.0724699
0.0668213
0.0620434
0.0579023
0.0542147
0.0508343
0.0476432
0.0445448
0.0414578
0.0383135
0.0350531
0.0316274
0.0279934
0.0240994
0.0196736
0.0152569
0.011094
0.00745218
0.00456698
0.00269533
0.00145719
0.000812172
0.000435581
0.000263845
0.00018226
0.00015259
0.0800189
0.0723648
0.0659736
0.0607482
0.0564128
0.0527447
0.0495656
0.0467318
0.0441267
0.0416548
0.039237
0.0368056
0.0343021
0.0316808
0.0288909
0.0259016
0.0226752
0.0191109
0.0151612
0.0115275
0.00820522
0.00551095
0.00339991
0.00208322
0.00116189
0.000688313
0.000391858
0.000252328
0.000185699
0.0645113
0.0588607
0.054071
0.0501433
0.0468865
0.0441379
0.0417617
0.0396451
0.0376947
0.0358334
0.0339976
0.0321301
0.030181
0.0281192
0.0258943
0.0234823
0.0208409
0.018013
0.0147891
0.0115041
0.00862617
0.00615968
0.00421038
0.00265678
0.00171173
0.000987795
0.000623325
0.000371567
0.000249573
0.0511037
0.0470264
0.0435086
0.0406244
0.0382443
0.0362493
0.0345355
0.0330135
0.0316078
0.0302568
0.0289106
0.0275173
0.0260386
0.0244553
0.0227186
0.0208143
0.0186793
0.0164191
0.0139639
0.0112643
0.00868812
0.00650877
0.00478183
0.00334211
0.00220063
0.00147989
0.000885878
0.000591219
0.000367021
0.0395987
0.0367347
0.0342109
0.0321564
0.0304814
0.0290974
0.0279232
0.0268863
0.0259254
0.0249919
0.0240492
0.0230432
0.021954
0.0207696
0.0194479
0.017958
0.0162962
0.0144655
0.0125965
0.0106021
0.00852071
0.00656945
0.00502304
0.0038332
0.0027992
0.00193925
0.00136088
0.000851092
0.000560348
0.0298157
0.0278648
0.0261035
0.0247023
0.023589
0.0226945
0.0219519
0.0213018
0.0206941
0.0200928
0.0194721
0.0187695
0.0179956
0.0171261
0.0161513
0.0149967
0.0137247
0.0122982
0.0108341
0.0093559
0.0079374
0.00641476
0.00504545
0.00394402
0.0031626
0.0024374
0.00179997
0.00132833
0.000879696
0.0215938
0.0203046
0.0191177
0.018229
0.0175577
0.0170484
0.0166405
0.0162878
0.0159478
0.0156004
0.0152198
0.0147457
0.0142165
0.0135834
0.0128696
0.0120126
0.0110174
0.00995474
0.00885855
0.00774106
0.00674733
0.00582971
0.00486132
0.00392427
0.00318947
0.00268074
0.00217427
0.00175497
0.00127271
0.0147942
0.013956
0.0131978
0.0127129
0.0123815
0.0121656
0.012002
0.0118634
0.0117109
0.0115453
0.0113212
0.0110104
0.0106689
0.0101827
0.00967386
0.00902441
0.00826804
0.00746967
0.00668237
0.00586866
0.00520201
0.00464897
0.0042217
0.00365974
0.00312994
0.00264942
0.00238919
0.00206504
0.00184911
0.00930275
0.00874679
0.00831379
0.00814839
0.00806254
0.00805507
0.00804937
0.00804415
0.00800951
0.00795333
0.00780727
0.0076174
0.00739722
0.00698934
0.00662105
0.00617173
0.00561358
0.00508892
0.00456792
0.00407968
0.00353565
0.0030025
0.002756
0.0026263
0.00255421
0.00237517
0.00231592
0.00218759
0.00207347
0.00504618
0.00465736
0.00448601
0.00455517
0.00462158
0.00474042
0.00480494
0.00486218
0.00487922
0.00486966
0.00474824
0.00466891
0.00451844
0.00420831
0.00390773
0.00347548
0.00310468
0.00276695
0.00262693
0.00260901
0.00271868
0.00299354
0.00333349
0.00384176
0.00444622
0.00518379
0.00571083
0.00585985
0.00544608
0.00205139
0.00180616
0.00182757
0.00203211
0.00213486
0.00230226
0.0023533
0.00242815
0.0024607
0.00246186
0.00229262
0.00226542
0.00225971
0.00227424
0.00242364
0.00282135
0.00368341
0.00462541
0.0067545
0.00916006
0.0135763
0.0183054
0.0247001
0.0329592
0.0402431
0.0524611
0.0584175
0.0717133
0.0677987
0.000547709
0.00047438
0.000533987
0.000706172
0.00075237
0.000866287
0.000914304
0.00101201
0.001111
0.00130805
0.00175111
0.00235461
0.00365346
0.00539015
0.00889908
0.0130749
0.0198403
0.0278643
0.0397969
0.0530332
0.0708272
0.0910435
0.115339
0.146451
0.176987
0.225838
0.260274
0.342592
0.352957
0.000166468
0.000164271
0.000195562
0.000273752
0.0004364
0.000596202
0.00106878
0.00146077
0.0023024
0.00394713
0.00692233
0.0104995
0.0169617
0.0250756
0.0364661
0.0501302
0.0680501
0.0895917
0.116981
0.149013
0.188254
0.234819
0.290262
0.359909
0.437888
0.549154
0.657019
0.866959
0.974286
0.000115013
0.00014034
0.000200658
0.000359326
0.000997111
0.00165735
0.00355762
0.00523478
0.0087968
0.0142518
0.0219512
0.031827
0.0462403
0.0640495
0.0869528
0.114453
0.148912
0.190337
0.241105
0.300813
0.373248
0.458887
0.563529
0.690487
0.846627
1.04827
1.29804
1.65772
1.97876
0.00099014
0.00099014
0.000990141
0.000990141
0.000990141
0.000990141
0.000990141
0.000990141
0.000990141
0.000990141
0.000990141
0.000990141
0.000990141
0.000990141
0.000990141
0.000990141
0.000990142
0.000990142
0.000990142
0.000990142
0.000990142
0.000990142
0.000990143
0.000990143
0.000990143
0.000990143
0.000990144
0.000990144
0.000990144
0.000990145
0.000990145
0.000990145
0.000990146
0.000990146
0.000990146
0.000990147
0.000990147
0.000990147
0.000990148
0.000990148
0.000990148
0.000990148
0.000990149
0.000990149
0.000990149
0.000990149
0.00099015
0.00099015
0.00099015
0.00099015
0.00099015
0.00099015
0.00099015
0.000990151
0.000990151
0.000990151
0.000990151
0.000990151
0.000990151
0.000990151
0.000990152
0.000990152
0.000990152
0.000990152
0.000990152
0.000990152
0.000990153
0.000990153
0.000990153
0.000990153
0.000990153
0.000990153
0.000990153
0.000990154
0.000990154
0.000990154
0.000990154
0.000990154
0.000990154
0.000990154
0.000990154
0.000990154
0.000990154
0.000990154
0.000990155
0.000990155
0.000990155
0.000990155
0.000990154
0.000990154
0.000990155
0.000990155
0.000990155
0.000990155
0.000990155
0.000990155
0.000990155
0.000990155
0.000990156
0.000990156
0.000990156
0.000990156
0.000990156
0.000990157
0.000990157
0.000990157
0.000990157
0.000990157
0.000990158
0.000990158
0.000990158
0.000990158
0.000990157
0.000990157
0.000990157
0.000990156
0.000990156
0.000990155
0.000990155
0.000990155
0.000990156
0.000990156
0.000990156
0.000990156
0.000990156
0.000990156
0.000990156
0.000990156
0.000990157
0.000990156
0.000990158
0.000990157
0.00099016
0.000990162
0.000990161
0.000990164
0.000990164
0.000990177
0.00100822
4.099e-005
4.09904e-005
4.09907e-005
4.09909e-005
4.0991e-005
4.09911e-005
4.09912e-005
4.09913e-005
4.09913e-005
4.09914e-005
4.09915e-005
4.09916e-005
4.09917e-005
4.09919e-005
4.09921e-005
4.09923e-005
4.09925e-005
4.09927e-005
4.0993e-005
4.09932e-005
4.09935e-005
4.09939e-005
4.09942e-005
4.09946e-005
4.0995e-005
4.09955e-005
4.09959e-005
4.09964e-005
4.09969e-005
4.09975e-005
4.0998e-005
4.09986e-005
4.09991e-005
4.09997e-005
4.10003e-005
4.10009e-005
4.10014e-005
4.1002e-005
4.10025e-005
4.1003e-005
4.10034e-005
4.10039e-005
4.10043e-005
4.10047e-005
4.10051e-005
4.10054e-005
4.10058e-005
4.10061e-005
4.10064e-005
4.10067e-005
4.1007e-005
4.10073e-005
4.10076e-005
4.10078e-005
4.10081e-005
4.10084e-005
4.10086e-005
4.10089e-005
4.10092e-005
4.10095e-005
4.10099e-005
4.10102e-005
4.10106e-005
4.10109e-005
4.10113e-005
4.10116e-005
4.10119e-005
4.10122e-005
4.10124e-005
4.10127e-005
4.10129e-005
4.10132e-005
4.10134e-005
4.10137e-005
4.10139e-005
4.10141e-005
4.10144e-005
4.10146e-005
4.10148e-005
4.1015e-005
4.10151e-005
4.10153e-005
4.10154e-005
4.10155e-005
4.10156e-005
4.10157e-005
4.10158e-005
4.10159e-005
4.10159e-005
4.10159e-005
4.10159e-005
4.1016e-005
4.10161e-005
4.10163e-005
4.10165e-005
4.10167e-005
4.10169e-005
4.10172e-005
4.10174e-005
4.10177e-005
4.1018e-005
4.10182e-005
4.10185e-005
4.10188e-005
4.1019e-005
4.10193e-005
4.10196e-005
4.10198e-005
4.102e-005
4.10202e-005
4.10203e-005
4.10201e-005
4.10197e-005
4.10191e-005
4.10184e-005
4.10176e-005
4.10169e-005
4.10163e-005
4.10161e-005
4.10162e-005
4.10164e-005
4.10166e-005
4.10166e-005
4.10168e-005
4.10165e-005
4.10168e-005
4.10161e-005
4.10167e-005
4.10172e-005
4.10163e-005
4.10198e-005
4.10184e-005
4.10212e-005
4.10252e-005
4.10221e-005
4.10278e-005
4.10583e-005
4.09232e-005
4.2093e-005
3.38082e-006
3.381e-006
3.38113e-006
3.38125e-006
3.38135e-006
3.38145e-006
3.38153e-006
3.38162e-006
3.3817e-006
3.38177e-006
3.38185e-006
3.38192e-006
3.382e-006
3.38207e-006
3.38215e-006
3.38223e-006
3.38231e-006
3.38239e-006
3.38248e-006
3.38257e-006
3.38267e-006
3.38277e-006
3.38287e-006
3.38298e-006
3.38309e-006
3.3832e-006
3.38332e-006
3.38344e-006
3.38356e-006
3.38368e-006
3.38381e-006
3.38394e-006
3.38408e-006
3.38421e-006
3.38435e-006
3.3845e-006
3.38466e-006
3.38482e-006
3.38497e-006
3.38512e-006
3.38528e-006
3.38543e-006
3.38558e-006
3.38573e-006
3.38588e-006
3.38603e-006
3.38618e-006
3.38633e-006
3.38648e-006
3.38663e-006
3.38677e-006
3.38692e-006
3.38707e-006
3.38721e-006
3.38736e-006
3.38751e-006
3.38765e-006
3.38779e-006
3.38794e-006
3.38808e-006
3.38823e-006
3.38837e-006
3.38851e-006
3.38864e-006
3.38877e-006
3.3889e-006
3.38903e-006
3.38916e-006
3.38928e-006
3.3894e-006
3.38951e-006
3.38963e-006
3.38974e-006
3.38985e-006
3.38995e-006
3.39006e-006
3.39016e-006
3.39026e-006
3.39036e-006
3.39045e-006
3.39054e-006
3.39063e-006
3.39072e-006
3.39081e-006
3.39089e-006
3.39098e-006
3.39106e-006
3.39115e-006
3.3912e-006
3.39124e-006
3.39126e-006
3.39129e-006
3.39131e-006
3.39133e-006
3.39135e-006
3.39137e-006
3.39138e-006
3.3914e-006
3.39141e-006
3.39142e-006
3.39142e-006
3.39141e-006
3.39141e-006
3.39139e-006
3.39138e-006
3.39135e-006
3.39132e-006
3.39128e-006
3.39123e-006
3.39118e-006
3.39112e-006
3.39104e-006
3.39091e-006
3.39075e-006
3.39059e-006
3.39042e-006
3.39024e-006
3.39007e-006
3.38995e-006
3.38987e-006
3.3898e-006
3.38972e-006
3.3896e-006
3.38951e-006
3.38936e-006
3.38916e-006
3.38913e-006
3.38873e-006
3.38886e-006
3.3886e-006
3.38879e-006
3.38881e-006
3.3882e-006
3.38912e-006
3.39681e-006
3.39479e-006
3.01943e-006
4.48529e-006
0.000483126
5.33049e-007
5.33103e-007
5.33151e-007
5.33196e-007
5.33239e-007
5.33281e-007
5.3332e-007
5.3336e-007
5.33399e-007
5.33438e-007
5.33476e-007
5.33516e-007
5.33555e-007
5.33595e-007
5.33635e-007
5.33676e-007
5.33718e-007
5.3376e-007
5.33803e-007
5.33846e-007
5.3389e-007
5.33935e-007
5.3398e-007
5.34026e-007
5.34073e-007
5.3412e-007
5.34168e-007
5.34216e-007
5.34265e-007
5.34314e-007
5.34364e-007
5.34414e-007
5.34464e-007
5.34515e-007
5.34567e-007
5.3462e-007
5.34674e-007
5.34728e-007
5.34782e-007
5.34836e-007
5.3489e-007
5.34944e-007
5.34998e-007
5.35052e-007
5.35107e-007
5.35161e-007
5.35215e-007
5.35269e-007
5.35323e-007
5.35377e-007
5.3543e-007
5.35484e-007
5.35537e-007
5.3559e-007
5.35644e-007
5.35696e-007
5.35749e-007
5.35801e-007
5.35853e-007
5.35904e-007
5.35953e-007
5.36001e-007
5.36048e-007
5.36095e-007
5.3614e-007
5.36185e-007
5.3623e-007
5.36273e-007
5.36315e-007
5.36357e-007
5.36397e-007
5.36437e-007
5.36476e-007
5.36515e-007
5.36552e-007
5.36589e-007
5.36624e-007
5.36659e-007
5.36693e-007
5.36726e-007
5.36758e-007
5.36789e-007
5.36819e-007
5.36848e-007
5.36876e-007
5.36903e-007
5.36929e-007
5.36954e-007
5.36975e-007
5.36993e-007
5.37008e-007
5.37021e-007
5.37032e-007
5.37041e-007
5.37048e-007
5.37054e-007
5.37057e-007
5.37058e-007
5.37057e-007
5.37054e-007
5.37049e-007
5.37041e-007
5.37031e-007
5.3702e-007
5.37006e-007
5.36991e-007
5.36973e-007
5.36954e-007
5.36932e-007
5.36907e-007
5.36882e-007
5.36857e-007
5.36827e-007
5.36791e-007
5.36752e-007
5.3671e-007
5.36663e-007
5.36613e-007
5.36567e-007
5.36522e-007
5.36474e-007
5.36422e-007
5.36366e-007
5.36297e-007
5.3623e-007
5.36137e-007
5.36058e-007
5.35976e-007
5.35839e-007
5.35867e-007
5.35795e-007
5.3528e-007
5.37438e-007
5.41155e-007
4.88854e-007
4.92319e-007
6.35981e-006
0.00096065
0.0389462
1.48079e-007
1.48102e-007
1.48125e-007
1.48147e-007
1.48169e-007
1.48191e-007
1.48213e-007
1.48234e-007
1.48255e-007
1.48277e-007
1.48299e-007
1.4832e-007
1.48342e-007
1.48365e-007
1.48387e-007
1.48411e-007
1.48434e-007
1.48457e-007
1.48481e-007
1.48505e-007
1.4853e-007
1.48555e-007
1.4858e-007
1.48605e-007
1.48631e-007
1.48657e-007
1.48684e-007
1.48711e-007
1.48737e-007
1.48765e-007
1.48792e-007
1.48819e-007
1.48847e-007
1.48875e-007
1.48902e-007
1.4893e-007
1.48958e-007
1.48986e-007
1.49014e-007
1.49042e-007
1.4907e-007
1.49098e-007
1.49126e-007
1.49154e-007
1.49182e-007
1.49209e-007
1.49237e-007
1.49264e-007
1.49291e-007
1.49319e-007
1.49346e-007
1.49372e-007
1.49399e-007
1.49425e-007
1.49451e-007
1.49477e-007
1.49502e-007
1.49527e-007
1.49552e-007
1.49577e-007
1.496e-007
1.49624e-007
1.49647e-007
1.49669e-007
1.49692e-007
1.49714e-007
1.49735e-007
1.49757e-007
1.49777e-007
1.49798e-007
1.49818e-007
1.49837e-007
1.49856e-007
1.49875e-007
1.49893e-007
1.49911e-007
1.49928e-007
1.49945e-007
1.49961e-007
1.49976e-007
1.49991e-007
1.50006e-007
1.5002e-007
1.50034e-007
1.50046e-007
1.50059e-007
1.5007e-007
1.50081e-007
1.50092e-007
1.50102e-007
1.50112e-007
1.50121e-007
1.50129e-007
1.50136e-007
1.50142e-007
1.50147e-007
1.50152e-007
1.50155e-007
1.50157e-007
1.50158e-007
1.50158e-007
1.50157e-007
1.50155e-007
1.50153e-007
1.50149e-007
1.50144e-007
1.50139e-007
1.50132e-007
1.50124e-007
1.50115e-007
1.50104e-007
1.50094e-007
1.50084e-007
1.50073e-007
1.50061e-007
1.50047e-007
1.50032e-007
1.50014e-007
1.49996e-007
1.49975e-007
1.49952e-007
1.49926e-007
1.49897e-007
1.49863e-007
1.49824e-007
1.49786e-007
1.49726e-007
1.49697e-007
1.49638e-007
1.49585e-007
1.49832e-007
1.51606e-007
1.45368e-007
1.26722e-007
2.92566e-007
9.64613e-006
0.000820023
0.0265982
0.226254
5.65856e-008
5.6609e-008
5.66276e-008
5.66425e-008
5.6657e-008
5.66741e-008
5.66895e-008
5.67053e-008
5.67215e-008
5.67379e-008
5.67548e-008
5.67724e-008
5.679e-008
5.6808e-008
5.68266e-008
5.68455e-008
5.68649e-008
5.68845e-008
5.69047e-008
5.69253e-008
5.69462e-008
5.69675e-008
5.69891e-008
5.7011e-008
5.70332e-008
5.70557e-008
5.70785e-008
5.71014e-008
5.71247e-008
5.71481e-008
5.71718e-008
5.71956e-008
5.72195e-008
5.72436e-008
5.72678e-008
5.72922e-008
5.73167e-008
5.73412e-008
5.73657e-008
5.739e-008
5.74145e-008
5.74388e-008
5.7463e-008
5.74872e-008
5.75114e-008
5.75353e-008
5.75592e-008
5.75829e-008
5.76066e-008
5.763e-008
5.76532e-008
5.76762e-008
5.76991e-008
5.77217e-008
5.77441e-008
5.77664e-008
5.77882e-008
5.78098e-008
5.78312e-008
5.78522e-008
5.7873e-008
5.78936e-008
5.79139e-008
5.79338e-008
5.79536e-008
5.79729e-008
5.79919e-008
5.80106e-008
5.80289e-008
5.8047e-008
5.80646e-008
5.80819e-008
5.80989e-008
5.81154e-008
5.81316e-008
5.81474e-008
5.81627e-008
5.81779e-008
5.81925e-008
5.82067e-008
5.82206e-008
5.82341e-008
5.82471e-008
5.82598e-008
5.82721e-008
5.82838e-008
5.82951e-008
5.83058e-008
5.83163e-008
5.83267e-008
5.83366e-008
5.83462e-008
5.83552e-008
5.83639e-008
5.83719e-008
5.83793e-008
5.83863e-008
5.83926e-008
5.83983e-008
5.84034e-008
5.84076e-008
5.84113e-008
5.84144e-008
5.84168e-008
5.84187e-008
5.84201e-008
5.842e-008
5.84198e-008
5.8419e-008
5.84173e-008
5.84145e-008
5.84111e-008
5.84076e-008
5.84038e-008
5.83992e-008
5.83937e-008