/*--------------------------------*- C++ -*----------------------------------*\
| =========                 |                                                 |
| \\      /  F ield         | OpenFOAM: The Open Source CFD Toolbox           |
|  \\    /   O peration     | Version:  5.x                                   |
|   \\  /    A nd           | Web:      www.OpenFOAM.org                      |
|    \\/     M anipulation  |                                                 |
\*---------------------------------------------------------------------------*/
/*   Windows 32 and 64 bit porting by blueCAPE: http://www.bluecape.com.pt   *\
|  Based on Windows porting (2.0.x v4) by Symscape: http://www.symscape.com   |
\*---------------------------------------------------------------------------*/
FoamFile
{
    version     2.0;
    format      ascii;
    class       volScalarField;
    location    "150";
    object      nut;
}
// * * * * * * * * * * * * * * * * * * * * * * * * * * * * * * * * * * * * * //

dimensions      [0 2 -1 0 0 0 0];

internalField   nonuniform List<scalar> 
43900
(
5.71391e-005
5.8008e-005
5.80693e-005
5.80649e-005
5.80597e-005
5.80592e-005
5.80592e-005
5.80597e-005
5.80591e-005
5.80596e-005
5.80596e-005
5.80598e-005
5.80598e-005
5.80599e-005
5.806e-005
5.806e-005
5.806e-005
5.80601e-005
5.80601e-005
5.80602e-005
5.80602e-005
5.80603e-005
5.80603e-005
5.80603e-005
5.80604e-005
5.80604e-005
5.80604e-005
5.80604e-005
5.80605e-005
0.000551378
7.03972e-006
4.30317e-006
4.15251e-006
4.58834e-006
4.60745e-006
4.6077e-006
4.60533e-006
4.60409e-006
4.60541e-006
4.60559e-006
4.60586e-006
4.60608e-006
4.60625e-006
4.6064e-006
4.60654e-006
4.60667e-006
4.60678e-006
4.60692e-006
4.60705e-006
4.60718e-006
4.60728e-006
4.60738e-006
4.60746e-006
4.60754e-006
4.60761e-006
4.60767e-006
4.60772e-006
4.60775e-006
0.150039
0.0433844
0.00457101
8.56946e-005
1.11124e-006
6.41319e-007
6.35884e-007
7.20619e-007
7.26301e-007
7.22797e-007
7.22156e-007
7.22549e-007
7.22777e-007
7.22923e-007
7.23058e-007
7.23184e-007
7.23298e-007
7.23402e-007
7.23501e-007
7.23591e-007
7.23666e-007
7.23728e-007
7.23783e-007
7.23831e-007
7.23875e-007
7.23914e-007
7.2395e-007
7.23982e-007
7.24e-007
0.470366
0.286106
0.128651
0.0349339
0.0035697
0.000100496
2.12896e-006
2.09428e-007
1.6396e-007
2.07739e-007
2.16669e-007
2.13349e-007
2.12309e-007
2.12416e-007
2.12509e-007
2.12574e-007
2.12632e-007
2.12685e-007
2.12731e-007
2.12772e-007
2.12807e-007
2.12838e-007
2.12865e-007
2.12889e-007
2.12912e-007
2.12935e-007
2.12954e-007
2.12972e-007
2.12987e-007
0.742792
0.566838
0.398693
0.233176
0.0939417
0.0198361
0.00145343
4.87688e-005
1.17313e-006
1.17057e-007
7.68517e-008
9.98031e-008
1.06641e-007
1.05718e-007
1.0548e-007
1.05491e-007
1.05519e-007
1.05542e-007
1.05563e-007
1.05584e-007
1.05602e-007
1.0562e-007
1.05638e-007
1.05653e-007
1.05669e-007
1.05684e-007
1.05697e-007
1.05712e-007
1.05726e-007
0.949907
0.780918
0.623508
0.470135
0.315247
0.159497
0.0487485
0.00607772
0.000298615
1.00879e-005
3.47576e-007
7.15048e-008
5.26168e-008
6.18624e-008
6.37294e-008
6.3844e-008
6.38688e-008
6.38893e-008
6.39073e-008
6.39215e-008
6.3927e-008
6.39371e-008
6.39446e-008
6.39565e-008
6.39651e-008
6.39596e-008
6.39804e-008
6.39962e-008
6.40077e-008
1.09976
0.936252
0.786528
0.644187
0.504275
0.363766
0.216673
0.082104
0.0149173
0.000988923
4.18776e-005
1.34606e-006
1.19104e-007
5.4477e-008
4.87267e-008
4.87751e-008
4.87863e-008
4.87869e-008
4.87904e-008
4.87988e-008
4.8814e-008
4.8824e-008
4.88366e-008
4.88437e-008
4.88548e-008
4.88815e-008
4.88854e-008
4.88852e-008
4.88888e-008
1.20934
1.05044
0.9066
0.77211
0.64223
0.513072
0.381426
0.246344
0.10468
0.02275
0.00179216
7.96707e-005
3.06866e-006
1.48666e-007
7.86728e-008
7.44284e-008
7.41698e-008
7.41639e-008
7.41596e-008
7.41581e-008
7.41712e-008
7.41893e-008
7.42193e-008
7.42281e-008
7.42514e-008
7.43279e-008
7.43008e-008
7.42991e-008
7.42976e-008
1.31351
1.15694
1.01581
0.885175
0.76071
0.638801
0.516492
0.391702
0.264186
0.127873
0.029779
0.0023776
9.81449e-005
3.60923e-006
1.95645e-007
1.02189e-007
9.96475e-008
9.95924e-008
9.95933e-008
9.95958e-008
9.96098e-008
9.96385e-008
9.97057e-008
9.97165e-008
9.97418e-008
9.98264e-008
9.97441e-008
9.97445e-008
9.9744e-008
1.34897
1.19948
1.06576
0.94303
0.827284
0.715055
0.60348
0.490307
0.373854
0.252039
0.123125
0.0262664
0.00181287
6.92492e-005
2.55668e-006
2.88916e-007
2.21299e-007
2.19343e-007
2.19341e-007
2.19341e-007
2.19347e-007
2.19419e-007
2.20059e-007
2.1996e-007
2.19952e-007
2.20055e-007
2.1911e-007
2.1911e-007
2.19109e-007
1.38087
1.23255
1.10211
0.983133
0.871916
0.76538
0.66074
0.555705
0.448452
0.337472
0.221359
0.0966107
0.0153229
0.000781802
2.80594e-005
1.7825e-006
9.17623e-007
8.91799e-007
8.91446e-007
8.91471e-007
8.91432e-007
8.91427e-007
8.94352e-007
8.91095e-007
8.91938e-007
8.92214e-007
8.86427e-007
8.86854e-007
8.86854e-007
1.39952
1.2535
1.12349
1.00737
0.899752
0.796999
0.696945
0.597377
0.496471
0.392787
0.285169
0.17261
0.055003
0.00506857
0.000193618
9.92429e-006
3.97329e-006
3.79485e-006
3.79157e-006
3.79079e-006
3.791e-006
3.78873e-006
3.80301e-006
3.77238e-006
3.76241e-006
3.76166e-006
3.75293e-006
3.75797e-006
3.75568e-006
1.4052
1.26289
1.13584
1.01968
0.913657
0.814491
0.717896
0.621992
0.525306
0.426456
0.324415
0.218415
0.104949
0.0178998
0.000874147
4.16253e-005
1.46829e-005
1.38782e-005
1.38602e-005
1.38599e-005
1.38693e-005
1.38493e-005
1.39066e-005
1.37743e-005
1.36693e-005
1.36739e-005
1.36907e-005
1.36831e-005
1.36835e-005
1.40116
1.26152
1.13805
1.02613
0.921095
0.821704
0.727489
0.634875
0.541203
0.445693
0.347319
0.245205
0.13712
0.0358016
0.00255655
0.000132541
4.81003e-005
4.54073e-005
4.53118e-005
4.53121e-005
4.52606e-005
4.52603e-005
4.54675e-005
4.50991e-005
4.45192e-005
4.45069e-005
4.4659e-005
4.46088e-005
4.46108e-005
1.39063
1.25364
1.1324
1.02298
0.922136
0.826057
0.73199
0.640145
0.549248
0.45622
0.360539
0.261279
0.157088
0.0509319
0.00508624
0.000350888
0.000149781
0.000142322
0.000142182
0.000142388
0.000141919
0.000142289
0.000143027
0.000142227
0.000139334
0.000138836
0.000139749
0.000139399
0.000139447
1.37624
1.24199
1.12314
1.01584
0.916877
0.823526
0.733286
0.643193
0.552465
0.461718
0.367879
0.270554
0.168857
0.0617448
0.00758057
0.000685215
0.000348833
0.000334733
0.000334611
0.000334031
0.000333722
0.000334172
0.000334349
0.000332507
0.000329036
0.000329563
0.000330441
0.000329532
0.000327822
1.35935
1.22797
1.11163
1.00654
0.909551
0.817991
0.729594
0.642454
0.55446
0.463944
0.372294
0.27675
0.176964
0.0701541
0.0100414
0.00102732
0.000523451
0.000500008
0.000498454
0.000498117
0.000498456
0.00049888
0.000498056
0.000495742
0.000493309
0.000494078
0.000494525
0.000494101
0.000491275
1.34072
1.21236
1.09866
0.995885
0.900958
0.811266
0.724595
0.639068
0.553114
0.465465
0.374714
0.280952
0.183124
0.0775334
0.0126769
0.00139152
0.000661817
0.000624523
0.000622273
0.000621676
0.000621878
0.00062156
0.000620362
0.000619273
0.000618064
0.000618053
0.000618283
0.000616328
0.00061524
1.32073
1.19558
1.08466
0.98435
0.891606
0.803881
0.719018
0.6352
0.550912
0.4649
0.376037
0.284181
0.188293
0.0842045
0.0154737
0.00180148
0.000771878
0.000715313
0.000710086
0.000709811
0.000709787
0.00070906
0.000709429
0.000708216
0.000706278
0.000706488
0.000705919
0.000705318
0.000704693
1.29953
1.17778
1.06984
0.972138
0.88171
0.796067
0.713111
0.631083
0.548523
0.464226
0.377223
0.287089
0.193065
0.0907395
0.0187235
0.00231424
0.000869035
0.000774713
0.000770107
0.00076982
0.000769265
0.000770108
0.00076877
0.000766893
0.000767474
0.000766682
0.000766294
0.000765765
0.00076454
1.27717
1.15904
1.05426
0.959334
0.871375
0.787952
0.707031
0.626912
0.546198
0.463749
0.378621
0.290425
0.198343
0.0980724
0.0226357
0.00297284
0.000959084
0.00082133
0.000810554
0.000808589
0.000809351
0.000808494
0.000808308
0.000808585
0.000806799
0.000806329
0.000806554
0.00080604
0.000805271
1.25366
1.13937
1.03794
0.945976
0.860647
0.779595
0.700851
0.622779
0.544042
0.463563
0.380435
0.294319
0.2043
0.106117
0.0274166
0.00391584
0.00108856
0.000854429
0.000835826
0.00083546
0.00083476
0.000834704
0.000833722
0.00083285
0.000833623
0.000833003
0.000832095
0.000831627
0.000831111
1.22895
1.11872
1.02084
0.932005
0.849461
0.770922
0.694489
0.618592
0.541958
0.463584
0.382732
0.298505
0.210425
0.114481
0.0329686
0.00516689
0.00124836
0.00088676
0.000854686
0.00085062
0.000851097
0.000850652
0.000851802
0.000851704
0.000849267
0.000849419
0.000848874
0.000848666
0.000849393
1.20303
1.09707
1.00293
0.917396
0.837795
0.76192
0.687942
0.614359
0.539956
0.463774
0.38511
0.30315
0.217425
0.124306
0.040284
0.00705124
0.00151636
0.000920758
0.000867666
0.000864465
0.000862645
0.000862254
0.000860216
0.000859772
0.00086169
0.000861189
0.000861055
0.000860784
0.000858745
1.17588
1.0744
0.98419
0.902124
0.825625
0.752568
0.6812
0.61009
0.538087
0.464282
0.388021
0.30846
0.225175
0.13499
0.0489972
0.00970792
0.00196295
0.000985868
0.000882837
0.000870157
0.00086951
0.00086972
0.000870936
0.000870143
0.00086703
0.00086797
0.000867784
0.000867941
0.00086886
1.14748
1.05067
0.964555
0.886111
0.812854
0.742745
0.674112
0.605595
0.5361
0.46476
0.390893
0.313906
0.233209
0.146163
0.0590076
0.0131882
0.00258761
0.00107546
0.000898652
0.000879782
0.00087673
0.000875387
0.000874491
0.000875245
0.000875996
0.000874438
0.000874393
0.000873255
0.000872687
1.11783
1.02586
0.943991
0.869307
0.799425
0.732395
0.66663
0.600843
0.534006
0.465304
0.394151
0.319781
0.241809
0.158054
0.0709324
0.0183481
0.00376463
0.0012646
0.000928767
0.000886365
0.000881648
0.000881465
0.000882144
0.000880227
0.000878854
0.000879673
0.000879647
0.000880138
0.00087871
1.08695
0.999951
0.922462
0.851662
0.785274
0.721445
0.658672
0.595746
0.531703
0.465786
0.397488
0.325951
0.250911
0.170705
0.0848178
0.0251635
0.00536845
0.0015573
0.000976557
0.000898654
0.000887572
0.000885143
0.000884744
0.000886653
0.000885938
0.000883282
0.000882682
0.000883307
0.000885239
1.05483
0.972934
0.899929
0.833116
0.770326
0.709804
0.650137
0.590194
0.52908
0.466108
0.400806
0.332295
0.260304
0.183658
0.100117
0.0344846
0.00833283
0.00218142
0.00108367
0.000919199
0.000895603
0.000893463
0.000891226
0.000889484
0.000889492
0.000890573
0.000889667
0.000887496
0.000887718
1.02151
0.944787
0.876346
0.813595
0.754482
0.697352
0.640881
0.584016
0.525927
0.465945
0.403346
0.338277
0.269574
0.196507
0.116245
0.0456851
0.0119952
0.00304209
0.00125911
0.000954156
0.000904659
0.000897136
0.000896623
0.000897833
0.000895486
0.000893387
0.000894597
0.000893878
0.000893778
0.986994
0.915498
0.851668
0.79303
0.73765
0.683977
0.630777
0.577073
0.52208
0.465132
0.405531
0.343667
0.278424
0.209019
0.132612
0.0593746
0.0181777
0.00477925
0.00163759
0.00103047
0.000924336
0.000906119
0.000901342
0.000900734
0.000904809
0.000902299
0.00089857
0.000898688
0.000898026
0.951316
0.885057
0.825853
0.771352
0.719739
0.669571
0.619703
0.56923
0.517427
0.463694
0.407558
0.348796
0.286921
0.221193
0.149136
0.0752252
0.0257864
0.00708312
0.00222901
0.00116336
0.000955699
0.000916546
0.000913526
0.000907328
0.000907316
0.000910944
0.000908909
0.000904028
0.000904694
0.914503
0.853455
0.798861
0.748491
0.700656
0.654018
0.607523
0.560339
0.511805
0.461396
0.408738
0.35329
0.294829
0.2329
0.165473
0.0932324
0.0372732
0.0114651
0.00346557
0.00146203
0.00102395
0.000936186
0.000920444
0.000921763
0.000916965
0.000914785
0.000917721
0.000915558
0.00091046
0.876581
0.820683
0.770648
0.724374
0.680298
0.637191
0.594087
0.550225
0.505007
0.457954
0.408709
0.357057
0.302064
0.243646
0.180539
0.111313
0.0503837
0.0170476
0.00519677
0.00193985
0.00114756
0.000970154
0.000932775
0.000927323
0.000930289
0.000926811
0.000922686
0.000926102
0.000923364
0.837584
0.786736
0.741177
0.698934
0.658573
0.618972
0.57925
0.53872
0.496831
0.453132
0.407191
0.358268
0.307481
0.253145
0.194414
0.12944
0.0663864
0.0254005
0.0083209
0.00288482
0.00140351
0.00104478
0.000956266
0.000939532
0.000936647
0.000939528
0.000936441
0.000932255
0.00093561
0.79755
0.75162
0.710422
0.672117
0.635399
0.599253
0.562886
0.525672
0.487112
0.446785
0.404291
0.359124
0.3117
0.261136
0.206727
0.146433
0.0838641
0.0365038
0.0129291
0.0044508
0.00186989
0.00117406
0.00100555
0.000956932
0.000951109
0.000947364
0.000949508
0.000946563
0.000942792
0.756531
0.715352
0.67837
0.643879
0.610708
0.577944
0.544877
0.510944
0.475693
0.438743
0.399772
0.358638
0.314546
0.267676
0.217305
0.161886
0.101778
0.050012
0.0197024
0.00696461
0.00270826
0.00142829
0.00108197
0.00099382
0.000965728
0.000963065
0.000959388
0.000961193
0.000959693
0.714591
0.677967
0.645025
0.614201
0.584453
0.554972
0.525127
0.494415
0.462427
0.428814
0.393261
0.355454
0.314686
0.271862
0.225699
0.175034
0.119084
0.0655188
0.0288641
0.0111073
0.00422019
0.00194432
0.00123983
0.00104713
0.000995165
0.000981078
0.000981203
0.000977098
0.000975685
0.671817
0.639521
0.610419
0.583088
0.556616
0.530295
0.503568
0.475991
0.447194
0.416857
0.384685
0.350376
0.313535
0.274079
0.23196
0.185873
0.134512
0.0818671
0.0402774
0.0168036
0.00661381
0.00279708
0.00155929
0.00115378
0.00103778
0.00100195
0.000994612
0.000998907
0.000994605
0.62832
0.600101
0.574612
0.550579
0.527214
0.503908
0.480174
0.45562
0.429914
0.402766
0.373903
0.343065
0.310009
0.273781
0.23555
0.193822
0.147408
0.0975102
0.0534433
0.0245777
0.0102331
0.00427275
0.00207218
0.00137299
0.00111949
0.00104641
0.00101833
0.00101301
0.00101938
0.584239
0.559823
0.537704
0.516754
0.49631
0.475854
0.454966
0.433301
0.410565
0.386489
0.360823
0.333321
0.303729
0.271567
0.236392
0.198861
0.15707
0.111362
0.0671295
0.034161
0.0153681
0.00664271
0.00303107
0.00170851
0.0012888
0.00111447
0.00106877
0.00104055
0.00103599
0.539747
0.518842
0.499831
0.481737
0.464014
0.446228
0.428022
0.409094
0.389182
0.368039
0.345435
0.321138
0.294914
0.266544
0.23508
0.200889
0.163715
0.122245
0.0802929
0.0449633
0.0221234
0.0101162
0.00466303
0.00236413
0.00152167
0.00125295
0.00113011
0.00110179
0.00106878
0.495045
0.477346
0.461173
0.4457
0.430488
0.415182
0.39948
0.383121
0.365869
0.347501
0.327799
0.30655
0.283532
0.258507
0.231164
0.200231
0.167117
0.130289
0.0911348
0.0560906
0.0300574
0.0147831
0.00700066
0.00348254
0.00199822
0.00142759
0.00124666
0.0011572
0.00113466
0.450366
0.435559
0.421951
0.408859
0.395945
0.382923
0.36954
0.355571
0.340802
0.32503
0.308054
0.289672
0.269679
0.24785
0.22389
0.197271
0.166834
0.134524
0.0995742
0.0656546
0.0388569
0.0205514
0.0104175
0.00514845
0.00275934
0.00178152
0.00138359
0.00126998
0.00118577
0.405965
0.393737
0.382423
0.371477
0.360648
0.349713
0.338461
0.326695
0.314222
0.300857
0.286413
0.270702
0.253533
0.234701
0.213967
0.191084
0.164855
0.135148
0.104483
0.0736406
0.0467501
0.0273134
0.0146601
0.00781093
0.0041117
0.0023885
0.00165937
0.00137825
0.00130582
0.362119
0.352163
0.342878
0.333849
0.324901
0.31586
0.306551
0.2968
0.286433
0.275276
0.263159
0.249907
0.235342
0.219288
0.201525
0.181796
0.159819
0.133808
0.105799
0.0785918
0.0537014
0.0335807
0.0198704
0.010962
0.00619447
0.00346282
0.00221696
0.00161908
0.00140888
0.319115
0.311135
0.30363
0.296301
0.289037
0.281706
0.274158
0.266236
0.25778
0.248631
0.238629
0.227612
0.21542
0.201894
0.186846
0.170047
0.151174
0.129822
0.10489
0.0806299
0.0582295
0.0393906
0.0247448
0.0151206
0.00860183
0.00517274
0.00305686
0.00208574
0.00161927
0.277251
0.270967
0.265003
0.259171
0.25341
0.247614
0.241652
0.235378
0.228641
0.221295
0.213191
0.204174
0.194111
0.182857
0.17024
0.156083
0.140058
0.122274
0.10188
0.0796354
0.060151
0.0431147
0.0294895
0.0189455
0.012112
0.00716669
0.00460587
0.00283905
0.00201634
0.23682
0.23197
0.227325
0.222806
0.21838
0.213958
0.209414
0.204609
0.1994
0.19365
0.187222
0.179961
0.17177
0.162513
0.15206
0.140192
0.126768
0.11179
0.0956492
0.0776062
0.0594539
0.044621
0.0325838
0.0227205
0.0152029
0.0101047
0.00618008
0.00421736
0.00274911
0.198115
0.19445
0.190916
0.187546
0.184305
0.181106
0.177819
0.174307
0.170431
0.166068
0.161079
0.155327
0.148754
0.141192
0.132603
0.122737
0.111579
0.0990753
0.0857928
0.0723787
0.0579023
0.0440515
0.0334361
0.0252251
0.0183691
0.0129024
0.0089902
0.00571611
0.00377591
0.161419
0.158696
0.156084
0.153724
0.151535
0.149421
0.147228
0.144827
0.142083
0.138893
0.135085
0.130605
0.125377
0.119232
0.112177
0.104049
0.0948181
0.0845683
0.0738536
0.062901
0.0531196
0.0425806
0.0328977
0.0252281
0.0197981
0.0152049
0.0112654
0.00839805
0.00584897
0.12701
0.124982
0.123127
0.121676
0.120415
0.119251
0.117979
0.116502
0.114679
0.112438
0.109544
0.106099
0.101972
0.0969143
0.0911574
0.0844897
0.0768751
0.0687144
0.0602783
0.0520864
0.0442569
0.0379568
0.0313013
0.024765
0.0196572
0.0159864
0.0127545
0.0101944
0.00693788
0.0951702
0.0935771
0.0923517
0.0917471
0.0912898
0.0909392
0.0903958
0.0896411
0.0885314
0.087002
0.0847392
0.0821626
0.0788598
0.0746381
0.0699409
0.0645518
0.0584012
0.0521284
0.0454932
0.0390779
0.0338935
0.0295147
0.0265622
0.0226871
0.0190122
0.0156462
0.0136285
0.0119484
0.0109
0.0662063
0.0647865
0.0641182
0.0643273
0.064527
0.0648376
0.0648173
0.0645759
0.0639773
0.063007
0.0610182
0.0591754
0.0566143
0.0527239
0.0489208
0.0449571
0.0403988
0.0360829
0.0323959
0.0295633
0.0244254
0.0192963
0.0166327
0.0150391
0.0139615
0.0121768
0.0113754
0.0103363
0.00977203
0.0405304
0.0390522
0.0389523
0.0399206
0.0406021
0.041456
0.0416271
0.0417044
0.0413831
0.0407637
0.038939
0.03793
0.0361128
0.0336182
0.0305591
0.0257071
0.0210262
0.016575
0.0136857
0.011772
0.0100038
0.00958203
0.00861464
0.00786872
0.00804551
0.00761387
0.00777721
0.00673714
0.00616815
0.0190697
0.0176004
0.0180742
0.0198694
0.0206425
0.0218102
0.0219126
0.0222955
0.0222937
0.022018
0.0190766
0.0175855
0.0152698
0.0128031
0.0103795
0.00986559
0.0100015
0.00994914
0.011537
0.0137034
0.0174327
0.021218
0.0256048
0.0308077
0.0344447
0.040076
0.0411685
0.0439411
0.0382487
0.00580268
0.00516869
0.00574863
0.00738032
0.00775509
0.00860786
0.00822982
0.00836211
0.00778798
0.00720651
0.00739976
0.00780788
0.00922069
0.0108515
0.0149407
0.0191851
0.0252629
0.031858
0.0402416
0.0488186
0.0583723
0.0688514
0.0784712
0.0916511
0.0998085
0.116517
0.121597
0.143569
0.128399
0.00186762
0.00183554
0.00210667
0.00271043
0.00366757
0.00394798
0.00522736
0.00560427
0.00684801
0.00946842
0.0135746
0.0174783
0.0237833
0.0307573
0.0391007
0.0480418
0.0579388
0.0688486
0.0806493
0.0937853
0.106912
0.122671
0.136641
0.156617
0.170363
0.197957
0.208509
0.253116
0.243729
0.0012987
0.00144969
0.00175957
0.00235666
0.00501292
0.00595617
0.0100073
0.011743
0.0161537
0.021635
0.0279852
0.035265
0.0434942
0.0534021
0.064102
0.0757978
0.0881966
0.102127
0.116753
0.133402
0.150003
0.17002
0.188468
0.213881
0.233813
0.269272
0.28947
0.344411
0.345182
5.80605e-005
5.80605e-005
5.80605e-005
5.80605e-005
5.80605e-005
5.80605e-005
5.80605e-005
5.80605e-005
5.80605e-005
5.80605e-005
5.80605e-005
5.80605e-005
5.80605e-005
5.80605e-005
5.80605e-005
5.80606e-005
5.80606e-005
5.80606e-005
5.80606e-005
5.80606e-005
5.80606e-005
5.80606e-005
5.80607e-005
5.80607e-005
5.80607e-005
5.80607e-005
5.80607e-005
5.80608e-005
5.80608e-005
5.80608e-005
5.80608e-005
5.80609e-005
5.80609e-005
5.80609e-005
5.80609e-005
5.8061e-005
5.8061e-005
5.8061e-005
5.8061e-005
5.80611e-005
5.80611e-005
5.80611e-005
5.80611e-005
5.80611e-005
5.80612e-005
5.80612e-005
5.80612e-005
5.80612e-005
5.80612e-005
5.80612e-005
5.80612e-005
5.80612e-005
5.80613e-005
5.80613e-005
5.80613e-005
5.80613e-005
5.80613e-005
5.80613e-005
5.80613e-005
5.80613e-005
5.80613e-005
5.80614e-005
5.80614e-005
5.80614e-005
5.80614e-005
5.80614e-005
5.80614e-005
5.80614e-005
5.80614e-005
5.80615e-005
5.80615e-005
5.80615e-005
5.80615e-005
5.80615e-005
5.80615e-005
5.80615e-005
5.80615e-005
5.80615e-005
5.80615e-005
5.80615e-005
5.80616e-005
5.80616e-005
5.80616e-005
5.80616e-005
5.80616e-005
5.80616e-005
5.80616e-005
5.80616e-005
5.80616e-005
5.80616e-005
5.80616e-005
5.80616e-005
5.80616e-005
5.80616e-005
5.80616e-005
5.80616e-005
5.80616e-005
5.80616e-005
5.80617e-005
5.80617e-005
5.80617e-005
5.80617e-005
5.80617e-005
5.80617e-005
5.80617e-005
5.80618e-005
5.80618e-005
5.80618e-005
5.80618e-005
5.80618e-005
5.80618e-005
5.80618e-005
5.80618e-005
5.80618e-005
5.80617e-005
5.80617e-005
5.80617e-005
5.80616e-005
5.80616e-005
5.80616e-005
5.80617e-005
5.80617e-005
5.80617e-005
5.80617e-005
5.80617e-005
5.80617e-005
5.80617e-005
5.80617e-005
5.80617e-005
5.80617e-005
5.80619e-005
5.80618e-005
5.8062e-005
5.80621e-005
5.8062e-005
5.80623e-005
5.80623e-005
5.80634e-005
5.93283e-005
4.6078e-006
4.60785e-006
4.60788e-006
4.60791e-006
4.60792e-006
4.60794e-006
4.60794e-006
4.60795e-006
4.60796e-006
4.60797e-006
4.60798e-006
4.60799e-006
4.608e-006
4.60802e-006
4.60804e-006
4.60807e-006
4.60809e-006
4.60812e-006
4.60814e-006
4.60817e-006
4.60821e-006
4.60825e-006
4.60829e-006
4.60833e-006
4.60838e-006
4.60843e-006
4.60848e-006
4.60854e-006
4.6086e-006
4.60865e-006
4.60872e-006
4.60878e-006
4.60885e-006
4.60891e-006
4.60898e-006
4.60905e-006
4.60911e-006
4.60917e-006
4.60923e-006
4.60929e-006
4.60934e-006
4.60939e-006
4.60944e-006
4.60949e-006
4.60954e-006
4.60958e-006
4.60962e-006
4.60966e-006
4.6097e-006
4.60974e-006
4.60977e-006
4.6098e-006
4.60984e-006
4.60987e-006
4.6099e-006
4.60993e-006
4.60997e-006
4.61e-006
4.61004e-006
4.61008e-006
4.61012e-006
4.61016e-006
4.61021e-006
4.61025e-006
4.61029e-006
4.61032e-006
4.61036e-006
4.61039e-006
4.61043e-006
4.61046e-006
4.61049e-006
4.61052e-006
4.61055e-006
4.61058e-006
4.61061e-006
4.61063e-006
4.61066e-006
4.61069e-006
4.61071e-006
4.61073e-006
4.61075e-006
4.61077e-006
4.61079e-006
4.61081e-006
4.61082e-006
4.61083e-006
4.61084e-006
4.61085e-006
4.61085e-006
4.61085e-006
4.61086e-006
4.61087e-006
4.61088e-006
4.6109e-006
4.61092e-006
4.61094e-006
4.61097e-006
4.611e-006
4.61102e-006
4.61105e-006
4.61108e-006
4.61111e-006
4.61114e-006
4.61117e-006
4.6112e-006
4.61122e-006
4.61125e-006
4.61128e-006
4.6113e-006
4.61132e-006
4.61133e-006
4.61131e-006
4.61126e-006
4.61119e-006
4.61111e-006
4.61102e-006
4.61093e-006
4.61087e-006
4.61084e-006
4.61085e-006
4.61087e-006
4.61088e-006
4.61089e-006
4.6109e-006
4.61087e-006
4.6109e-006
4.61083e-006
4.61087e-006
4.61094e-006
4.61083e-006
4.61122e-006
4.61106e-006
4.61136e-006
4.61185e-006
4.61143e-006
4.6121e-006
4.61705e-006
4.59482e-006
4.72633e-006
7.24033e-007
7.24072e-007
7.241e-007
7.24124e-007
7.24146e-007
7.24167e-007
7.24186e-007
7.24204e-007
7.24221e-007
7.24238e-007
7.24254e-007
7.24271e-007
7.24287e-007
7.24304e-007
7.24321e-007
7.24339e-007
7.24356e-007
7.24375e-007
7.24394e-007
7.24414e-007
7.24435e-007
7.24456e-007
7.24479e-007
7.24502e-007
7.24526e-007
7.2455e-007
7.24576e-007
7.24602e-007
7.24628e-007
7.24655e-007
7.24683e-007
7.24712e-007
7.2474e-007
7.24769e-007
7.248e-007
7.24833e-007
7.24866e-007
7.249e-007
7.24933e-007
7.24966e-007
7.25e-007
7.25033e-007
7.25066e-007
7.25098e-007
7.25131e-007
7.25164e-007
7.25197e-007
7.25229e-007
7.25261e-007
7.25294e-007
7.25327e-007
7.25359e-007
7.25391e-007
7.25423e-007
7.25455e-007
7.25487e-007
7.25519e-007
7.25551e-007
7.25582e-007
7.25614e-007
7.25645e-007
7.25676e-007
7.25706e-007
7.25735e-007
7.25764e-007
7.25793e-007
7.25821e-007
7.25848e-007
7.25874e-007
7.259e-007
7.25925e-007
7.2595e-007
7.25975e-007
7.25998e-007
7.26022e-007
7.26044e-007
7.26066e-007
7.26088e-007
7.26109e-007
7.2613e-007
7.2615e-007
7.2617e-007
7.26189e-007
7.26208e-007
7.26227e-007
7.26245e-007
7.26263e-007
7.26282e-007
7.26294e-007
7.26301e-007
7.26307e-007
7.26312e-007
7.26317e-007
7.26321e-007
7.26325e-007
7.26328e-007
7.26331e-007
7.26333e-007
7.26334e-007
7.26335e-007
7.26334e-007
7.26333e-007
7.2633e-007
7.26326e-007
7.26321e-007
7.26315e-007
7.26308e-007
7.26298e-007
7.26287e-007
7.26274e-007
7.26262e-007
7.26245e-007
7.26217e-007
7.26183e-007
7.26149e-007
7.26113e-007
7.26075e-007
7.26038e-007
7.26012e-007
7.25994e-007
7.25976e-007
7.25959e-007
7.25934e-007
7.25913e-007
7.2588e-007
7.25835e-007
7.25828e-007
7.25744e-007
7.25766e-007
7.25717e-007
7.2575e-007
7.25755e-007
7.25603e-007
7.25731e-007
7.28258e-007
7.27532e-007
6.15151e-007
1.10449e-006
0.000281307
2.13006e-007
2.13027e-007
2.13046e-007
2.13063e-007
2.1308e-007
2.13097e-007
2.13113e-007
2.13128e-007
2.13144e-007
2.13159e-007
2.13174e-007
2.1319e-007
2.13205e-007
2.13221e-007
2.13237e-007
2.13253e-007
2.1327e-007
2.13286e-007
2.13303e-007
2.1332e-007
2.13338e-007
2.13355e-007
2.13373e-007
2.13391e-007
2.13409e-007
2.13428e-007
2.13446e-007
2.13465e-007
2.13484e-007
2.13503e-007
2.13523e-007
2.13542e-007
2.13562e-007
2.13582e-007
2.13602e-007
2.13623e-007
2.13643e-007
2.13664e-007
2.13685e-007
2.13706e-007
2.13727e-007
2.13748e-007
2.13769e-007
2.1379e-007
2.13811e-007
2.13832e-007
2.13854e-007
2.13874e-007
2.13895e-007
2.13916e-007
2.13937e-007
2.13958e-007
2.13979e-007
2.14e-007
2.1402e-007
2.14041e-007
2.14061e-007
2.14082e-007
2.14102e-007
2.14121e-007
2.1414e-007
2.14159e-007
2.14177e-007
2.14195e-007
2.14213e-007
2.1423e-007
2.14247e-007
2.14264e-007
2.1428e-007
2.14296e-007
2.14312e-007
2.14327e-007
2.14342e-007
2.14357e-007
2.14371e-007
2.14385e-007
2.14399e-007
2.14412e-007
2.14425e-007
2.14438e-007
2.1445e-007
2.14462e-007
2.14474e-007
2.14485e-007
2.14496e-007
2.14506e-007
2.14516e-007
2.14525e-007
2.14533e-007
2.1454e-007
2.14546e-007
2.14551e-007
2.14555e-007
2.14558e-007
2.14561e-007
2.14563e-007
2.14564e-007
2.14564e-007
2.14563e-007
2.14561e-007
2.14558e-007
2.14555e-007
2.14551e-007
2.14546e-007
2.1454e-007
2.14533e-007
2.14526e-007
2.14518e-007
2.14509e-007
2.14499e-007
2.14489e-007
2.14479e-007
2.14468e-007
2.14455e-007
2.1444e-007
2.14424e-007
2.14407e-007
2.14388e-007
2.14371e-007
2.14354e-007
2.14335e-007
2.14315e-007
2.14294e-007
2.14267e-007
2.14241e-007
2.14206e-007
2.14173e-007
2.14144e-007
2.1409e-007
2.141e-007
2.14066e-007
2.13793e-007
2.15013e-007
2.17168e-007
1.8698e-007
1.94715e-007
5.91374e-006
0.00107022
0.0272082
1.0574e-007
1.05755e-007
1.0577e-007
1.05786e-007
1.058e-007
1.05815e-007
1.0583e-007
1.05845e-007
1.05859e-007
1.05874e-007
1.05889e-007
1.05904e-007
1.05919e-007
1.05934e-007
1.05949e-007
1.05965e-007
1.05981e-007
1.05996e-007
1.06012e-007
1.06029e-007
1.06045e-007
1.06062e-007
1.06079e-007
1.06096e-007
1.06113e-007
1.06131e-007
1.06149e-007
1.06167e-007
1.06185e-007
1.06203e-007
1.06221e-007
1.0624e-007
1.06258e-007
1.06277e-007
1.06295e-007
1.06314e-007
1.06333e-007
1.06351e-007
1.0637e-007
1.06389e-007
1.06407e-007
1.06426e-007
1.06445e-007
1.06463e-007
1.06482e-007
1.065e-007
1.06519e-007
1.06537e-007
1.06555e-007
1.06573e-007
1.06591e-007
1.06609e-007
1.06626e-007
1.06644e-007
1.06661e-007
1.06678e-007
1.06695e-007
1.06712e-007
1.06728e-007
1.06744e-007
1.0676e-007
1.06775e-007
1.0679e-007
1.06805e-007
1.0682e-007
1.06835e-007
1.06849e-007
1.06863e-007
1.06877e-007
1.0689e-007
1.06903e-007
1.06916e-007
1.06929e-007
1.06941e-007
1.06953e-007
1.06965e-007
1.06976e-007
1.06987e-007
1.06997e-007
1.07008e-007
1.07018e-007
1.07027e-007
1.07036e-007
1.07045e-007
1.07053e-007
1.07061e-007
1.07069e-007
1.07076e-007
1.07083e-007
1.0709e-007
1.07096e-007
1.07102e-007
1.07107e-007
1.07112e-007
1.07116e-007
1.07119e-007
1.07122e-007
1.07124e-007
1.07125e-007
1.07126e-007
1.07126e-007
1.07125e-007
1.07123e-007
1.07121e-007
1.07119e-007
1.07115e-007
1.07111e-007
1.07107e-007
1.07101e-007
1.07095e-007
1.07088e-007
1.07081e-007
1.07075e-007
1.07068e-007
1.0706e-007
1.07052e-007
1.07042e-007
1.07031e-007
1.07019e-007
1.07006e-007
1.06991e-007
1.06974e-007
1.06956e-007
1.06933e-007
1.06908e-007
1.06883e-007
1.06843e-007
1.06825e-007
1.06785e-007
1.06752e-007
1.06993e-007
1.09023e-007
1.02271e-007
8.77649e-008
2.98904e-007
1.77529e-005
0.00136338
0.0299273
0.158777
6.40153e-008
6.40472e-008
6.40712e-008
6.4089e-008
6.41062e-008
6.41276e-008
6.41461e-008
6.41652e-008
6.41848e-008
6.42046e-008
6.42251e-008
6.42465e-008
6.42678e-008
6.42897e-008
6.43122e-008
6.43353e-008
6.4359e-008
6.4383e-008
6.44078e-008
6.44329e-008
6.44585e-008
6.44846e-008
6.4511e-008
6.45378e-008
6.4565e-008
6.45924e-008
6.46203e-008
6.46483e-008
6.46767e-008
6.47053e-008
6.47343e-008
6.47633e-008
6.47925e-008
6.48218e-008
6.48514e-008
6.48812e-008
6.4911e-008
6.49409e-008
6.49708e-008
6.50005e-008
6.50303e-008
6.50599e-008
6.50895e-008
6.5119e-008
6.51485e-008
6.51776e-008
6.52067e-008
6.52356e-008
6.52645e-008
6.5293e-008
6.53212e-008
6.53493e-008
6.53771e-008
6.54047e-008
6.5432e-008
6.54591e-008
6.54857e-008
6.5512e-008
6.5538e-008
6.55635e-008
6.55888e-008
6.56139e-008
6.56387e-008
6.5663e-008
6.5687e-008
6.57106e-008
6.57338e-008
6.57565e-008
6.57788e-008
6.58008e-008
6.58222e-008
6.58433e-008
6.58641e-008
6.58842e-008
6.59039e-008
6.59232e-008
6.59418e-008
6.59605e-008
6.59783e-008
6.59957e-008
6.60126e-008
6.60292e-008
6.60451e-008
6.60607e-008
6.60759e-008
6.60903e-008
6.61042e-008
6.61174e-008
6.61303e-008
6.61432e-008
6.61555e-008
6.61674e-008
6.61787e-008
6.61897e-008
6.61999e-008
6.62094e-008
6.62183e-008
6.62264e-008
6.62341e-008
6.62408e-008
6.62465e-008
6.62517e-008
6.62562e-008
6.62599e-008
6.62631e-008
6.62659e-008
6.62663e-008
6.6267e-008
6.62673e-008
6.62666e-008
6.62643e-008
6.62612e-008
6.62583e-008
6.62551e-008
6.62509e-008
6.62458e-008
6.62397e-008
6.62327e-008
6.62243e-008
6.62142e-008
6.62029e-008
6.61889e-008
6.61747e-008
6.61538e-008
6.61334e-008
6.61085e-008
6.60788e-008
6.60499e-008
6.60411e-008
6.59508e-008
6.48081e-008
5.14722e-008
7.44331e-008
7.15273e-007
5.70328e-005
0.00277956
0.0430612
0.195641
0.4486
4.89026e-008
4.88856e-008
4.88833e-008
4.88821e-008
4.88897e-008
4.88814e-008
4.88769e-008
4.88762e-008
4.8874e-008
4.8873e-008
4.88704e-008
4.8868e-008
4.88657e-008
4.88635e-008
4.88623e-008
4.88588e-008
4.88556e-008
4.88526e-008
4.88507e-008
4.88474e-008
4.88446e-008
4.8841e-008
4.88376e-008
4.88349e-008
4.88319e-008
4.88292e-008
4.88259e-008
4.88228e-008
4.88199e-008
4.88172e-008
4.88141e-008
4.88113e-008
4.88092e-008
4.88063e-008
4.88036e-008
4.88011e-008
4.87989e-008
4.87972e-008
4.87947e-008
4.87923e-008
4.87906e-008