/*--------------------------------*- C++ -*----------------------------------*\
| =========                 |                                                 |
| \\      /  F ield         | OpenFOAM: The Open Source CFD Toolbox           |
|  \\    /   O peration     | Version:  5.x                                   |
|   \\  /    A nd           | Web:      www.OpenFOAM.org                      |
|    \\/     M anipulation  |                                                 |
\*---------------------------------------------------------------------------*/
/*   Windows 32 and 64 bit porting by blueCAPE: http://www.bluecape.com.pt   *\
|  Based on Windows porting (2.0.x v4) by Symscape: http://www.symscape.com   |
\*---------------------------------------------------------------------------*/
FoamFile
{
    version     2.0;
    format      ascii;
    class       volScalarField;
    location    "150";
    object      p;
}
// * * * * * * * * * * * * * * * * * * * * * * * * * * * * * * * * * * * * * //

dimensions      [0 2 -2 0 0 0 0];

internalField   nonuniform List<scalar> 
43900
(
0.405304
0.404945
0.404915
0.404784
0.404594
0.404346
0.404159
0.403817
0.403568
0.403256
0.402933
0.402608
0.402266
0.401913
0.40155
0.401179
0.4008
0.400413
0.400019
0.399619
0.399212
0.3988
0.398382
0.397959
0.397531
0.397099
0.396662
0.396221
0.395775
0.40319
0.411099
0.405103
0.408289
0.405874
0.40661
0.405738
0.405555
0.405148
0.404722
0.40433
0.403911
0.403491
0.403072
0.402652
0.402229
0.401803
0.401374
0.400943
0.400508
0.40007
0.399629
0.399185
0.398738
0.398287
0.397834
0.397377
0.396918
0.396456
0.396436
0.418054
0.406881
0.413263
0.408043
0.410715
0.408283
0.408684
0.407602
0.407215
0.406661
0.406132
0.405623
0.405125
0.404633
0.404146
0.403663
0.403184
0.402707
0.402232
0.401757
0.401282
0.400807
0.400331
0.399854
0.399375
0.398894
0.398411
0.397926
0.391622
0.418784
0.412216
0.412057
0.411694
0.41123
0.410079
0.410121
0.409288
0.408962
0.408402
0.4079
0.407402
0.406903
0.406403
0.405905
0.405407
0.404911
0.404415
0.403919
0.403424
0.402927
0.40243
0.401931
0.40143
0.400928
0.400424
0.399917
0.399407
0.393425
0.416779
0.411807
0.411221
0.411261
0.410871
0.410696
0.410449
0.409931
0.409636
0.40919
0.408779
0.408354
0.407913
0.407462
0.407002
0.406533
0.406056
0.405572
0.405082
0.404587
0.404086
0.40358
0.40307
0.402554
0.402035
0.401511
0.400984
0.400451
0.397856
0.415434
0.412407
0.412148
0.412074
0.411657
0.411444
0.411212
0.410978
0.41072
0.410374
0.410047
0.409693
0.409322
0.408939
0.408541
0.408128
0.407701
0.407262
0.406809
0.406344
0.405868
0.405381
0.404884
0.404377
0.40386
0.403335
0.4028
0.402258
0.404042
0.417222
0.415452
0.414959
0.41492
0.414781
0.414488
0.414083
0.413804
0.413559
0.413256
0.41295
0.412634
0.412304
0.411959
0.411598
0.411224
0.410834
0.41043
0.41001
0.409577
0.409128
0.408665
0.408188
0.407697
0.407192
0.406674
0.406143
0.405599
0.409761
0.421027
0.419775
0.419221
0.419103
0.419006
0.418827
0.418512
0.418161
0.417843
0.417546
0.417239
0.416912
0.416572
0.416216
0.415845
0.415458
0.415056
0.414638
0.414203
0.413753
0.413287
0.412806
0.412309
0.411796
0.411269
0.410726
0.410168
0.409596
0.417756
0.425713
0.425055
0.4245
0.424259
0.424077
0.423862
0.423594
0.423244
0.422806
0.4224
0.422029
0.42165
0.421254
0.420846
0.420421
0.41998
0.41952
0.419044
0.418549
0.418037
0.417508
0.41696
0.416397
0.415816
0.415219
0.414605
0.413975
0.413329
0.427093
0.431816
0.431498
0.430951
0.430598
0.430304
0.42999
0.429643
0.429254
0.42881
0.428307
0.427816
0.427346
0.426881
0.426401
0.425905
0.425388
0.424851
0.424292
0.423714
0.423115
0.422495
0.421858
0.421199
0.420523
0.419827
0.419112
0.418381
0.41763
0.43597
0.439997
0.439727
0.439151
0.438733
0.43837
0.437985
0.437565
0.437111
0.436621
0.436086
0.435517
0.434959
0.43443
0.433904
0.433358
0.43279
0.432188
0.431558
0.430902
0.430224
0.429519
0.428781
0.42803
0.427249
0.426441
0.42562
0.42477
0.4239
0.446594
0.449448
0.449209
0.448649
0.448197
0.447786
0.447353
0.446886
0.446383
0.445843
0.445265
0.444652
0.444022
0.443408
0.442838
0.44226
0.441647
0.440996
0.440301
0.439582
0.438833
0.438036
0.437218
0.436369
0.435484
0.434577
0.433631
0.432669
0.43168
0.458256
0.460053
0.459795
0.459246
0.458756
0.458285
0.457781
0.457235
0.456644
0.456005
0.455315
0.454575
0.453813
0.45306
0.452351
0.451666
0.450958
0.450195
0.449399
0.448581
0.447706
0.446803
0.44586
0.444887
0.443886
0.442832
0.441768
0.440666
0.439525
0.470842
0.4719
0.471579
0.471014
0.470473
0.46993
0.469344
0.468703
0.468002
0.467239
0.466409
0.46551
0.46456
0.463599
0.462704
0.461867
0.460988
0.460066
0.459118
0.458113
0.457081
0.455986
0.454874
0.453734
0.452521
0.451302
0.450036
0.448729
0.447409
0.484383
0.485008
0.484611
0.484006
0.483404
0.482785
0.482115
0.481378
0.480568
0.479682
0.478712
0.477651
0.476516
0.475382
0.474272
0.473236
0.472202
0.471111
0.469962
0.468777
0.467519
0.466242
0.464923
0.463529
0.46213
0.460668
0.459163
0.457644
0.456066
0.498903
0.499304
0.498837
0.498179
0.497508
0.496806
0.496043
0.495205
0.494282
0.49327
0.49216
0.49095
0.489643
0.48829
0.487022
0.485817
0.484585
0.48331
0.481987
0.480578
0.479143
0.477648
0.476076
0.47449
0.472835
0.471122
0.469391
0.467599
0.465765
0.5144
0.514701
0.514168
0.513444
0.512698
0.511909
0.511044
0.510092
0.509044
0.507893
0.506631
0.505247
0.503751
0.502204
0.500694
0.499271
0.497856
0.496377
0.494824
0.49321
0.49154
0.489787
0.487991
0.486142
0.484215
0.482255
0.48024
0.478163
0.476043
0.530868
0.531144
0.530547
0.529745
0.528912
0.528024
0.527047
0.525964
0.524768
0.52345
0.522
0.520407
0.518673
0.516881
0.515137
0.513462
0.511808
0.510085
0.508258
0.506399
0.504447
0.5024
0.500347
0.498186
0.495939
0.493695
0.491343
0.488928
0.486543
0.548246
0.548551
0.547889
0.546996
0.546062
0.545061
0.543955
0.542726
0.541364
0.539858
0.538202
0.53639
0.534428
0.532374
0.530307
0.528381
0.526452
0.524391
0.522329
0.52017
0.517828
0.515574
0.513151
0.51056
0.508096
0.505438
0.502683
0.500027
0.49716
0.56651
0.566876
0.566148
0.565157
0.564116
0.562996
0.561755
0.560373
0.558837
0.55714
0.55527
0.553214
0.550963
0.548554
0.546236
0.543955
0.541633
0.539385
0.537019
0.53436
0.531845
0.529125
0.526203
0.523499
0.520499
0.5174
0.514429
0.51122
0.507947
0.585572
0.58602
0.585225
0.584128
0.582971
0.581722
0.580333
0.578779
0.577048
0.575126
0.573001
0.570657
0.568101
0.56543
0.562667
0.560011
0.557569
0.554893
0.551963
0.549162
0.546144
0.542961
0.539893
0.536563
0.533156
0.529795
0.526227
0.522601
0.519011
0.605304
0.605855
0.604988
0.603777
0.602497
0.601109
0.599558
0.59782
0.595879
0.593723
0.591343
0.588727
0.58586
0.582785
0.579768
0.576817
0.573756
0.570645
0.567543
0.564186
0.560755
0.557301
0.553652
0.549909
0.546078
0.542143
0.538163
0.53412
0.529931
0.62561
0.626273
0.625335
0.62401
0.622606
0.621079
0.619368
0.617446
0.615297
0.612908
0.610263
0.607349
0.604164
0.600744
0.597177
0.593679
0.590348
0.58695
0.583255
0.579502
0.575602
0.571593
0.567496
0.563203
0.558881
0.554491
0.549954
0.545307
0.540547
0.646334
0.647117
0.646111
0.644672
0.643142
0.641474
0.639598
0.637482
0.63511
0.632464
0.629527
0.626278
0.622692
0.618802
0.614875
0.611052
0.607207
0.603184
0.599169
0.594871
0.590439
0.585936
0.581259
0.576572
0.571657
0.566598
0.561539
0.556329
0.551116
0.667283
0.668198
0.667123
0.66557
0.663913
0.662099
0.660053
0.657739
0.655136
0.652228
0.648995
0.64542
0.641498
0.637265
0.632841
0.628344
0.624031
0.619701
0.615036
0.610246
0.605308
0.600205
0.595019
0.589641
0.584161
0.578566
0.572853
0.567044
0.561075
0.688316
0.689365
0.688227
0.686566
0.68479
0.682839
0.68063
0.678123
0.675298
0.672132
0.668609
0.664704
0.660386
0.655681
0.650795
0.645915
0.641035
0.636037
0.630888
0.625468
0.619979
0.614287
0.608463
0.602519
0.596331
0.590088
0.583686
0.577127
0.570615
0.709225
0.71041
0.709214
0.707454
0.705568
0.703488
0.701124
0.698436
0.695398
0.691989
0.688187
0.683971
0.679328
0.67424
0.668781
0.66327
0.657794
0.652212
0.646472
0.640616
0.634419
0.6281
0.621587
0.614899
0.608196
0.601164
0.594035
0.586968
0.57974
0.729833
0.731151
0.729905
0.728057
0.726072
0.723874
0.721367
0.718506
0.715264
0.711615
0.707535
0.702993
0.697952
0.692417
0.686567
0.680432
0.674327
0.668245
0.661906
0.655232
0.64844
0.641516
0.634312
0.626914
0.619328
0.611677
0.60392
0.595949
0.587696
0.749951
0.751395
0.750108
0.748186
0.746115
0.743814
0.741179
0.738161
0.734732
0.730861
0.726522
0.721686
0.716324
0.71039
0.703934
0.697377
0.690631
0.683711
0.676811
0.669814
0.662186
0.654332
0.646359
0.638313
0.630088
0.621494
0.612728
0.603929
0.5951
0.769411
0.770969
0.76965
0.767667
0.765527
0.763138
0.760391
0.757234
0.753635
0.749559
0.744975
0.739851
0.734152
0.727865
0.721044
0.713758
0.706495
0.699117
0.691354
0.683364
0.675218
0.666733
0.65806
0.649076
0.639849
0.630638
0.621164
0.611383
0.601535
0.788058
0.789713
0.788371
0.786348
0.784157
0.7817
0.778863
0.775593
0.771853
0.767607
0.762822
0.757467
0.751501
0.74487
0.737595
0.729952
0.721904
0.713633
0.705301
0.696797
0.687784
0.678483
0.668951
0.659122
0.649166
0.639005
0.628529
0.61783
0.607093
0.80576
0.807491
0.806137
0.80409
0.801867
0.799361
0.796457
0.793097
0.789243
0.784856
0.779899
0.774333
0.768116
0.761206
0.753579
0.745245
0.736632
0.727878
0.718763
0.709371
0.699741
0.68957
0.67918
0.668478
0.65759
0.646488
0.634954
0.623257
0.611348
0.822411
0.824191
0.822835
0.820781
0.818544
0.816007
0.813054
0.809626
0.805681
0.801177
0.796071
0.790321
0.783871
0.776656
0.768654
0.760077
0.750716
0.741397
0.731706
0.721277
0.710746
0.700025
0.68868
0.67704
0.66504
0.652739
0.64024
0.627516
0.614621
0.837934
0.839735
0.838384
0.836341
0.834106
0.831558
0.828578
0.825108
0.821102
0.816516
0.811302
0.805412
0.798797
0.791395
0.783119
0.774069
0.764525
0.754163
0.743592
0.732656
0.721196
0.709472
0.697259
0.68456
0.671658
0.658267
0.644649
0.630912
0.616697
0.85228
0.854069
0.852731
0.850715
0.848498
0.845955
0.842968
0.839478
0.835437
0.830797
0.825502
0.819501
0.812743
0.805166
0.79669
0.787269
0.777073
0.766322
0.755049
0.74335
0.731073
0.718273
0.705033
0.691402
0.677307
0.662864
0.647949
0.632749
0.617446
0.865428
0.867172
0.865854
0.863878
0.861693
0.859169
0.856191
0.8527
0.848645
0.843974
0.83863
0.832557
0.825698
0.817976
0.809309
0.79963
0.789162
0.777818
0.765886
0.753392
0.740116
0.726237
0.711962
0.697243
0.681983
0.666202
0.650185
0.633623
0.616854
0.877383
0.879049
0.877755
0.875832
0.87369
0.871199
0.868246
0.864772
0.860726
0.856052
0.850691
0.844581
0.837656
0.829846
0.821066
0.811206
0.80028
0.788563
0.775793
0.762425
0.748493
0.733651
0.718224
0.702282
0.68571
0.668688
0.651139
0.633125
0.614749
0.888171
0.889727
0.888464
0.886603
0.884515
0.882067
0.879153
0.875713
0.871697
0.867044
0.861691
0.855567
0.848602
0.840718
0.831829
0.821825
0.810657
0.79834
0.785189
0.77108
0.756183
0.740547
0.723892
0.706456
0.688503
0.669943
0.650837
0.631143
0.611148
0.897837
0.899256
0.898026
0.896236
0.89421
0.891815
0.888952
0.885562
0.881591
0.876978
0.871654
0.865544
0.858573
0.850654
0.841684
0.831553
0.820185
0.807651
0.793866
0.779141
0.763211
0.746291
0.728684
0.709981
0.69047
0.67028
0.649339
0.628012
0.606086
0.90644
0.907696
0.906504
0.904793
0.902835
0.900502
0.8977
0.894374
0.890467
0.885913
0.88064
0.874571
0.867619
0.859692
0.850689
0.840478
0.82894
0.816011
0.801897
0.786241
0.769507
0.751654
0.732772
0.712822
0.691563
0.669582
0.646749
0.623309
0.599534
0.914048
0.915121
0.913972
0.912344
0.910461
0.908198
0.905469
0.90222
0.898392
0.893916
0.888716
0.882709
0.875801
0.867891
0.858867
0.848593
0.836941
0.823756
0.809097
0.793073
0.775423
0.756533
0.736193
0.714589
0.691784
0.667817
0.643024
0.617276
0.591077
0.920736
0.921612
0.920509
0.91897
0.917166
0.914981
0.912336
0.909177
0.905443
0.901064
0.895957
0.890034
0.883194
0.875324
0.866304
0.855986
0.844211
0.830904
0.815885
0.799178
0.780877
0.760789
0.738998
0.715694
0.691057
0.665074
0.63794
0.60983
0.580951
0.926582
0.927251
0.926199
0.924753
0.923033
0.920932
0.918381
0.915325
0.911702
0.907436
0.902443
0.896626
0.889876
0.882073
0.87308
0.86275
0.850893
0.837332
0.822063
0.804875
0.785604
0.764534
0.741304
0.716286
0.689673
0.661183
0.631502
0.600574
0.568882
0.931662
0.93212
0.931126
0.929775
0.928143
0.926134
0.923687
0.920747
0.917249
0.913115
0.908255
0.902564
0.895927
0.888212
0.879271
0.86894
0.857021
0.843327
0.827608
0.809991
0.790035
0.76768
0.743241
0.716262
0.687384
0.656404
0.623605
0.589747
0.554632
0.936051
0.936302
0.935371
0.934117
0.932577
0.930667
0.928334
0.925521
0.922163
0.918177
0.913468
0.907925
0.901421
0.893815
0.884944
0.874631
0.862656
0.848813
0.832886
0.814528
0.794038
0.770551
0.744525
0.71577
0.684262
0.650525
0.614628
0.576958
0.53836
0.939821
0.939872
0.939012
0.937856
0.93641
0.934606
0.932395
0.929721
0.926516
0.922694
0.918154
0.912776
0.906426
0.898949
0.890169
0.879887
0.867873
0.853874
0.837665
0.818905
0.797437
0.773068
0.745361
0.714582
0.680611
0.643635
0.604237
0.562495
0.519309
0.943037
0.942905
0.942121
0.941063
0.939713
0.93802
0.93594
0.933415
0.930374
0.926729
0.922374
0.917178
0.910998
0.90367
0.895
0.88476
0.872723
0.858567
0.842072
0.822856
0.800595
0.775052
0.745869
0.712922
0.676209
0.635884
0.592296
0.546002
0.497833
0.94576
0.945466
0.944767
0.943803
0.942551
0.940973
0.939031
0.936663
0.933797
0.93034
0.926182
0.921178
0.915181
0.90802
0.899475
0.88929
0.877229
0.862964
0.846104
0.826517
0.803405
0.776827
0.745953
0.710778
0.67112
0.626971
0.578939
0.527203
0.473324
0.948047
0.947615
0.94701
0.946134
0.944981
0.943521
0.941724
0.939519
0.936835
0.933572
0.929623
0.924817
0.91901
0.91203
0.903618
0.893502
0.881424
0.867053
0.8499
0.829764
0.806085
0.778199
0.745845
0.708274
0.665442
0.61716
0.563908
0.506374
0.445387
0.94995
0.949407
0.948905
0.948106
0.947054
0.945714
0.944068
0.942028
0.939531
0.936466
0.932735
0.928123
0.922511
0.91572
0.907445
0.897398
0.885337
0.870821
0.853456
0.832777
0.808398
0.779451
0.745362
0.705618
0.659465
0.606598
0.547512
0.482805
0.414147
0.951507
0.950897
0.950499
0.949763
0.948815
0.947594
0.946106
0.944232
0.941924
0.939054
0.935549
0.931119
0.925703
0.9191
0.910965
0.900975
0.888951
0.874281
0.856739
0.835575
0.810482
0.780431
0.744868
0.702692
0.653284
0.595639
0.529824
0.456844
0.378149
0.952757
0.95214
0.95183
0.951143
0.950306
0.949201
0.947878
0.946164
0.944046
0.941362
0.938091
0.933817
0.928602
0.922172
0.914169
0.904227
0.89224
0.877398
0.859723
0.838121
0.812429
0.78133
0.744286
0.699908
0.64697
0.58432
0.511237
0.428181
0.337846
0.953737
0.953177
0.952926
0.952278
0.951562
0.950568
0.949418
0.947854
0.945922
0.943409
0.940373
0.936223
0.931213
0.924928
0.917057
0.907159
0.895151
0.880196
0.862306
0.840352
0.814102
0.782159
0.743834
0.697276
0.641245
0.573007
0.492085
0.397186
0.291725
0.954487
0.954036
0.953808
0.953199
0.952616
0.951727
0.950753
0.949326
0.947571
0.945212
0.942398
0.938344
0.933527
0.927328
0.91958
0.909724
0.897718
0.882654
0.864612
0.842209
0.815593
0.782765
0.743559
0.69493
0.636124
0.562419
0.472998
0.364637
0.239696
0.955042
0.954711
0.954484
0.953931
0.953484
0.952699
0.951894
0.950586
0.948991
0.946768
0.94414
0.940208
0.935544
0.929383
0.921727
0.911864
0.899832
0.884719
0.866422
0.843802
0.816606
0.783165
0.742867
0.692667
0.631091
0.552418
0.454102
0.329789
0.181369
0.95542
0.955167
0.954952
0.954483
0.954147
0.953484
0.952809
0.951615
0.950149
0.948066
0.945503
0.94178
0.93713
0.931014
0.92326
0.913338
0.901032
0.88579
0.866917
0.844123
0.815955
0.78207
0.740048
0.688683
0.623605
0.540972
0.432447
0.289223
0.104963
0.955626
0.955404
0.955217
0.954853
0.954563
0.95404
0.953376
0.952332
0.950911
0.948917
0.946226
0.942678
0.937824
0.931652
0.923559
0.913501
0.900719
0.885218
0.865612
0.842404
0.813152
0.77856
0.734736
0.681735
0.613193
0.525973
0.407718
0.242701
0.00433356
0.955678
0.955463
0.955296
0.955075
0.954745
0.954363
0.953596
0.952648
0.9512
0.949207
0.946303
0.942702
0.937547
0.931117
0.92264
0.91225
0.899021
0.88307
0.862877
0.839025
0.808951
0.773309
0.728115
0.673028
0.601771
0.509428
0.384605
0.203158
-0.0919813
0.955697
0.955483
0.955335
0.955117
0.95475
0.954316
0.953461
0.952481
0.950758
0.94855
0.945408
0.941578
0.936041
0.929252
0.920443
0.909737
0.896073
0.879705
0.858895
0.834605
0.803646
0.76759
0.720786
0.66541
0.59064
0.498126
0.366426
0.19196
-0.016465
0.395246
0.39463
0.394008
0.393379
0.392745
0.392105
0.39146
0.39081
0.390155
0.389496
0.388832
0.388165
0.387493
0.386818
0.38614
0.385459
0.384774
0.384087
0.383397
0.382704
0.38201
0.381313
0.380614
0.379913
0.379211
0.378508
0.377803
0.377098
0.376391
0.375685
0.374977
0.37427
0.373562
0.372855
0.372148
0.371441
0.370736
0.370031
0.369328
0.368625
0.367925
0.367226
0.366529
0.365835
0.365143
0.364453
0.363767
0.363084
0.362404
0.361727
0.361055
0.360386
0.359722
0.359062
0.358407
0.357757
0.357112
0.356472
0.355838
0.355209
0.354586
0.35397
0.353359
0.352756
0.352158
0.351568
0.350985
0.350409
0.34984
0.349278
0.348725
0.348179
0.347642
0.347113
0.346592
0.346079
0.345576
0.345081
0.344595
0.344118
0.343651
0.343193
0.342745
0.342306
0.341877
0.341457
0.341048
0.340649
0.340261
0.339882
0.339514
0.339157
0.338811
0.338475
0.33815
0.337836
0.337533
0.33724
0.336959
0.336689
0.336429
0.336181
0.335944
0.335718
0.335502
0.335298
0.335104
0.334922
0.33475
0.334588
0.334437
0.334296
0.334165
0.334044
0.333933
0.333831
0.333739
0.333655
0.333581
0.333516
0.33346
0.333413
0.333374
0.333342
0.333318
0.333302
0.333289
0.333288
0.333286
0.333299
0.333311
0.333332
0.333361
0.333389
0.333434
0.33347
0.333545
0.333568
0.333724
0.395908
0.395271
0.39463
0.393983
0.393331
0.392674
0.392012
0.391345
0.390674
0.389997
0.389317
0.388631
0.387942
0.387249
0.386551
0.38585
0.385146
0.384438
0.383727
0.383013
0.382297
0.381578
0.380856
0.380133
0.379408
0.378681
0.377953
0.377224
0.376494
0.375763
0.375031
0.374299
0.373568
0.372836
0.372105
0.371375
0.370645
0.369917
0.36919
0.368465
0.367742
0.367021
0.366302
0.365586
0.364873
0.364162
0.363455
0.362752
0.362052
0.361356
0.360664
0.359976
0.359293
0.358614
0.357941
0.357272
0.356609
0.355951
0.355299
0.354653
0.354013
0.35338
0.352753
0.352132
0.351519
0.350913
0.350314
0.349723
0.349139
0.348563
0.347995
0.347436
0.346885
0.346342
0.345808
0.345283
0.344767
0.34426
0.343762
0.343274
0.342795
0.342327
0.341868
0.341419
0.340981
0.340552
0.340135
0.339727
0.339331
0.338945
0.338569
0.338205
0.337851
0.337508
0.337177
0.336856
0.336547
0.336249
0.335962
0.335687
0.335423
0.335171
0.33493
0.334701
0.334483
0.334277
0.334083
0.3339
0.333729
0.333569
0.333421
0.333285
0.33316
0.333047
0.332946
0.332856
0.332777
0.33271
0.332653
0.332607
0.332571
0.332544
0.332526
0.332517
0.332514
0.332521
0.332535
0.332544
0.33258
0.3326
0.332627
0.332655
0.332686
0.332702
0.332754
0.332726
0.332736
0.332687
0.332674
0.397352
0.396687
0.396018
0.395344
0.394664
0.39398
0.393291
0.392597
0.391898
0.391194
0.390486
0.389772
0.389054
0.388332
0.387605
0.386874
0.386138
0.385399
0.384655
0.383909
0.383158
0.382405
0.381648
0.380889
0.380128
0.379364
0.378598
0.377831
0.377062
0.376292
0.375521
0.37475
0.373978
0.373206
0.372435
0.371664
0.370894
0.370125
0.369357
0.36859
0.367826
0.367063
0.366303
0.365545
0.364791
0.364039
0.363291
0.362546
0.361805
0.361068
0.360336
0.359608
0.358885
0.358166
0.357454
0.356746
0.356044
0.355349
0.354659
0.353976
0.353299
0.35263
0.351967
0.351311
0.350663
0.350022
0.349389
0.348765
0.348148
0.34754
0.34694
0.346349
0.345767
0.345193
0.34463
0.344075
0.34353
0.342995
0.34247
0.341954
0.341449
0.340954
0.340469
0.339995
0.339531
0.339078
0.338636
0.338204
0.337784
0.337375
0.336977
0.33659
0.336215
0.335852
0.3355
0.33516
0.334833
0.334517
0.334213
0.333922
0.333643
0.333377
0.333123
0.332882
0.332654
0.332439
0.332237
0.332048
0.331873
0.331711
0.331562
0.331427
0.331306
0.331199
0.331106
0.331026
0.330961
0.330909
0.330871
0.330848
0.330837
0.33084
0.33086
0.330886
0.330939
0.330988
0.331064
0.33115
0.331237
0.331348
0.331467
0.331583
0.331701
0.331866
0.33183
0.332282
0.331931
0.333018
0.331723
0.398804
0.398104
0.397399
0.396687
0.39597
0.395247
0.394519
0.393784
0.393044
0.392298
0.391547
0.39079
0.390028
0.389261
0.38849
0.387713
0.386932
0.386147
0.385358
0.384564
0.383768
0.382967
0.382164
0.381357
0.380548
0.379736
0.378922
0.378106
0.377288
0.376469
0.375648
0.374827
0.374004
0.373181
0.372358
0.371535
0.370713
0.369891
0.36907
0.368251
0.367433
0.366616
0.365802
0.36499
0.364181
0.363375
0.362573
0.361773
0.360978
0.360187
0.3594
0.358619
0.357842
0.35707
0.356304
0.355544
0.35479
0.354042
0.353301
0.352567
0.35184
0.35112
0.350408
0.349703
0.349007
0.348318
0.347638
0.346967
0.346305
0.345651
0.345007
0.344373
0.343748
0.343133
0.342528
0.341933
0.341349
0.340775
0.340212
0.33966
0.339118
0.338588
0.33807
0.337563
0.337067
0.336584
0.336112
0.335652
0.335205
0.334771
0.334349
0.33394
0.333545
0.333162
0.332793
0.332437
0.332095
0.331767
0.331452
0.331151
0.330865
0.330593
0.330335
0.330092
0.329864
0.329651
0.329452
0.329269
0.329101
0.328949
0.328812
0.328691
0.328586
0.328497
0.328424
0.328367
0.328326
0.328303
0.328296
0.328306
0.328334
0.328381
0.328448
0.328532
0.328637
0.328772
0.328914
0.329084
0.329302
0.329512
0.329727
0.33018
0.329979
0.331225
0.329969
0.332956
0.329563
0.33582
0.327888
0.399819
0.399083
0.398338
0.397586
0.396826
0.396058
0.395282
0.394498
0.393706
0.392907
0.3921
0.391286
0.390465
0.389638
0.388803
0.387963
0.387116
0.386264
0.385407
0.384545
0.383678
0.382806
0.381931
0.381052
0.38017
0.379285
0.378397
0.377506
0.376614
0.37572
0.374824
0.373928
0.373031
0.372134
0.371236
0.370339
0.369443
0.368548
0.367655
0.366763
0.365874
0.364987
0.364102
0.363221
0.362343
0.361469
0.3606
0.359734
0.358873
0.358018
0.357167
0.356322
0.355483
0.35465
0.353823
0.353003
0.352191
0.351385
0.350587
0.349796
0.349014
0.348239
0.347474
0.346717
0.34597
0.345231
0.344502
0.343783
0.343074
0.342375
0.341686
0.341007
0.34034
0.339683
0.339038
0.338404
0.337781
0.337171
0.336572
0.335985
0.335411
0.33485
0.334301
0.333765
0.333242
0.332733
0.332237
0.331755
0.331287
0.330833
0.330394
0.329968
0.329557
0.32916
0.328778
0.328411
0.328059
0.327723
0.327401
0.327095
0.326805
0.32653
0.326271
0.326029
0.325803
0.325593
0.3254
0.325224
0.325064
0.324922
0.324798
0.324692
0.324604
0.324534
0.324484
0.324453
0.324442
0.324452
0.324483
0.324536
0.324613
0.324712
0.324837
0.324994
0.325169
0.325383
0.325641
0.325908
0.326172
0.326754
0.326613
0.328178
0.326803
0.330572
0.326302
0.334112
0.324273
0.339109
0.315391
0.401609
0.400848
0.400074
0.399288
0.398489
0.397677
0.396854
0.39602
0.395175
0.39432
0.393454
0.392579
0.391695
0.390802
0.3899
0.38899
0.388073
0.387147
0.386215
0.385276
0.38433
0.383379
0.382422
0.38146
0.380493
0.379522
0.378547
0.37757
0.376589
0.375607
0.374623
0.373637
0.372651
0.371664
0.370677
0.369691
0.368705
0.367721
0.366738
0.365757
0.364779
0.363804
0.362832
0.361864
0.360899
0.35994
0.358985
0.358035
0.35709
0.356152
0.355219
0.354293
0.353374
0.352462
0.351558
0.350661
0.349773
0.348893
0.348021
0.347159
0.346306
0.345462
0.344628
0.343804
0.342991
0.342187
0.341395
0.340613
0.339843
0.339084
0.338336
0.337601
0.336877
0.336166
0.335467
0.334781
0.334107
0.333446
0.332799
0.332165
0.331544
0.330937
0.330344
0.329764
0.329199
0.328648
0.328111
0.327588
0.32708
0.326587
0.326109
0.325646
0.325198
0.324765
0.324348
0.323946
0.32356
0.323191
0.322837
0.322501
0.32218
0.321877
0.32159
0.321321
0.321069
0.320835
0.320619
0.320422
0.320243
0.320083
0.319942
0.319821
0.319721
0.319642
0.319584
0.319548
0.319535
0.319545
0.31958
0.31964
0.319725
0.319838
0.319974
0.320144
0.32034
0.320551
0.3208
0.321161
0.321225
0.322059
0.321566
0.323262
0.321846
0.324647
0.322364
0.325995
0.321863
0.332823
0.301303
0.404944
0.40417
0.403376
0.402562
0.401729
0.400878
0.400009
0.399125
0.398225
0.397311
0.396383
0.395441
0.394487
0.393521
0.392543
0.391553
0.390553
0.389543
0.388525
0.387498
0.386463
0.385421
0.384373
0.383319
0.382259
0.381195
0.380126
0.379053
0.377976
0.376897
0.375815
0.37473
0.373644
0.372557
0.37147
0.370382
0.369295
0.368209
0.367125
0.366042
0.364962
0.363885
0.362812
0.361743
0.360678
0.359618
0.358563
0.357514
0.356471
0.355435
0.354406
0.353384
0.35237
0.351364
0.350366
0.349377
0.348397
0.347427
0.346466
0.345515
0.344574
0.343644
0.342725
0.341817
0.34092
0.340034
0.339161
0.3383
0.337451
0.336615
0.335792
0.334981
0.334184
0.3334
0.33263
0.331874
0.331131
0.330403
0.329688
0.328989
0.328303
0.327632
0.326976
0.326336
0.32571
0.325099
0.324504
0.323924
0.323359
0.32281
0.322277
0.32176
0.321259
0.320774
0.320305
0.319853
0.319417
0.318998
0.318596
0.318212
0.317844
0.317494
0.317162
0.316848
0.316551
0.316273
0.316014
0.315773
0.315552
0.31535
0.315167
0.315004
0.31486
0.314738
0.314635
0.314553
0.314493
0.314453
0.314433
0.314438
0.314459
0.314506
0.314567
0.314645
0.314756
0.314868
0.314952
0.315235
0.315128
0.315703
0.315323
0.316167
0.315669
0.316408
0.316586
0.316585
0.31694
0.323428
0.292704
0.408906
0.408087
0.407243
0.406375
0.405482
0.404566
0.403629
0.402671
0.401693
0.400695
0.399678
0.398645
0.397594
0.396529
0.395451
0.394362
0.393261
0.392149
0.391025
0.38989
0.388743
0.387585
0.386416
0.385239
0.384053
0.382861
0.381662
0.380459
0.379252
0.378041
0.376828
0.375613
0.374398
0.373182
0.371967
0.370753
0.36954
0.36833
0.367123
0.365919
0.364719
0.363523
0.362332
0.361147
0.359968
0.358794
0.357628
0.356469
0.355317
0.354174
0.353039
0.351912
0.350796
0.349688
0.348591
0.347504
0.346429
0.345364
0.34431
0.343268
0.342238
0.341221
0.340216
0.339224
0.338245
0.337279
0.336327
0.335388
0.334464
0.333553
0.332657
0.331776
0.330909
0.330056
0.329219
0.328397
0.327591
0.326799
0.326023
0.325263
0.324519
0.323791
0.323079
0.322383
0.321703
0.32104
0.320393
0.319762
0.319149
0.318552
0.317972
0.317408
0.316862
0.316332
0.31582
0.315324
0.314846
0.314385
0.313942
0.313515
0.313106
0.312715
0.312341
0.311985
0.311646
0.311324
0.311021
0.310735
0.310466
0.310215
0.309982
0.309766
0.309567
0.309385
0.309219
0.30907
0.308937
0.30882
0.308715
0.308629
0.308552
0.30849
0.308444
0.308401
0.308379
0.308386
0.308315
0.308448
0.308292
0.308563
0.308354
0.308688
0.308619
0.308581
0.308982
0.308002
0.307328
0.314304
0.286668
0.412549
0.411623
0.410669
0.409687
0.40868
0.407648
0.406592
0.405514
0.404412
0.403287
0.402143
0.400978
0.399798
0.3986
0.397379
0.396139
0.394883
0.393611
0.392325
0.391026
0.389715
0.388395
0.387068
0.385733
0.384393
0.383049
0.3817
0.380347
0.378991
0.377633
0.376273
0.374911
0.37355
0.372188
0.370828
0.36947
0.368115
0.366763
0.365415
0.364072
0.362734
0.361403
0.360078
0.358761
0.357452
0.356152
0.35486
0.353578
0.352307
0.351045
0.349795
0.348556
0.347329
0.346115
0.344912
0.343723
0.342547
0.341385
0.340237
0.339102
0.337982
0.336877
0.335787
0.334711
0.333651
0.332606
0.331577
0.330564
0.329566
0.328585
0.32762
0.326671
0.325739
0.324823
0.323924
0.323041
0.322176
0.321328
0.320497
0.319683
0.318887
0.318108
0.317346
0.316601
0.315874
0.315164
0.314472
0.313797
0.31314
0.3125
0.311878
0.311274
0.310687
0.310117
0.309565
0.309031
0.308513
0.308014
0.307531
0.307065
0.306617
0.306186
0.305772
0.305374
0.304993
0.304629
0.30428
0.303949
0.303633
0.303332
0.303048
0.302778
0.302524
0.302284
0.302059
0.301848
0.30165
0.301467
0.301297
0.301136
0.301002
0.300864
0.300752
0.300654
0.300539
0.300517
0.300367
0.300446
0.300261
0.300425
0.300263
0.300372
0.300601
0.300358
0.300692
0.299906
0.298419
0.304953
0.280744
0.416724
0.415649
0.414541
0.413408
0.412248
0.411057
0.409837
0.408584
0.407315
0.406024
0.404705
0.40336
0.401983
0.400582
0.399168
0.397758
0.396356
0.394951
0.393544
0.392134
0.390717
0.389262
0.387759
0.386239
0.384714
0.383183
0.381648
0.380109
0.378569
0.377029
0.375489
0.37395
0.372413
0.370879
0.369349
0.367823
0.366302
0.364788
0.36328
0.361779
0.360286
0.358802
0.357327
0.355862
0.354407
0.352963
0.35153
0.35011
0.348701
0.347306
0.345924
0.344556
0.343202
0.341863
0.340539
0.33923
0.337937
0.33666
0.335399
0.334155
0.332928
0.331719
0.330527
0.329353
0.328196
0.327058
0.325938
0.324837
0.323754
0.32269
0.321644
0.320618
0.31961
0.318621
0.317651
0.3167
0.315768
0.314855
0.313961
0.313087
0.312231
0.311394
0.310575
0.309776
0.308995
0.308234
0.307491
0.306766
0.30606
0.305373
0.304703
0.304053
0.30342
0.302806
0.302209
0.30163
0.30107
0.300527
0.300001
0.299493
0.299002
0.298528
0.298071
0.297631
0.297207
0.2968
0.296409
0.296034
0.295675
0.295332
0.295004
0.294692
0.294395
0.294114
0.293848
0.293597
0.293361
0.293141
0.292938
0.292746
0.29258
0.292419
0.292286
0.292179
0.292038
0.292017
0.291865
0.291918
0.291784
0.291872
0.29182
0.291797
0.292021
0.291553
0.291357
0.29076
0.289696
0.294962
0.274631
0.422853
0.421607
0.420329
0.419012
0.417658
0.416271
0.41488
0.413468
0.411996
0.410497
0.408968
0.407457
0.40597
0.404424
0.402822
0.401192
0.399523
0.397828
0.396115
0.394386
0.392645
0.390925
0.389236
0.387551
0.385858
0.384158
0.382453
0.380745
0.379033
0.377319
0.375605
0.373891
0.372178
0.370468
0.368762
0.367061
0.365366
0.363678
0.361999
0.360328
0.358668
0.357019
0.355381
0.353755
0.352143
0.350545
0.348962
0.347393
0.345841
0.344304
0.342785
0.341282
0.339798
0.338331
0.336883
0.335453
0.334042
0.33265
0.331277
0.329924
0.328591
0.327277
0.325983
0.32471
0.323457
0.322224
0.321013
0.319821
0.318651
0.317502
0.316373
0.315266
0.31418
0.313115
0.312071
0.311047
0.310045
0.309064
0.308103
0.307163
0.306244
0.305345
0.304467
0.30361
0.302772
0.301955
0.301158
0.300381
0.299624
0.298886
0.298169
0.29747
0.296791
0.296131
0.29549
0.294867
0.294264
0.293679
0.293112
0.292563
0.292032
0.291519
0.291024
0.290547
0.290086
0.289643
0.289217
0.288808
0.288416
0.288041
0.287682
0.28734
0.287015
0.286706
0.286413
0.286137
0.285877
0.285634
0.285408
0.285195
0.285
0.284826
0.284651
0.284522
0.284364
0.284295
0.284118
0.284109
0.283933
0.283964
0.28387
0.283722
0.283836
0.283209
0.28282
0.282321
0.281611
0.285645
0.269313
0.43048
0.429063
0.427599
0.426092
0.424551
0.422974
0.42133
0.419656
0.417968
0.41625
0.414511
0.412707