/*--------------------------------*- C++ -*----------------------------------*\
| =========                 |                                                 |
| \\      /  F ield         | OpenFOAM: The Open Source CFD Toolbox           |
|  \\    /   O peration     | Version:  5.x                                   |
|   \\  /    A nd           | Web:      www.OpenFOAM.org                      |
|    \\/     M anipulation  |                                                 |
\*---------------------------------------------------------------------------*/
/*   Windows 32 and 64 bit porting by blueCAPE: http://www.bluecape.com.pt   *\
|  Based on Windows porting (2.0.x v4) by Symscape: http://www.symscape.com   |
\*---------------------------------------------------------------------------*/
FoamFile
{
    version     2.0;
    format      ascii;
    class       surfaceScalarField;
    location    "150";
    object      phi;
}
// * * * * * * * * * * * * * * * * * * * * * * * * * * * * * * * * * * * * * //

dimensions      [0 3 -1 0 0 0 0];

internalField   nonuniform List<scalar> 
87341
(
0.364177
39.5589
0.515642
39.7716
0.485328
39.9533
0.581734
39.8266
0.611457
39.8933
0.643601
39.8909
0.676061
39.8906
0.699616
39.8995
0.73526
39.8874
0.761645
39.8967
0.787092
39.8976
0.81016
39.9
0.83142
39.9018
0.851503
39.903
0.870569
39.904
0.88871
39.9049
0.906001
39.9057
0.922584
39.9065
0.93824
39.9074
0.952914
39.9084
0.966715
39.9092
0.979719
39.91
0.992
39.9108
1.00363
39.9114
1.01466
39.912
1.02517
39.9125
1.03519
39.913
1.0448
39.9134
39.9137
1.05413
0.964916
38.5939
1.35846
39.378
1.46805
39.8438
1.6175
39.6772
1.66278
39.848
1.83531
39.7184
1.93791
39.788
2.0699
39.7675
2.15044
39.8069
2.2324
39.8147
2.30783
39.8222
2.37978
39.828
2.44783
39.8337
2.51058
39.8402
2.56815
39.8464
2.62091
39.8521
2.66934
39.8573
2.71375
39.862
2.75456
39.8666
2.79234
39.8706
2.82758
39.874
2.86083
39.8768
2.8924
39.8792
2.92249
39.8813
2.95127
39.8832
2.97886
39.8849
3.00537
39.8865
3.03089
39.8879
39.8886
3.05597
1.99852
36.5954
3.27146
38.1051
4.01247
39.1028
4.06451
39.6251
4.22527
39.6873
4.16086
39.7828
4.1949
39.7539
4.19803
39.7644
4.23459
39.7703
4.27832
39.771
4.32112
39.7794
4.3662
39.7829
4.41062
39.7893
4.45406
39.7968
4.49658
39.8039
4.53815
39.8106
4.57874
39.8167
4.61831
39.8225
4.65768
39.8272
4.69706
39.8312
4.73638
39.8347
4.77537
39.8378
4.81393
39.8406
4.852
39.8432
4.88955
39.8457
4.92656
39.8479
4.96307
39.85
4.99909
39.8519
39.8537
5.03403
1.65447
34.941
3.41122
36.3483
4.79154
37.7224
5.60705
38.8096
5.83779
39.4565
5.88798
39.7326
5.88285
39.7591
5.87109
39.7761
5.87271
39.7687
5.8739
39.7698
5.88223
39.771
5.88728
39.7779
5.89239
39.7842
5.90279
39.7864
5.91936
39.7873
5.94226
39.7877
5.97083
39.7882
6.0047
39.7886
6.04244
39.7895
6.08307
39.7906
6.12586
39.7919
6.17017
39.7935
6.21552
39.7953
6.26152
39.7972
6.30791
39.7993
6.3543
39.8015
6.40034
39.8039
6.44589
39.8063
39.8095
6.49004
1.04906
33.8919
2.37238
35.025
3.89423
36.2006
5.28722
37.4166
6.26106
38.4827
6.74549
39.2481
6.89082
39.6138
6.92214
39.7448
6.93562
39.7552
6.94942
39.756
6.96035
39.7601
6.97339
39.7648
6.99181
39.7658
7.01228
39.7659
7.03461
39.765
7.05891
39.7634
7.08533
39.7617
7.11397
39.76
7.14491
39.7585
7.178
39.7575
7.21315
39.7567
7.25038
39.7562
7.28942
39.7562
7.33013
39.7565
7.37232
39.7571
7.41576
39.7581
7.46043
39.7593
7.50612
39.7607
39.7619
7.55381
0.820263
33.0716
1.79588
34.0494
2.92553
35.0709
4.21036
36.1318
5.49352
37.1996
6.52694
38.2147
7.12876
39.0119
7.3865
39.4871
7.48287
39.6588
7.54723
39.6916
7.61989
39.6874
7.68637
39.6984
7.75526
39.6969
7.82502
39.6961
7.89455
39.6955
7.96272
39.6952
8.02935
39.6951
8.09429
39.695
8.15721
39.6956
8.21876
39.6959
8.27896
39.6965
8.33774
39.6975
8.39596
39.698
8.45348
39.699
8.5103
39.7003
8.56714
39.7013
8.62367
39.7027
8.67996
39.7044
39.7036
8.73823
0.719494
32.3521
1.54259
33.2263
2.46559
34.1479
3.49209
35.1053
4.61044
36.0812
5.77144
37.0537
6.78306
38.0003
7.46445
38.8057
7.77885
39.3444
7.90913
39.5613
8.00447
39.5921
8.11668
39.5862
8.22414
39.5894
8.33072
39.5895
8.43574
39.5904
8.53989
39.591
8.64328
39.5917
8.74464
39.5937
8.84584
39.5944
8.94601
39.5958
9.04495
39.5976
9.14404
39.5984
9.24141
39.6007
9.33772
39.6027
9.43376
39.6042
9.52772
39.6073
9.62077
39.6097
9.71311
39.612
39.6134
9.8033
0.653376
31.6988
1.36966
32.51
2.15823
33.3594
3.02064
34.2429
3.95359
35.1483
4.94601
36.0613
5.98068
36.9656
6.94832
37.838
7.66838
38.6244
8.0582
39.1715
8.22772
39.4226
8.35426
39.4596
8.48837
39.4553
8.61908
39.4588
8.75005
39.4595
8.87984
39.4612
9.00768
39.4639
9.13726
39.4641
9.26456
39.4671
9.39177
39.4686
9.52048
39.4689
9.646
39.4729
9.77247
39.4742
9.89897
39.4762
10.0222
39.481
10.1467
39.4828
10.2702
39.4863
10.3906
39.4915
39.4938
10.5103
0.598275
31.1005
1.24308
31.8652
1.93769
32.6648
2.68436
33.4962
3.48266
34.35
4.32907
35.2149
5.21632
36.0784
6.12938
36.925
7.0212
37.7325
7.7195
38.4732
8.12182
39.0203
8.31517
39.2663
8.47273
39.2978
8.63648
39.2951
8.79788
39.2981
8.95971
39.2994
9.12556
39.298
9.28627
39.3034
9.45058
39.3028
9.61509
39.304
9.77402
39.31
9.93764
39.3092
10.0982
39.3136
10.2544
39.32
10.415
39.3204
10.5707
39.3271
10.7234
39.3336
10.8792
39.3358
39.3451
11.0278
0.571262
30.5292
1.18177
31.2547
1.8265
32.02
2.50681
32.8159
3.22269
33.6341
3.97233
34.4652
4.75166
35.299
5.55299
36.1236
6.36089
36.9246
7.15036
37.6837
7.79549
38.3751
8.17311
38.8887
8.3766
39.0943
8.55922
39.1125
8.74899
39.1083
8.94263
39.1058
9.12893
39.1117
9.32603
39.1063
9.5192
39.1096
9.70805
39.1152
9.90651
39.1115
10.0963
39.1194
10.2848
39.1251
10.4801
39.1247
10.6646
39.1359
10.8502
39.1415
11.0393
39.1445
11.2176
39.1575
39.163
11.3997
0.558035
29.9712
1.13971
30.673
1.74811
31.4116
2.38277
32.1813
3.04281
32.974
3.72643
33.7816
4.4305
34.595
5.1501
35.404
5.87741
36.1973
6.60022
36.9609
7.29898
37.6764
7.86819
38.3194
8.20518
38.7573
8.44397
38.8737
8.67075
38.8815
8.89095
38.8856
9.12677
38.8759
9.35159
38.8815
9.57552
38.8857
9.80939
38.8813
10.0293
38.8916
10.2528
38.8959
10.4815
38.8965
10.695
38.9113
10.9152
38.9157
11.1361
38.9206
11.3435
38.9371
11.5582
38.9428
38.9485
11.7728
0.527483
29.4437
1.07606
30.1244
1.64507
30.8426
2.23351
31.5928
2.83979
32.3678
3.46216
33.1593
4.09836
33.9588
4.74498
34.7574
5.39713
35.5452
6.04781
36.3102
6.68682
37.0374
7.3008
37.7055
7.78554
38.2725
8.1125
38.5467
8.40242
38.5916
8.70303
38.585
8.9862
38.5927
9.26941
38.5983
9.55954
38.5956
9.83183
38.609
10.11
38.6134
10.3903
38.6156
10.6503
38.6365
10.9209
38.6407
11.1904
38.6461
11.4417
38.6693
11.7026
38.6762
11.9594
38.686
38.7063
12.2015
0.505036
28.9387
1.02721
29.6023
1.56597
30.3039
2.1208
31.038
2.69009
31.7985
3.27142
32.5779
3.86228
33.3679
4.46021
34.1595
5.06203
34.9434
5.66328
35.709
6.25774
36.4429
6.83641
37.1268
7.37126
37.7377
7.77941
38.1386
8.14767
38.2233
8.4912
38.2415
8.83659
38.2473
9.1905
38.2444
9.51675
38.2693
9.84963
38.2761
10.1863
38.2768
10.4954
38.3064
10.8192
38.3126
11.1391
38.3208
11.435
38.3503
11.7421
38.3622
12.0427
38.3756
12.3237
38.4049
38.4144
12.6156
0.499508
28.4392
1.01344
29.0883
1.54094
29.7764
2.08151
30.4974
2.63461
31.2454
3.1988
32.0137
3.77156
32.7952
4.3499
33.5811
4.93102
34.3623
5.5117
35.1283
6.08739
35.8672
6.65121
36.563
7.1929
37.196
7.66893
37.6625
8.07
37.8223
8.46566
37.8458
8.86657
37.8464
9.2324
37.8785
9.616
37.8857
10.0046
37.8875
10.3552
37.9263
10.7253
37.9362
11.0866
37.9514
11.4212
37.9862
11.7723
37.9992
12.1183
38.0161
12.4378
38.0562
12.77
38.0727
38.0948
13.0895
0.50747
27.9317
1.02784
28.568
1.56016
29.2441
2.10338
29.9542
2.65667
30.6921
3.21946
31.451
3.7907
32.2239
4.36826
33.0036
4.94924
33.7813
5.53085
34.5467
6.11025
35.2878
6.68336
35.9898
7.24434
36.635
7.74111
37.1658
8.18647
37.3769
8.63514
37.3971
9.04672
37.4348
9.47777
37.4475
9.90706
37.4564
10.2912
37.5034
10.6988
37.5186
11.1042
37.5309
11.4818
37.5738
11.8724
37.5956
12.2565
37.6152
12.6082
37.6643
12.9733
37.6912
13.3335
37.7124
37.7553
13.673
0.524008
27.4077
1.06019
28.0318
1.60757
28.6967
2.16509
29.3967
2.73155
30.1256
3.3058
30.8767
3.88696
31.6428
4.4742
32.4163
5.0657
33.1898
5.65831
33.9541
6.2481
34.698
6.82954
35.4084
7.39419
36.0704
7.92489
36.6351
8.4331
36.8687
8.88636
36.9439
9.35084
36.9703
9.81905
36.9793
10.2441
37.0313
10.6901
37.0574
11.1435
37.0652
11.5524
37.1221
11.9644
37.1618
12.3804
37.1795
12.765
37.2306
13.1587
37.2707
13.5616
37.2882
13.922
37.3521
37.3918
14.2854
0.546897
26.8608
1.1057
27.473
1.67531
28.1271
2.25449
28.8175
2.84191
29.5382
3.4361
30.2825
4.03546
31.0434
4.63845
31.8134
5.24361
32.5846
5.84882
33.3489
6.45098
34.0959
7.04727
34.8121
7.63749
35.4802
8.2185
36.0541
8.72983
36.3574
9.22352
36.4502
9.73211
36.4618
10.2012
36.5102
10.6753
36.5572
11.1717
36.5611
11.6102
36.6267
12.0452
36.6871
12.5114
36.6955
12.9385
36.7525
13.3566
36.8124
13.7989
36.8284
14.1803
36.9069
14.5659
36.9665
36.981
14.9767
0.574794
26.286
1.16172
26.8861
1.75941
27.5294
2.36646
28.2104
2.98141
28.9232
3.60273
29.6612
4.22886
30.4173
4.85822
31.184
5.48935
31.9535
6.1213
32.7169
6.75287
33.4643
7.38212
34.1829
8.00433
34.858
8.58928
35.4691
9.10649
35.8401
9.66454
35.8921
10.1889
35.9374
10.6849
36.0142
11.2212
36.021
11.691
36.0913
12.1482
36.1694
12.6687
36.1666
13.1382
36.226
13.5702
36.3205
14.0419
36.3408
14.453
36.4173
14.8679
36.492
15.3204
36.514
36.5948
15.7066
0.608384
25.6776
1.2293
26.2651
1.86139
26.8973
2.5032
27.5686
3.15317
28.2733
3.80975
29.0046
4.47127
29.7557
5.13596
30.5193
5.80184
31.2876
6.46644
32.0523
7.12619
32.8045
7.77505
33.534
8.4034
34.2296
8.9938
34.8787
9.62749
35.2065
10.2029
35.3167
10.7004
35.4398
11.2636
35.451
11.777
35.5076
12.2725
35.5957
12.8385
35.6034
13.322
35.6831
13.7649
35.783
14.2642
35.8212
14.7147
35.8903
15.1596
35.9724
15.6311
36.0205
16.0383
36.1068
36.1849
16.4482
0.644379
25.0332
1.30189
25.6076
1.97097
26.2282
2.64993
26.8897
3.33699
27.5862
4.03022
28.3114
4.72755
29.0584
5.42669
29.8202
6.12512
30.5892
6.82009
31.3573
7.50896
32.1157
8.19028
32.8527
8.86862
33.5513
9.57228
34.1751
10.1904
34.5884
10.7087
34.7984
11.3126
34.8359
11.8771
34.8865
12.4176
34.9671
12.9995
35.0138
13.4918
35.1112
13.9884
35.1866
14.5141
35.2573
15.0082
35.3271
15.5037
35.3948
15.9925
35.4836
16.4353
35.5777
16.8766
35.6655
35.755
17.3065
0.681745
24.3515
1.37741
24.912
2.08524
25.5204
2.80343
26.1715
3.53014
26.8595
4.26343
27.5781
5.00138
28.3205
5.74207
29.0795
6.48372
29.8475
7.22487
30.6162
7.96465
31.3759
8.70224
32.1151
9.43193
32.8216
10.1114
33.4956
10.7116
33.9882
11.3445
34.1654
11.9482
34.2322
12.5515
34.2833
13.1337
34.3849
13.6688
34.4787
14.2225
34.5575
14.7552
34.6538
15.2992
34.7133
15.84
34.7863
16.3178
34.9171
16.7766
35.0248
17.2527
35.1016
17.7049
35.2132
35.3139
18.146
0.721333
23.6302
1.45731
24.176
2.20629
24.7714
2.9665
25.4113
3.73606
26.0899
4.51301
26.8011
5.29528
27.5382
6.08064
28.2941
6.86657
29.0616
7.64993
29.8328
8.42637
30.5995
9.18894
31.3525
9.92783
32.0827
10.6383
32.7851
11.3173
33.3091
11.9977
33.4851
12.6561
33.5737
13.2223
33.7171
13.7911
33.8161
14.3995
33.8704
14.9691
33.9879
15.5574
34.0655
16.1034
34.1674
16.5791
34.3105
17.0846
34.4117
17.6016
34.5077
18.0829
34.6203
18.5705
34.7256
34.8386
19.0459
0.759524
22.8706
1.53449
23.401
2.32311
23.9828
3.12343
24.6109
3.93337
25.28
4.75066
25.9838
5.57288
26.716
6.39731
27.4697
7.22093
28.238
8.04039
29.0134
8.85214
29.7877
9.65298
30.5517
10.441
31.2947
11.2137
32.0125
11.9776
32.5452
12.6783
32.7844
13.2515
33.0005
13.8837
33.0849
14.5543
33.1456
15.1645
33.2601
15.7678
33.3846
16.2992
33.5341
16.8331
33.6335
17.4064
33.7371
17.9554
33.8627
18.4954
33.9678
19.0018
34.1139
19.4678
34.2597
34.3933
19.9131
0.796066
22.0746
1.60845
22.5886
2.43519
23.156
3.2743
23.7718
4.12364
24.4307
4.98095
25.1265
5.84389
25.853
6.70998
26.6036
7.57674
27.3712
8.44173
28.1484
9.30266
28.9268
10.1575
29.6968
11.0052
30.4469
11.852
31.1657
12.6124
31.7848
13.2294
32.1673
13.9443
32.2856
14.6177
32.4115
15.2561
32.5072
15.8754
32.6408
16.4747
32.7853
17.0984
32.9104
17.679
33.0529
18.206
33.2102
18.7797
33.289
19.293
33.4545
19.7841
33.6227
20.275
33.7688
33.9551
20.7131
0.831996
21.2426
1.68094
21.7397
2.54517
22.2918
3.42275
22.8943
4.31165
23.5418
5.20967
24.2285
6.11448
24.9482
7.02361
25.6945
7.9344
26.4604
8.84392
27.2389
9.74878
28.0219
10.6447
28.801
11.5237
29.5679
12.3558
30.3336
13.1422
30.9984
13.9074
31.4022
14.5733
31.6197
15.2911
31.6937
15.957
31.8413
16.5912
32.0066
17.2347
32.1418
17.8235
32.3215
18.4502
32.4262
19.043
32.6174
19.5609
32.7711
20.0788
32.9366
20.5915
33.11
21.0801
33.2802
33.4217
21.6136
0.864175
20.3784
1.74615
20.8577
2.64414
21.3938
3.55626
21.9821
4.48045
22.6176
5.41445
23.2945
6.35581
24.0069
7.30185
24.7484
8.24964
25.5126
9.19583
26.2927
10.1364
27.0813
11.0664
27.871
11.9804
28.6539
12.8916
29.4225
13.7029
30.1871
14.4743
30.6308
15.2726
30.8214
15.9319
31.0343
16.6052
31.168
17.2674
31.3444
17.9245
31.4848
18.598
31.648
19.1654
31.8588
19.7527
32.0301
20.3413
32.1825
20.8816
32.3963
21.4415
32.5501
21.9526
32.7691
33.0139
22.3604
0.89282
19.4856
1.80398
19.9466
2.73189
20.4659
3.67472
21.0393
4.63045
21.6619
5.59682
22.3281
6.57135
23.0323
7.55129
23.7685
8.53359
24.5303
9.51483
25.3114
10.4912
26.1049
11.4585
26.9037
12.4116
27.7008
13.3304
28.5037
14.2609
29.2566
15.1109
29.7807
15.835
30.0973
16.5887
30.2806
17.2532
30.5035
17.9388
30.6588
18.6045
30.8191
19.2397
31.0127
19.9219
31.1766
20.5059
31.4461
21.0174
31.671
21.5797
31.834
22.1231
32.0066
22.6625
32.2297
32.5263
23.1501
0.917017
18.5686
1.85296
19.0106
2.80633
19.5125
3.77546
20.0702
4.75844
20.6789
5.75311
21.3335
6.75707
22.0284
7.7677
22.7579
8.78214
23.5159
9.7973
24.2963
10.8099
25.0923
11.8168
25.8969
12.815
26.7027
13.8177
27.5009
14.7576
28.3167
15.6058
28.9325
16.3885
29.3147
17.0449
29.6242
17.7988
29.7496
18.5575
29.9001
19.2643
30.1123
19.9112
30.3658
20.4688
30.619
21.1391
30.7759
21.7704
31.0397
22.3335
31.2709
22.8127
31.5274
23.3009
31.7416
32.0031
23.824
0.936555
17.632
1.89246
18.0547
2.86647
18.5385
3.85713
19.0795
4.86275
19.6733
5.88133
20.3149
6.91065
20.9991
7.94825
21.7203
8.99139
22.4728
10.0371
23.2506
11.0821
24.0473
12.1226
24.8563
13.1543
25.671
14.1616
26.4936
15.1658
27.3125
16.0388
28.0596
16.8757
28.4778
17.736
28.7639
18.4045
29.0811
19.0587
29.2458
19.7533
29.4177
20.4777
29.6415
21.1814
29.9153
21.7459
30.2113
22.2945
30.4911
22.9204
30.645
23.4956
30.9521
23.995
31.2422
31.5347
24.4635
0.950709
16.6813
1.92109
17.0843
2.91016
17.5494
3.91673
18.0729
4.93932
18.6507
5.97616
19.278
7.0252
19.95
8.08414
20.6613
9.1504
21.4065
10.2211
22.1799
11.2928
22.9757
12.3616
23.7874
13.4234
24.6092
14.4806
25.4364
15.4906
26.3024
16.4242
27.126
17.2399
27.6621
18.0008
28.003
18.8937
28.1882
19.6671
28.4724
20.3197
28.7652
20.9456
29.0155
21.5961
29.2648
22.3444
29.463
22.9976
29.8379
23.4458
30.1968
24.0032
30.3948
24.5263
30.7191
30.9971
25.0639
0.959099
15.7222
1.93803
16.1054
2.9361
16.5514
3.95238
17.0567
4.98562
17.6174
6.03425
18.2294
7.09636
18.8879
8.16975
19.5879
9.25191
20.3243
10.3399
21.0919
11.4303
21.8853
12.5185
22.6992
13.5995
23.5283
14.6628
24.3731
15.7334
25.2319
16.7436
26.1159
17.693
26.7127
18.5497
27.1462
19.1848
27.5532
19.9476
27.7095
20.7066
28.0062
21.4665
28.2556
22.1377
28.5937
22.6624
28.9382
23.3987
29.1016
24.0471
29.5485
24.5155
29.9263
25.0391
30.1955
30.5615
25.4747
0.961674
14.7605
1.9432
15.1239
2.94417
15.5504
3.96397
16.0369
5.00162
16.5798
6.05578
17.1753
7.12477
17.8189
8.20661
18.5061
9.29897
19.232
10.3991
19.9917
11.5039
20.7805
12.6098
21.5933
13.7126
22.4254
14.8121
23.2737
15.8848
24.1591
16.9745
25.0262
17.886
25.8012
18.8072
26.225
19.7174
26.643
20.3568
27.0701
21.0621
27.3009
21.7667
27.551
22.5772
27.7832
23.2713
28.2441
23.702
28.6708
24.3753
28.8752
24.9866
29.3151
25.4609
29.7212
30.0548
25.9675
0.958605
13.8019
1.93692
14.1455
2.93488
14.5524
3.95224
15.0195
4.98833
15.5437
6.04212
16.1215
7.11229
16.7487
8.19721
17.4212
9.29495
18.1342
10.4033
18.8834
11.5197
19.664
12.6418
20.4713
13.7669
21.3003
14.8927
22.1479
16.0298
23.022
17.1118
23.9441
18.1297
24.7834
18.9503
25.4044
19.7886
25.8046
20.7047
26.154
21.4227
26.583
22.0927
26.8809
22.7204
27.1555
23.5276
27.4369
24.2389
27.9596
24.6851
28.4289
25.3206
28.6797
25.8895
29.1523
29.647
26.2973
0.949978
12.8519
1.91938
13.1761
2.90848
13.5633
3.91739
14.0106
4.94576
14.5153
5.99289
15.0743
7.05776
15.6839
8.13907
16.3399
9.2352
17.0381
10.3442
17.7744
11.4637
18.5445
12.5906
19.3444
13.7214
20.1694
14.8522
21.0171
15.9764
21.8978
17.1093
22.8113
18.1409
23.7518
19.1225
24.4227
19.9955
24.9317
20.7602
25.3893
21.6307
25.7125
22.3775
26.1342
23.0575
26.4755
23.6606
26.8338
24.4148
27.2053
25.0985
27.7452
25.5334
28.2449
26.1519
28.5337
29.1062
26.6927
0.936071
11.9159
1.89112
12.2211
2.86576
12.5887
3.86045
13.0159
4.87515
13.5006
5.90948
14.04
6.96274
14.6306
8.03392
15.2687
9.12172
15.9503
10.2245
16.6716
11.3405
17.4285
12.4673
18.2176
13.6019
19.0348
14.7421
19.8769
15.8921
20.7479
17.0288
21.6745
18.1634
22.6172
19.0914
23.4947
20.0413
23.9818
20.9574
24.4731
21.6844
24.9855
22.4885
25.3301
23.2071
25.7569
23.8998
26.1411
24.5122
26.5929
25.2363
27.0211
25.9031
27.5781
26.326
28.1107
28.5078
26.9244
0.917269
10.9986
1.85292
11.2854
2.80793
11.6337
3.78304
12.0408
4.77856
12.5051
5.79441
13.0242
6.83022
13.5948
7.88537
14.2135
8.95892
14.8768
10.0497
15.5808
11.1562
16.322
12.2767
17.097
13.4085
17.903
14.549
18.7364
15.6971
19.5997
16.8559
20.5158
17.9819
21.4912
19.0832
22.3934
19.9227
23.1423
20.8546
23.5413
21.796
24.0441
22.5412
24.5849
23.3138
24.9843
23.9952
25.4598
24.7066
25.8815
25.3052
26.4225
25.9617
26.9216
26.5507
27.5217
28.1082
26.9503
0.894004
10.1046
1.80568
10.3738
2.73631
10.7031
3.68696
11.0901
4.65824
11.5338
5.65037
12.032
6.66335
12.5818
7.69689
13.18
8.75045
13.8232
9.82321
14.5081
10.9139
15.2313
12.0211
15.9899
13.1427
16.7814
14.2761
17.6031
15.42
18.4558
16.5806
19.3552
17.7522
20.3196
18.8688
21.2768
19.943
22.0681
20.7376
22.7467
21.6343
23.1474
22.5528
23.6663
23.2954
24.2417
24.0492
24.706
24.7052
25.2255
25.4206
25.7071
26.0069
26.3353
26.5949
26.9337
27.5987
27.1044
0.866734
9.23786
1.75032
9.49019
2.65233
9.80106
3.57413
10.1683
4.51661
10.5914
5.4803
11.0683
6.46554
11.5966
7.47241
12.1731
8.50073
12.7949
9.55006
13.4587
10.6197
14.1617
11.7088
14.9008
12.8164
15.6738
13.9406
16.4789
15.0827
17.3137
16.2427
18.1951
17.4166
19.1457
18.5677
20.1257
19.6343
21.0015
20.6728
21.7081
21.4586
22.3616
22.3369
22.788
23.225
23.3536
23.974
23.957
24.7122
24.4873
25.3425
25.0768
26.0495
25.6283
26.6291
26.354
27.1115
27.1163
0.835909
8.40195
1.68775
8.63834
2.5574
8.93141
3.44647
9.27926
4.35611
9.68172
5.28719
10.1373
6.24035
10.6434
7.21606
11.1974
8.21455
11.7964
9.23583
12.4375
10.2797
13.1178
11.3457
13.8348
12.4333
14.5862
13.5409
15.3713
14.667
16.1877
15.8217
17.0403
17.0021
17.9653
18.1681
18.9598
19.27
19.8996
20.288
20.6901
21.316
21.3336
22.1268
21.9772
23.0315
22.449
23.8838
23.1047
24.6112
23.7599
25.3179
24.3702
25.878
25.0682
26.5745
25.6575
26.5799
27.1061
0.801971
7.59998
1.61889
7.82142
2.45291
8.0974
3.30587
8.42629
4.17917
8.80842
5.07396
9.24247
5.99123
9.72615
6.93179
10.2569
7.89628
10.8319
8.88515
11.4486
9.89857
12.1044
10.9364
12.7969
11.9987
13.5239
13.0849
14.285
14.1929
15.0798
15.3219
15.9113
16.4949
16.7923
17.6987
17.756
18.8579
18.7404
19.9229
19.6251
20.9151
20.3414
21.9
20.9923
22.7103
21.6386
23.6344
22.1807
24.4575
22.9367
25.1941
23.6336
25.8596
24.4026
26.3683
25.1488
25.9166
27.0317
0.765343
6.83464
1.5446
7.04216
2.3402
7.3018
3.15419
7.6123
3.98817
7.97443
4.84358
8.38706
5.7217
8.84803
6.6237
9.35485
7.55062
9.90498
8.50327
10.4959
9.48232
11.1254
10.4882
11.791
11.521
12.4911
12.5817
13.2243
13.6689
13.9926
14.7842
14.7959
15.9231
15.6535
17.1167
16.5623
18.3192
17.5379
19.4439
18.5003
20.5009
19.2845
21.4959
19.9973
22.4586
20.6759
23.2762
21.3631
24.1736
22.0393
24.9551
22.8521
25.6912
23.6665
26.2876
24.5524
25.4442
26.7601
0.726434
6.10821
1.46573
6.30287
2.2206
6.54693
2.99325
6.83965
3.78549
7.1822
4.59896
7.57359
5.43528
8.01171
6.29594
8.49418
7.18234
9.01858
8.09574
9.58255
9.0372
10.1839
10.0076
10.8206
11.0076
11.4911
12.0377
12.1941
13.1001
12.9303
14.1902
13.7058
15.3235
14.5202
16.4731
15.4128
17.6833
16.3277
18.8801
17.3035
19.9789
18.1857
21.0514
18.9248
22.035
19.6923
22.999
20.3991
23.8394
21.1989
24.6791
22.0125
25.442
22.9036
26.0938
23.9005
24.9003
26.6377
0.685642
5.42257
1.3831
5.60541
2.09541
5.83462
2.82489
6.11016
3.57348
6.43361
4.34304
6.80402
5.13547
7.21929
5.95258
7.67707
6.79615
8.17501
7.66783
8.71087
8.5691
9.28261
9.50125
9.8885
10.4653
10.5271
11.462
11.1974
12.4926
11.8997
13.5617
12.6366
14.6609
13.421
15.824
14.2497
16.9846
15.1672
18.2209
16.0672
19.3998
17.0068
20.4944
17.8302
21.5773
18.6094
22.5201
19.4563
23.5155
20.2035
24.3303
21.1977
25.1607
22.0732
25.8763
23.1849
24.3404
26.4362
0.643353
4.77921
1.29754
4.95122
1.96597
5.16619
2.65097
5.42517
3.35455
5.73004
4.07877
6.0798
4.82577
6.47229
5.59771
6.90513
6.39671
7.376
7.22484
7.88274
8.08398
8.42347
8.97579
8.99668
9.90169
9.6012
10.8627
10.2364
11.8605
10.9019
12.8969
11.6002
13.9802
12.3376
15.0992
13.1307
16.2968
13.9696
17.478
14.8859
18.7386
15.7462
19.8779
16.6909
21.023
17.4643
22.0734
18.4059
23.0257
19.2512
23.9888
20.2346
24.7583
21.3037
25.5555
22.3877
23.706
26.1899
0.599951
4.17926
1.20991
4.34127
1.83366
4.54244
2.4734
4.78543
3.13114
5.07229
3.80911
5.40183
4.50971
5.77168
5.23542
6.17943
5.98872
6.6227
6.77205
7.09941
7.58774
7.60779
8.43782
8.14661
9.32406
8.71495
10.248
9.31241
11.2108
9.93922
12.2163
10.5947
13.2655
11.2884
14.3756
12.0206
15.5267
12.8185
16.7442
13.6684
17.9763
14.5142
19.2203
15.4469
20.3706
16.314
21.5298
17.2467
22.5644
18.2166
23.5332
19.2658
24.4371
20.3998
25.1521
21.6727
22.9919
25.8662
0.555822
3.62344
1.12107
3.77602
1.6999
3.9636
2.29414
4.19119
2.90575
4.46068
3.53709
4.77049
4.19087
5.1179
4.86986
5.50043
5.57692
5.91564
6.31486
6.36147
7.08643
6.83622
7.89395
7.33908
8.73962
7.86929
9.62548
8.42655
10.5539
9.01082
11.5238
9.6248
12.5486
10.2636
13.6184
10.9508
14.7725
11.6644
15.9562
12.4847
17.2004
13.27
18.4674
14.1798
19.7163
15.0652
20.8939
16.069
22.0258
17.0847
23.0627
18.2289
24.0045
19.458
24.8252
20.852
22.3532
25.464
0.51139
3.11205
1.03193
3.25548
1.56621
3.42932
2.11522
3.64218
2.68087
3.89503
3.2657
4.18567
3.87278
4.51082
4.50519
4.86802
5.16613
5.2547
5.85874
5.66886
6.58627
6.1087
7.35116
6.57419
8.15575
7.0647
9.00369
7.57862
9.89639
8.11811
10.8369
8.68431
11.8246
9.27591
12.8817
9.89372
13.9816
10.5645
15.1992
11.267
16.4009
12.0682
17.7071
12.8737
18.958
13.8143
20.2455
14.7815
21.4386
15.8916
22.5432
17.1242
23.5621
18.4392
24.4084
20.0057
21.6345
25.1271
0.467061
2.64499
0.943412
2.77913
1.43412
2.93861
1.93861
3.1377
2.45894
3.37469
2.99782
3.64679
3.55892
3.94972
4.14551
4.28143
4.76114
4.63907
5.4092
5.0208
6.09366
5.42424
6.8166
5.85125
7.58035
6.30095
8.39075
6.76821
9.24866
7.26021
10.1576
7.77539
11.1198
8.31367
12.1425
8.87101
13.227
9.48007
14.3941
10.0999
15.632
10.8303
16.8949
11.6108
18.2365
12.4727
19.4872
13.5308
20.794
14.5849
21.9693
15.9489
23.0658
17.3427
24.0066
19.0649
20.913
24.7281
0.422751
2.22224
0.856472
2.34541
1.30524
2.48985
1.76621
2.67672
2.24226
2.89864
2.73618
3.15287
3.25263
3.43328
3.79484
3.73921
4.36674
4.06717
4.97175
4.41579
5.61518
4.78081
6.29748
5.16895
7.0214
5.57702
7.79565
5.99397
8.61919
6.43667
9.4965
6.89807
10.4287
7.38144
11.432
7.86778
12.4804
8.43165
13.6236
8.95674
14.8349
9.61899
16.1074
10.3382
17.4291
11.151
18.7789
12.181
20.0644
13.2994
21.3503
14.6631
22.5111
16.1818
23.5408
18.0352
20.1054
24.3484
0.378655
1.84358
0.772311
1.95175
1.18112
2.08104
1.59969
2.25815
2.03285
2.46549
2.48321
2.7025
2.95706
2.95943
3.45709
3.23919
3.98763
3.53663
4.5518
3.85162
5.15756
4.17506
5.80099
4.52552
6.48688
4.89113
7.22699
5.25386
8.01833
5.64532
8.86143
6.05498
9.77019
6.47268
10.7341
6.90392
11.7821
7.38364
12.8625
7.87626
14.0716
8.40989
15.3003
9.10954
16.6311
9.82017
18.0008
10.8113
19.3826
11.9177
20.7006
13.345
21.9445
14.938
23.0494
16.9303
19.2284
23.9264
0.335184
1.5084
0.692263
1.59468
1.06315
1.71015
1.44026
1.88104
1.83233
2.07341
2.24094
2.29389
2.67518
2.5252
3.13601
2.77836
3.62843
3.04421
4.15469
3.32536
4.72754
3.6022
5.33376
3.9193
5.9853
4.23958
6.69277
4.5464
7.45511
4.88298
8.2656
5.24448
9.14708
5.59121
10.0783
5.97273
11.0964
6.36547
12.1657
6.80702
13.3115
7.26404
14.5407
7.88039
15.817
8.54388
17.1865
9.44173
18.6104
10.4938
20.0206
11.9348
21.3525
13.6061
22.5571
15.7257
18.2693
23.5162
0.293189
1.21521
0.617656
1.27021
0.952122
1.37569
1.28837
1.54479
1.64181
1.71997
2.01095
1.92475
2.40971
2.12643
2.83522
2.35285
3.29349
2.58593
3.78565
2.8332
4.33125
3.0566
4.90211
3.34844
5.52365
3.61804
6.20183
3.86822
6.93441
4.1504
7.71965
4.45924
8.56742
4.74344
9.46558
5.07458
10.4551
5.37595
11.4761
5.78601
12.6096
6.13054
13.763
6.72702
15.0491
7.25776
16.352
8.13888
17.8013
9.04448
19.2677
10.4683
20.7286
12.1453
22.0277
14.4266
17.1751
23.1219
0.254278
0.960932
0.549212
0.975275
0.847778
1.07712
1.14354
1.24903
1.46186
1.40165
1.79429
1.59232
2.16331
1.75741
2.55801
1.95815
2.98673
2.15722
3.44932
2.37061
3.97369
2.53223
4.50981
2.81231
5.10988
3.01798
5.75415
3.22395
6.46884
3.4357
7.21801
3.71008
8.04242
3.91902
8.89146
4.22554
9.85166
4.41575
10.827
4.8107
11.9087
5.0488
13.0285
5.60726
14.2492
6.03706
15.5442
6.8439
16.9602
7.62845
18.4504
8.97816
20.066
10.5296
21.5191
12.9735
15.8961
22.7981
0.220704
0.740228
0.485844
0.710135
0.748175
0.814789
1.0043
0.992904
1.29258
1.11337
1.59159
1.29331
1.93872
1.41028
2.30681
1.59006
2.71181
1.75221
3.14875
1.93367
3.65758
2.02341
4.15961
2.31028
4.74695
2.43065
5.35459
2.6163
6.05072
2.73957
6.76862
2.99218
7.55125
3.13639
8.37338
3.40341
9.26885
3.52028
10.2012
3.87837
11.2199
4.03011
12.273
4.55416
13.4745
4.8355
14.677
5.64142
16.1407
6.1647
17.5585
7.56045
19.3679
8.72019
20.8877
11.4537
14.3009
22.4829
0.194333
0.545895
0.424588
0.47988
0.649395
0.589983
0.868804
0.773495
1.13338
0.8488
1.40354
1.02314
1.73841
1.07541
2.08259
1.24588
2.47078
1.36402
2.88586
1.51859
3.37815
1.53111
3.85621
1.83222
4.42635
1.86051
5.00023
2.04242
5.6658
2.074
6.34195
2.31603
7.09574
2.3826
7.85268
2.64647
8.71511
2.65785
9.56911
3.02437
10.5633
3.03594
11.5337
3.58373
12.711
3.65822
13.8622
4.49023
15.3087
4.71814
16.7715
6.09766
18.6213
6.87038
20.3873
9.68767
12.453
22.2352
0.173691
0.372204
0.35688
0.29669
0.5461
0.400762
0.736947
0.582649
0.98141
0.604337
1.23552
0.769036
1.55981
0.751127
1.88659
0.919098
2.25637
0.994237
2.66263
1.11233
3.10969
1.08405
3.59218
1.34973
4.12338
1.32931
4.6955
1.4703
5.29551
1.47399
5.96055
1.65099
6.64899
1.69416
7.40958
1.88589
8.1764
1.89103
9.04957
2.1512
9.9126
2.17292
10.9315
2.56479
11.9522
2.63752
13.1985
3.24398
14.475
3.44165
16.1124
4.46023
17.8525
5.13026
20.2067
7.33354
10.0564
22.6032
0.147626
0.224578
0.277438
0.166879
0.44152
0.236681
0.620661
0.403507
0.833097
0.391901
1.10505
0.497085
1.39373
0.462444
1.71729
0.595539
2.07221
0.639318
2.47481
0.70973
2.86816
0.690709
3.36314
0.854748
3.85267
0.839782
4.40483
0.918148
4.94685
0.931961
5.56356
1.03428
6.18634
1.07138
6.88649
1.18573
7.5776
1.19992
8.37319
1.35562
9.16272
1.38339
10.1046
1.62295
11.0574
1.68472
12.2349
2.0664
13.4642
2.21238
15.0559
2.86854
16.8518
3.3344
19.61
4.57536
6.96335
22.703
0.120384
0.104194
0.213767
0.0734962
0.34133
0.109118
0.542767
0.202069
0.741185
0.193484
1.00788
0.230393
1.25748
0.21284
1.56451
0.288508
1.90478
0.29905
2.28093
0.333582
2.6454
0.326235
3.09467
0.405476
3.54108
0.393374
4.02532
0.433913
4.51813
0.439149
5.06198
0.490426
5.62809
0.505273
6.25045
0.563369
6.885
0.565371
7.59446
0.646152
8.3264
0.651449
9.17257
0.776781
10.0653
0.791977
11.1367
0.994998
12.3098
1.03927
13.7867
1.3917
15.5228
1.59831
18.3142
1.78387
3.77533
21.5023
0.104194
0.17769
0.286808
0.488877
0.682361
0.912754
1.12559
1.4141
1.71315
2.04673
2.37297
2.77845
3.17182
3.60573
4.04488
4.53531
5.04058
5.60395
6.16932
6.81547
7.46692
8.2437
9.03568
10.0307
11.0699
12.4616
14.06
15.8438
19.6192
1.06629
54.1281
1.07795
54.1286
1.08928
54.1289
1.10039
54.1291
1.11135
54.1293
1.1222
54.1294
1.13297
54.1295
1.14368
54.1295
1.15434
54.1296
1.16492
54.1296
1.17542
54.1297
1.18578
54.1299
1.19599
54.13
1.20599
54.1302
1.21572
54.1305
1.22516
54.1308
1.23434
54.1311
1.24325
54.1313
1.25187
54.1316
1.26014
54.132
1.26802
54.1323
1.27549
54.1328
1.28251
54.1332
1.28903
54.1337
1.29503
54.1342
1.30047
54.1348
1.30533
54.1354
1.30958
54.136
1.31319
54.1366
1.31614
54.1373
1.31839
54.138
1.31995
54.1387
1.3208
54.1394
1.3209
54.1401
1.32028
54.1409
1.31899
54.1415
1.31707
54.1422
1.31452
54.1428
1.3114
54.1434
1.30772
54.1439
1.30354
54.1444
1.29885
54.1449
1.29371
54.1454
1.28813
54.1458
1.28215
54.1462
1.27579
54.1466
1.26908
54.1469
1.26203
54.1473
1.25468
54.1476
1.24705
54.1479
1.23913
54.1481
1.23096
54.1484
1.22256
54.1486
1.21393
54.1489
1.20506
54.1491
1.19597
54.1493
1.18663
54.1496
1.17706
54.1498
1.16722
54.1501
1.15706
54.1504
1.14653
54.1508
1.13561
54.1512
1.12432
54.1515
1.11269
54.1519
1.10071
54.1522
1.08842
54.1525
1.07582
54.1528
1.06294
54.1531
1.04978
54.1534
1.03636
54.1537
1.02269
54.1539
1.00877
54.1542
0.994604
54.1544
0.98021
54.1546
0.965595
54.1549
0.950752
54.1551
0.935699
54.1553
0.920438
54.1555
0.904986
54.1557
0.889354
54.1559
0.87358
54.156
0.857682
54.1561
0.841691
54.1562
0.82562
54.1563
0.809498
54.1564
0.79334
54.1564
0.777169
54.1564
0.760999
54.1564
0.744879
54.1564
0.728764
54.1563
0.712583
54.1564
0.696265
54.1566
0.679763
54.1567
0.663022
54.157
0.646008
54.1573
0.628683
54.1576
0.611025
54.1579
0.593009
54.1582
0.574627
54.1586
0.555861
54.159
0.536712
54.1594
0.517178
54.1598
0.497242
54.1602
0.476914
54.1606
0.456178
54.161
0.435039
54.1614
0.413497
54.1618
0.391576
54.1622
0.369302
54.1625
0.346718
54.1628
0.323949
54.163
0.301348
54.1628
0.279238
54.1623
0.257819
54.1617
0.237224
54.1608
0.217544
54.1599
0.198723
54.1591
0.180569
54.1584
0.162616
54.1582
0.144411
54.1584
0.125829
54.1588