/*--------------------------------*- C++ -*----------------------------------*\
| =========                 |                                                 |
| \\      /  F ield         | OpenFOAM: The Open Source CFD Toolbox           |
|  \\    /   O peration     | Version:  5.x                                   |
|   \\  /    A nd           | Web:      www.OpenFOAM.org                      |
|    \\/     M anipulation  |                                                 |
\*---------------------------------------------------------------------------*/
/*   Windows 32 and 64 bit porting by blueCAPE: http://www.bluecape.com.pt   *\
|  Based on Windows porting (2.0.x v4) by Symscape: http://www.symscape.com   |
\*---------------------------------------------------------------------------*/
FoamFile
{
    version     2.0;
    format      ascii;
    class       volVectorField;
    location    "150";
    object      U;
}
// * * * * * * * * * * * * * * * * * * * * * * * * * * * * * * * * * * * * * //

dimensions      [0 1 -1 0 0 0 0];

internalField   nonuniform List<vector> 
43900
(
(1.1615 -0.000710714 -1.93082e-027)
(1.16732 0.00214155 -5.17457e-027)
(1.16979 0.000344615 1.37776e-030)
(1.16857 0.0017736 2.72906e-030)
(1.16986 0.000839346 3.73406e-030)
(1.17017 0.00178889 3.72077e-030)
(1.17025 0.00123259 6.91048e-027)
(1.16966 0.00162888 -1.38027e-026)
(1.16987 0.00162443 9.58521e-030)
(1.16949 0.00159074 -1.37713e-026)
(1.16951 0.0017785 1.37935e-026)
(1.16957 0.00177789 1.13957e-029)
(1.16964 0.00182207 -1.37376e-026)
(1.16971 0.00187995 2.44757e-029)
(1.16977 0.00192237 2.5077e-029)
(1.16981 0.00196327 2.56566e-029)
(1.16985 0.00200328 -2.73713e-026)
(1.16988 0.00204122 5.34024e-029)
(1.16989 0.00207741 2.73979e-026)
(1.16989 0.0021113 2.76031e-029)
(1.16989 0.00214323 2.80087e-029)
(1.16989 0.00217374 2.83891e-029)
(1.16989 0.00220196 2.87493e-029)
(1.1699 0.00222866 2.90922e-029)
(1.1699 0.00225392 2.9418e-029)
(1.1699 0.00227828 -2.71129e-026)
(1.1699 0.00230103 6.00502e-029)
(1.1699 0.00232314 6.06217e-029)
(1.1699 0.00234419 1.08267e-025)
(1.1587 0.0110964 0)
(1.16569 -0.0046641 0)
(1.17126 0.00876788 0)
(1.16654 6.25923e-005 0)
(1.16875 0.00601788 0)
(1.16797 0.00297626 0)
(1.16851 0.0048274 0)
(1.16912 0.00485314 0)
(1.16872 0.00463818 0)
(1.16937 0.00535293 0)
(1.16946 0.00532288 0)
(1.16951 0.00545721 0)
(1.16951 0.00571568 0)
(1.16948 0.00585493 0)
(1.16946 0.00598661 0)
(1.16944 0.00611588 0)
(1.16943 0.0062346 0)
(1.16942 0.00634494 0)
(1.16945 0.00644566 0)
(1.16949 0.00653751 0)
(1.16953 0.00662311 0)
(1.16956 0.00670239 0)
(1.16959 0.00677818 0)
(1.16962 0.00685094 0)
(1.16964 0.00692013 0)
(1.16966 0.00698592 0)
(1.16968 0.00704978 0)
(1.1697 0.00711164 0)
(1.16972 0.00717175 0)
(1.10265 0.0319279 0)
(1.14551 -0.0176122 0)
(1.16309 0.0284969 0)
(1.16342 -0.00401095 0)
(1.16612 0.0204717 0)
(1.16435 0.00364897 0)
(1.16569 0.0146284 0)
(1.16596 0.00802203 0)
(1.16688 0.011574 0)
(1.16709 0.0102815 0)
(1.16719 0.0106065 0)
(1.16726 0.0108456 0)
(1.16733 0.0109563 0)
(1.16745 0.0110287 0)
(1.16757 0.0111367 0)
(1.16769 0.0112444 0)
(1.16779 0.0113458 0)
(1.1679 0.0114424 0)
(1.16798 0.0115399 0)
(1.16805 0.011637 0)
(1.1681 0.0117342 0)
(1.16814 0.0118297 0)
(1.16817 0.011925 0)
(1.1682 0.0120191 0)
(1.16823 0.0121136 0)
(1.16826 0.0122061 0)
(1.16828 0.0122962 0)
(1.1683 0.0123832 0)
(1.16832 0.0124712 1.90213e-027)
(1.04283 0.0198792 0)
(1.08901 -0.00694087 0)
(1.13191 0.0199648 0)
(1.15711 0.00743449 0)
(1.16368 0.0217207 0)
(1.16583 0.00963935 0)
(1.16475 0.0198362 0)
(1.16388 0.012527 0)
(1.16417 0.0170392 0)
(1.16425 0.0146607 0)
(1.16458 0.0155855 0)
(1.16491 0.015513 0)
(1.16517 0.0154364 0)
(1.16536 0.0154483 0)
(1.16551 0.0155028 0)
(1.16565 0.015557 0)
(1.16576 0.0156239 0)
(1.16586 0.0157073 0)
(1.16594 0.0158028 0)
(1.166 0.015906 0)
(1.16605 0.0160154 0)
(1.16611 0.0161298 0)
(1.16616 0.0162473 0)
(1.16622 0.0163659 0)
(1.16627 0.0164848 0)
(1.16632 0.0166068 0)
(1.16638 0.0167302 0)
(1.16643 0.0168517 0)
(1.16648 0.016969 2.01939e-027)
(1.0065 0.0100672 4.05539e-027)
(1.04248 -0.00110164 0)
(1.07979 0.0106191 0)
(1.11838 0.0123039 0)
(1.14775 0.0177493 0)
(1.16179 0.01617 0)
(1.16419 0.0216858 0)
(1.165 0.0169284 0)
(1.16462 0.020578 0)
(1.16454 0.0185052 0)
(1.1645 0.0194665 0)
(1.16462 0.01931 0)
(1.16477 0.0192801 0)
(1.16487 0.0193634 0)
(1.16496 0.0194288 0)
(1.16503 0.0194874 0)
(1.16511 0.019558 0)
(1.16517 0.0196362 0)
(1.16524 0.0197192 0)
(1.16532 0.0198094 0)
(1.1654 0.0199043 0)
(1.16548 0.0200059 0)
(1.16556 0.0201139 0)
(1.16565 0.0202278 0)
(1.16573 0.0203436 0)
(1.16581 0.0204611 0)
(1.16589 0.0205822 0)
(1.16598 0.020708 0)
(1.16606 0.0208341 -8.51173e-027)
(0.980745 0.00667628 -4.23293e-027)
(1.01114 0.000537001 0)
(1.04291 0.00734514 0)
(1.07583 0.0106019 0)
(1.10874 0.014334 0)
(1.13893 0.0172768 0)
(1.15706 0.0211754 0)
(1.16336 0.0204679 0)
(1.1642 0.02263 0)
(1.16427 0.0213407 0)
(1.16444 0.0223842 0)
(1.16433 0.0223452 0)
(1.16422 0.0225329 0)
(1.16417 0.0227436 0)
(1.16417 0.0229411 0)
(1.16418 0.0231452 0)
(1.1642 0.0233443 0)
(1.16423 0.0235358 0)
(1.16429 0.0237211 0)
(1.16436 0.023903 0)
(1.16443 0.0240813 0)
(1.1645 0.0242544 0)
(1.16459 0.024424 0)
(1.16466 0.0245952 0)
(1.16474 0.0247635 0)
(1.16482 0.0249293 0)
(1.1649 0.0250939 0)
(1.16498 0.0252577 0)
(1.16506 0.0254269 4.4994e-027)
(0.958422 0.00505921 0)
(0.985316 0.00133707 0)
(1.01353 0.00621052 0)
(1.04285 0.00929838 0)
(1.07264 0.0125029 0)
(1.10207 0.0159628 0)
(1.13042 0.0195738 0)
(1.15159 0.0219304 0)
(1.1605 0.024307 0)
(1.16225 0.0239468 0)
(1.16146 0.0245479 0)
(1.16156 0.0249228 0)
(1.16153 0.0251797 0)
(1.16149 0.0255043 0)
(1.16145 0.0258364 0)
(1.16144 0.0261634 0)
(1.16143 0.0264842 0)
(1.16143 0.026797 0)
(1.16147 0.0271066 0)
(1.16148 0.0274199 0)
(1.16151 0.0277246 0)
(1.16157 0.0280283 0)
(1.1616 0.0283332 0)
(1.16166 0.0286253 0)
(1.16173 0.0289251 0)
(1.16179 0.0292197 0)
(1.16188 0.0295029 0)
(1.16197 0.0297895 0)
(1.16205 0.0300707 0)
(0.938181 0.00437318 0)
(0.962812 0.00161747 0)
(0.988653 0.00564989 0)
(1.01552 0.00849366 0)
(1.04299 0.0113435 0)
(1.0706 0.0144476 0)
(1.09781 0.0177856 0)
(1.12378 0.0210334 0)
(1.1461 0.0240951 0)
(1.15643 0.0258606 0)
(1.15838 0.0266682 0)
(1.15751 0.0269858 0)
(1.15754 0.0274182 0)
(1.1575 0.0278255 0)
(1.15753 0.0282605 0)
(1.15751 0.0286893 0)
(1.15749 0.0291026 0)
(1.15756 0.029519 0)
(1.15752 0.029942 0)
(1.15755 0.0303501 0)
(1.15759 0.0307674 0)
(1.15756 0.0311871 0)
(1.15764 0.0315851 0)
(1.15769 0.0320065 0)
(1.1577 0.0324083 0)
(1.15782 0.0328068 0)
(1.15787 0.0332233 0)
(1.15792 0.0336071 0)
(1.15805 0.0339993 0)
(0.920305 0.00345869 0)
(0.943196 0.00203962 0)
(0.967199 0.00528845 0)
(0.992172 0.00795506 0)
(1.01781 0.0105902 0)
(1.04374 0.0133872 0)
(1.06956 0.0163744 0)
(1.09473 0.0194961 0)
(1.11843 0.0226294 0)
(1.13962 0.0254541 0)
(1.15154 0.0276023 0)
(1.15412 0.0284109 0)
(1.15367 0.0288211 0)
(1.15377 0.0293981 0)
(1.15373 0.0299568 0)
(1.15378 0.0305016 0)
(1.15389 0.0310628 0)
(1.15379 0.0316322 0)
(1.15395 0.032177 0)
(1.15396 0.0327521 0)
(1.15389 0.0333132 0)
(1.15412 0.0338425 0)
(1.15408 0.0344339 0)
(1.15412 0.0349539 0)
(1.15436 0.0354968 0)
(1.15433 0.0360633 0)
(1.15445 0.0365641 0)
(1.15469 0.0371171 0)
(1.15469 0.0376354 0)
(0.903149 0.00267077 0)
(0.924975 0.00249768 0)
(0.947866 0.00527531 0)
(0.971656 0.00785048 0)
(0.996086 0.0103915 0)
(1.02087 0.0130316 0)
(1.04567 0.0158043 0)
(1.07011 0.0186859 0)
(1.0937 0.0216275 0)
(1.11584 0.0245366 0)
(1.13563 0.0272483 0)
(1.14723 0.029312 0)
(1.14958 0.0301678 0)
(1.14939 0.0307455 0)
(1.14965 0.0314021 0)
(1.1497 0.0320871 0)
(1.14954 0.0327862 0)
(1.14996 0.0334557 0)
(1.14978 0.0341917 0)
(1.14985 0.0348831 0)
(1.15026 0.035546 0)
(1.15001 0.0363241 0)
(1.1503 0.0369387 0)
(1.15062 0.0376657 0)
(1.15042 0.0383837 0)
(1.15084 0.0389847 0)
(1.15109 0.0397316 0)
(1.151 0.0403715 0)
(1.15147 0.0410163 -1.17236e-026)
(0.886556 0.00253678 0)
(0.907447 0.00267905 0)
(0.929432 0.0053596 0)
(0.952313 0.00790382 0)
(0.975864 0.0103987 0)
(0.999826 0.0129581 0)
(1.02392 0.0156143 0)
(1.04783 0.0183491 0)
(1.07119 0.0211336 0)
(1.09355 0.0239274 0)
(1.11431 0.0266552 0)
(1.1326 0.0292082 0)
(1.14198 0.031107 0)
(1.14329 0.0320315 0)
(1.14293 0.0328052 0)
(1.14286 0.0336692 0)
(1.14346 0.034481 0)
(1.14285 0.0354256 0)
(1.14331 0.0362642 0)
(1.14364 0.0370847 0)
(1.14312 0.0380946 0)
(1.14388 0.0387756 0)
(1.14399 0.0397478 0)
(1.14373 0.040617 0)
(1.1446 0.0413145 0)
(1.14457 0.0423235 0)
(1.14456 0.0430336 0)
(1.14542 0.0438614 0)
(1.14538 0.04473 1.23831e-026)
(0.870606 0.00220561 0)
(0.890834 0.00282799 0)
(0.912161 0.00535999 0)
(0.934408 0.00783838 0)
(0.957343 0.0102732 0)
(0.980733 0.0127499 0)
(1.00433 0.0152953 0)
(1.02786 0.0178966 0)
(1.05101 0.0205329 0)
(1.07341 0.0231783 0)
(1.09459 0.0257928 0)
(1.11383 0.0283341 0)
(1.12915 0.0307145 0)
(1.1339 0.0324315 0)
(1.13463 0.0335472 0)
(1.135 0.0345498 0)
(1.13397 0.0358957 0)
(1.13494 0.0369106 0)
(1.13478 0.0380499 0)
(1.1343 0.0393868 0)
(1.13549 0.0402329 0)
(1.13506 0.0415524 0)
(1.13505 0.0426288 0)
(1.13621 0.0435318 0)
(1.13571 0.0449096 0)
(1.13608 0.0457055 0)
(1.13708 0.0468516 0)
(1.13668 0.0479514 0)
(1.13729 0.0488362 1.35441e-026)
(0.855577 0.00190748 0)
(0.875259 0.00299453 0)
(0.89604 0.00542894 0)
(0.917777 0.00787072 0)
(0.940275 0.0102925 0)
(0.963285 0.0127475 0)
(0.986555 0.0152532 0)
(1.00984 0.0177998 0)
(1.03286 0.0203715 0)
(1.05529 0.0229507 0)
(1.07669 0.0255095 0)
(1.09644 0.0279991 0)
(1.11359 0.0304329 0)
(1.12371 0.0326999 0)
(1.12514 0.0340934 0)
(1.12438 0.0357599 0)
(1.1259 0.0370129 0)
(1.12523 0.0384642 0)
(1.12513 0.0402115 0)
(1.12642 0.0412044 0)
(1.12561 0.0430183 0)
(1.12609 0.0442165 0)
(1.12722 0.0454014 0)
(1.12651 0.0472987 0)
(1.12731 0.0479978 0)
(1.12819 0.0496627 0)
(1.12777 0.0509714 0)
(1.12874 0.051956 0)
(1.1295 0.053437 -1.43115e-026)
(0.840983 0.00172551 0)
(0.860216 0.00322618 0)
(0.880567 0.00568443 0)
(0.901869 0.00817466 0)
(0.923955 0.0106604 0)
(0.946637 0.0131833 0)
(0.969674 0.0157541 0)
(0.992785 0.0183592 0)
(1.0157 0.0209853 0)
(1.03814 0.0236175 0)
(1.05973 0.0262329 0)
(1.07997 0.0287862 0)
(1.09819 0.0312942 0)
(1.11067 0.0336763 0)
(1.11374 0.035958 0)
(1.11553 0.0372934 0)
(1.11444 0.0391713 0)
(1.11484 0.0410925 0)
(1.11625 0.0422697 0)
(1.11548 0.0447143 0)
(1.11632 0.0458804 0)
(1.11741 0.0474795 0)
(1.11679 0.0497398 0)
(1.11796 0.0504321 0)
(1.11879 0.0526753 0)
(1.11868 0.0540211 0)
(1.11983 0.0553336 0)
(1.1206 0.0571875 0)
(1.12061 0.0583276 -1.56795e-026)
(0.826302 0.00166677 0)
(0.845141 0.00352149 0)
(0.865127 0.00611212 0)
(0.886093 0.00874227 0)
(0.907855 0.0113747 0)
(0.930217 0.0140387 0)
(0.952988 0.0167481 0)
(0.975948 0.0194973 0)
(0.998811 0.0222705 0)
(1.02127 0.0250542 0)
(1.04298 0.0278296 0)
(1.06347 0.0305553 0)
(1.08206 0.0332043 0)
(1.09631 0.0361037 0)
(1.10216 0.03807 0)
(1.10182 0.0403885 0)
(1.103 0.0423909 0)
(1.10438 0.043871 0)
(1.10353 0.0468085 0)
(1.10445 0.0479901 0)
(1.10584 0.0500994 0)
(1.1055 0.0524726 0)
(1.1069 0.0534506 0)
(1.10785 0.056264 0)
(1.10793 0.0575188 0)
(1.10892 0.0592885 0)
(1.11025 0.0614075 0)
(1.11051 0.0625876 0)
(1.11195 0.0647103 1.65763e-026)
(0.811251 0.00170787 0)
(0.829727 0.0038738 0)
(0.849378 0.0066767 0)
(0.870041 0.00952114 0)
(0.891535 0.0123719 0)
(0.913659 0.0152525 0)
(0.936199 0.0181717 0)
(0.958941 0.0211253 0)
(0.981664 0.0241082 0)
(1.00407 0.0271055 0)
(1.02579 0.0300952 0)
(1.04642 0.0330427 0)
(1.06541 0.0359149 0)
(1.08147 0.0385999 0)
(1.08759 0.0418533 0)
(1.08914 0.0437905 0)
(1.09015 0.0458105 0)
(1.08966 0.04889 0)
(1.09098 0.0503002 0)
(1.09284 0.0530251 0)
(1.0926 0.0553894 0)
(1.09352 0.0569086 0)
(1.0948 0.0599228 0)
(1.09529 0.0612321 0)
(1.09628 0.0635462 0)
(1.09833 0.0656833 0)
(1.09863 0.0672269 0)
(1.09967 0.0697447 0)
(1.10109 0.0710553 0)
(0.795605 0.00182509 0)
(0.81373 0.0042896 0)
(0.833058 0.0073692 0)
(0.853431 0.0104905 0)
(0.874668 0.0136189 0)
(0.896574 0.0167751 0)
(0.918938 0.0199649 0)
(0.941539 0.0231805 0)
(0.964151 0.0264121 0)
(0.986546 0.0296527 0)
(1.00842 0.0328832 0)
(1.02939 0.0360588 0)
(1.04891 0.0391197 0)
(1.06526 0.0425684 0)
(1.07211 0.0453701 0)
(1.07478 0.0481651 0)
(1.07552 0.0508133 0)
(1.07641 0.0529932 0)
(1.07817 0.0559868 0)
(1.07807 0.0584026 0)
(1.07865 0.0607139 0)
(1.08114 0.0635055 0)
(1.08221 0.0652828 0)
(1.0828 0.0682506 0)
(1.08497 0.0702221 0)
(1.08529 0.0724362 0)
(1.08611 0.0750193 0)
(1.08886 0.076522 0)
(1.09011 0.0790744 0)
(0.779221 0.00200397 0)
(0.796998 0.00477471 0)
(0.816014 0.00819183 0)
(0.836116 0.0116516 0)
(0.857127 0.0151175 0)
(0.878852 0.0186109 0)
(0.901088 0.0221376 0)
(0.923617 0.0256887 0)
(0.946207 0.0292549 0)
(0.968602 0.032829 0)
(0.990497 0.0363995 0)
(1.01147 0.0399451 0)
(1.03086 0.0434082 0)
(1.04731 0.0468933 0)
(1.05755 0.0505347 0)
(1.06023 0.0528555 0)
(1.0601 0.0563533 0)
(1.06212 0.0589784 0)
(1.06309 0.0617383 0)
(1.06343 0.0650781 0)
(1.06683 0.0672032 0)
(1.06782 0.0700025 0)
(1.06741 0.0733228 0)
(1.0702 0.0751563 0)
(1.07153 0.0781889 0)
(1.07232 0.0806664 0)
(1.07604 0.0825394 0)
(1.07694 0.0856015 0)
(1.07702 0.0876749 0)
(0.761937 0.00224361 4.77257e-026)
(0.779354 0.00534692 0)
(0.798051 0.00917106 0)
(0.817874 0.0130414 0)
(0.838648 0.0169177 0)
(0.860179 0.020824 0)
(0.88226 0.0247666 0)
(0.904672 0.028736 0)
(0.927179 0.0327197 0)
(0.949525 0.0367039 0)
(0.971423 0.0406686 0)
(0.992534 0.0445705 0)
(1.01248 0.0483298 0)
(1.03117 0.0521093 0)
(1.04191 0.0555578 0)
(1.04217 0.0601017 0)
(1.04503 0.0621795 0)
(1.04735 0.0655071 0)
(1.04702 0.0695891 0)
(1.05081 0.0711494 0)
(1.05195 0.0753628 0)
(1.05118 0.0787542 0)
(1.0548 0.0801651 0)
(1.05753 0.0844114 0)
(1.05776 0.0867339 0)
(1.06127 0.0887188 0)
(1.06215 0.0927942 0)
(1.06272 0.094401 0)
(1.06742 0.0969211 0)
(0.7436 0.00252593 1.69228e-027)
(0.760639 0.00599092 0)
(0.779001 0.0102772 0)
(0.798535 0.0146127 0)
(0.819068 0.0189511 0)
(0.840408 0.0233187 0)
(0.862356 0.027721 0)
(0.884701 0.0321449 0)
(0.907225 0.0365737 0)
(0.9297 0.0409906 0)
(0.951887 0.0453766 0)
(0.973502 0.0496958 0)
(0.994112 0.0538755 0)
(1.01275 0.0581116 0)
(1.02076 0.0635095 0)
(1.02655 0.0658021 0)
(1.03075 0.0696253 0)
(1.02966 0.0743249 0)
(1.03306 0.0756309 0)
(1.03442 0.0811911 0)
(1.03428 0.084305 0)
(1.03918 0.0856943 0)
(1.04166 0.0914333 0)
(1.04165 0.0932866 0)
(1.04497 0.0956877 0)
(1.04664 0.100987 0)
(1.04872 0.101801 0)
(1.05304 0.105467 0)
(1.05369 0.108722 0)
(0.724205 0.00284583 -5.53036e-026)
(0.74085 0.00670577 0)
(0.758869 0.0115084 0)
(0.778114 0.0163647 0)
(0.798413 0.0212223 0)
(0.819582 0.0261122 0)
(0.841421 0.0310421 0)
(0.863724 0.0359997 0)
(0.88627 0.0409704 0)
(0.90881 0.0459431 0)
(0.931053 0.0509047 0)
(0.95259 0.0558245 0)
(0.972747 0.0606127 0)
(0.990242 0.0658509 0)
(1.0054 0.0694508 0)
(1.01189 0.0744702 0)
(1.01065 0.0787293 0)
(1.01394 0.0805614 0)
(1.01546 0.0874734 0)
(1.01731 0.0897233 0)
(1.02244 0.092274 0)
(1.02281 0.0987701 0)
(1.02466 0.0997832 0)
(1.02819 0.104078 0)
(1.02965 0.108997 0)
(1.03301 0.109669 0)
(1.03634 0.114442 0)
(1.0378 0.117426 0)
(1.04244 0.119673 0)
(0.703672 0.0032103 0)
(0.719898 0.00750682 0)
(0.737548 0.0128902 0)
(0.756475 0.0183337 0)
(0.776508 0.0237791 0)
(0.797462 0.029263 0)
(0.819136 0.0347951 0)
(0.841321 0.0403604 0)
(0.863789 0.0459402 0)
(0.886296 0.0515142 0)
(0.908576 0.057058 0)
(0.930351 0.0625235 0)
(0.951443 0.0678022 0)
(0.972659 0.0724999 0)
(0.986375 0.0790753 0)
(0.990182 0.0822798 0)
(0.994269 0.0868866 0)
(0.99501 0.093507 0)
(0.999442 0.0948201 0)
(1.00239 0.0996287 0)
(1.00295 0.105513 0)
(1.0078 0.106823 0)
(1.00948 0.113375 0)
(1.01098 0.11605 0)
(1.01632 0.118463 0)
(1.01967 0.124089 0)
(1.02138 0.126211 0)
(1.02619 0.129893 0)
(1.02789 0.133522 0)
(0.681971 0.00360047 -6.85281e-026)
(0.697754 0.00836641 0)
(0.715012 0.0143734 0)
(0.7336 0.0204449 0)
(0.753354 0.0265158 0)
(0.774091 0.0326272 0)
(0.795622 0.0387883 0)
(0.817748 0.0449803 0)
(0.840265 0.0511796 0)
(0.862962 0.0573628 0)
(0.885611 0.0634986 0)
(0.907948 0.069538 0)
(0.929528 0.0753806 0)
(0.949339 0.0816072 0)
(0.965029 0.0864143 0)
(0.971122 0.0935056 0)
(0.973841 0.0984679 0)
(0.980369 0.100245 0)
(0.981753 0.107934 0)
(0.982788 0.111746 0)
(0.988147 0.11524 0)
(0.988728 0.122201 0)
(0.993083 0.123114 0)
(0.999353 0.129006 0)
(1.00112 0.133438 0)
(1.00312 0.135999 0)
(1.00792 0.141693 0)
(1.00997 0.144009 0)
(1.01491 0.148273 6.29482e-026)
(0.659195 0.00401711 -2.37894e-027)
(0.674514 0.009285 0)
(0.691365 0.0159598 0)
(0.709606 0.0227045 0)
(0.729077 0.0294479 0)
(0.749599 0.0362377 0)
(0.770985 0.0430857 0)
(0.793039 0.0499727 0)
(0.815552 0.056876 0)
(0.838298 0.0637765 0)
(0.861024 0.0706544 0)
(0.883438 0.0774775 0)
(0.90524 0.0841623 0)
(0.926659 0.0904148 0)
(0.942615 0.0987722 0)
(0.950858 0.103046 0)
(0.95886 0.106623 0)
(0.958655 0.115891 0)
(0.961036 0.117782 0)
(0.965931 0.124029 0)
(0.968804 0.129451 0)
(0.976176 0.132227 0)
(0.978266 0.139994 0)
(0.97893 0.142609 0)
(0.983649 0.146268 0)
(0.988503 0.152926 0)
(0.992742 0.154371 0)
(0.999298 0.160165 0)
(1.00235 0.163132 1.25297e-027)
(0.635342 0.00446938 7.95156e-026)
(0.650172 0.010277 0)
(0.666588 0.0176736 0)
(0.684452 0.0251475 0)
(0.703605 0.0326229 0)
(0.723873 0.0401558 0)
(0.745073 0.0477604 0)
(0.767012 0.0554167 0)
(0.789487 0.0630998 0)
(0.812285 0.0707867 0)
(0.835169 0.0784472 0)
(0.857864 0.086032 0)
(0.879982 0.093415 0)
(0.900965 0.101054 0)
(0.919898 0.106901 0)
(0.933029 0.114225 0)
(0.934345 0.121975 0)
(0.9408 0.123865 0)
(0.943904 0.133267 0)
(0.947495 0.13703 0)
(0.952334 0.142032 0)
(0.95345 0.149075 0)
(0.959138 0.151556 0)
(0.967522 0.159055 0)
(0.968666 0.163266 0)
(0.973251 0.166177 0)
(0.979125 0.172288 0)
(0.981521 0.175353 0)
(0.988564 0.17967 -7.19521e-026)
(0.610478 0.00493587 0)
(0.624796 0.0113109 0)
(0.640754 0.0194608 0)
(0.658215 0.027694 0)
(0.677025 0.0359304 0)
(0.697016 0.0442333 0)
(0.718009 0.0526185 0)
(0.739816 0.0610631 0)
(0.762239 0.069538 0)
(0.785071 0.0780154 0)
(0.808089 0.0864651 0)
(0.831061 0.0948424 0)
(0.853812 0.103036 0)
(0.876802 0.110619 0)
(0.897239 0.119999 0)
(0.908739 0.126316 0)
(0.917944 0.131527 0)
(0.917284 0.142117 0)
(0.922795 0.143813 0)
(0.928236 0.151928 0)
(0.932136 0.157805 0)
(0.940658 0.162133 0)
(0.942358 0.17029 0)
(0.945409 0.173014 0)
(0.952635 0.179465 0)
(0.958648 0.184867 0)
(0.963219 0.187967 0)
(0.970897 0.195057 0)
(0.972285 0.198023 0)
(0.58472 0.00541963 0)
(0.598508 0.012386 0)
(0.613986 0.0213183 0)
(0.631022 0.0303401 0)
(0.649467 0.0393681 0)
(0.66916 0.0484742 0)
(0.689928 0.0576757 0)
(0.71159 0.0669476 0)
(0.733961 0.0762583 0)
(0.756848 0.0855774 0)
(0.780047 0.0948684 0)
(0.803337 0.10408 0)
(0.826426 0.113114 0)
(0.84897 0.122267 0)
(0.872197 0.129862 0)
(0.885484 0.139871 0)
(0.889675 0.148192 0)
(0.901253 0.151502 0)
(0.90424 0.162831 0)
(0.909842 0.165661 0)
(0.913398 0.172982 0)
(0.915636 0.180763 0)
(0.925336 0.183385 0)
(0.933077 0.193832 0)
(0.935629 0.196234 0)
(0.941658 0.20095 0)
(0.946966 0.208573 0)
(0.952643 0.211103 0)
(0.963968 0.217792 8.48895e-026)
(0.558183 0.00591162 0)
(0.571423 0.0134901 0)
(0.586401 0.0232266 0)
(0.602988 0.0330588 0)
(0.621044 0.0429028 0)
(0.640414 0.0528396 0)
(0.66093 0.062889 0)
(0.682421 0.073025 0)
(0.704707 0.0832152 0)
(0.727603 0.0934303 0)
(0.750912 0.103641 0)
(0.774439 0.113806 0)
(0.798023 0.123829 0)
(0.821819 0.133361 0)
(0.84323 0.144806 0)
(0.861223 0.152498 0)
(0.8736 0.160559 0)
(0.875072 0.170192 0)
(0.883935 0.172771 0)
(0.887013 0.184173 0)
(0.894034 0.190057 0)
(0.902685 0.196525 0)
(0.904039 0.20446 0)
(0.911491 0.206769 0)
(0.921741 0.217294 0)
(0.926623 0.221952 0)
(0.931249 0.226219 0)
(0.938561 0.232062 0)
(0.944288 0.236288 1.18361e-027)
(0.530999 0.00640805 0)
(0.543677 0.0146153 0)
(0.558133 0.0251709 0)
(0.574247 0.035829 0)
(0.591882 0.0465075 0)
(0.61089 0.0572976 0)
(0.631115 0.0682221 0)
(0.652388 0.079255 0)
(0.674538 0.0903633 0)
(0.697385 0.101517 0)
(0.720732 0.11268 0)
(0.744363 0.123813 0)
(0.768017 0.134842 0)
(0.791438 0.145885 0)
(0.816691 0.155258 0)
(0.834428 0.168514 0)
(0.845852 0.175158 0)
(0.860136 0.183192 0)
(0.861321 0.196532 0)
(0.867469 0.197575 0)
(0.871557 0.207397 0)
(0.878342 0.214563 0)
(0.891206 0.221604 0)
(0.894796 0.231327 0)
(0.900289 0.232659 0)
(0.907558 0.241657 0)
(0.918726 0.247931 0)
(0.924846 0.252877 0)
(0.933757 0.25953 -1.94749e-025)
(0.503314 0.00689878 0)
(0.515418 0.0157455 0)
(0.529335 0.0271229 0)
(0.544947 0.0386092 0)
(0.562129 0.0501268 0)
(0.580739 0.0617773 0)
(0.600626 0.0735864 0)
(0.621633 0.085528 0)
(0.643594 0.0975691 0)
(0.666338 0.109678 0)
(0.689689 0.121822 0)
(0.713459 0.133954 0)
(0.737507 0.145989 0)
(0.761863 0.157664 0)
(0.785465 0.17057 0)
(0.811208 0.179573 0)
(0.823779 0.192416 0)
(0.828644 0.199901 0)
(0.841949 0.205493 0)
(0.846218 0.223104 0)
(0.854517 0.224472 0)
(0.860881 0.233926 0)
(0.86492 0.241099 0)
(0.876887 0.246311 0)
(0.888664 0.260277 0)
(0.891745 0.261722 0)
(0.898459 0.268196 0)
(0.909267 0.274987 0)
(0.916299 0.279608 -1.03914e-027)
(0.475294 0.00737546 0)
(0.486818 0.0168658 0)
(0.50018 0.0290555 0)
(0.515268 0.0413597 0)
(0.531966 0.0537077 0)
(0.550142 0.0662111 0)
(0.569654 0.078898 0)
(0.590351 0.0917418 0)
(0.612077 0.104708 0)
(0.634672 0.117761 0)
(0.657975 0.13087 0)
(0.681806 0.143988 0)
(0.705981 0.157031 0)
(0.730434 0.169936 0)
(0.756705 0.18181 0)
(0.779554 0.197115 0)
(0.798051 0.205411 0)
(0.811786 0.219196 0)
(0.813812 0.228665 0)
(0.824484 0.232001 0)
(0.831448 0.247144 0)
(0.841134 0.251807 0)
(0.851981 0.262999 0)
(0.853304 0.26993 0)
(0.862848 0.274147 0)
(0.879741 0.288392 0)
(0.885208 0.290281 0)
(0.8942 0.298286 0)
(0.903018 0.303473 1.1144e-025)
(0.447111 0.00783098 0)
(0.458052 0.0179645 0)
(0.470849 0.0309481 0)
(0.485394 0.0440512 0)
(0.501582 0.0572131 0)
(0.519292 0.0705553 0)
(0.538391 0.0841086 0)
(0.558737 0.0978469 0)
(0.580185 0.111736 0)
(0.602587 0.125742 0)
(0.625798 0.139835 0)
(0.649672 0.153966 0)
(0.674066 0.168063 0)
(0.698911 0.181952 0)
(0.723678 0.196453 0)
(0.751904 0.208393 0)
(0.769044 0.225019 0)
(0.781627 0.233628 0)
(0.79942 0.244434 0)
(0.800917 0.259497 0)
(0.812438 0.261882 0)
(0.816442 0.274541 0)
(0.82648 0.281729 0)
(0.844456 0.29366 0)
(0.845252 0.301025 0)
(0.855128 0.303838 0)
(0.871374 0.318072 0)
(0.878428 0.320406 0)
(0.88985 0.328026 1.20035e-025)
(0.418933 0.00825949 0)
(0.429294 0.0190319 0)
(0.441517 0.0327833 0)
(0.455502 0.0466591 0)
(0.471154 0.0606121 0)
(0.488363 0.0747738 0)
(0.507005 0.0891787 0)
(0.526949 0.103803 0)
(0.548058 0.118615 0)
(0.570193 0.133588 0)
(0.593213 0.14869 0)
(0.61698 0.163894 0)
(0.641359 0.179148 0)
(0.666292 0.194356 0)
(0.692786 0.208957 0)
(0.716804 0.226855 0)
(0.744519 0.236892 0)
(0.756717 0.254517 0)
(0.766323 0.261926 0)
(0.784781 0.271836 0)
(0.788126 0.290764 0)
(0.800726 0.292565 0)
(0.804127 0.304664 0)
(0.814599 0.312631 0)
(0.836766 0.324036 0)
(0.838951 0.333563 0)
(0.849728 0.336318 0)
(0.866592 0.349752 0)
(0.874346 0.352571 -1.2752e-025)
(0.390925 0.00865346 0)
(0.400711 0.0200556 0)
(0.412357 0.0345389 0)
(0.425766 0.0491504 0)
(0.440857 0.0638596 0)
(0.457531 0.0788074 0)
(0.475672 0.0940313 0)
(0.495158 0.10951 0)
(0.515861 0.125215 0)
(0.537652 0.141121 0)
(0.560402 0.1572 0)
(0.583973 0.173407 0)
(0.608226 0.189706 0)
(0.633061 0.206016 0)
(0.658426 0.222199 0)
(0.687206 0.237446 0)
(0.709871 0.257482 0)
(0.733011 0.264745 0)
(0.745744 0.285709 0)
(0.752763 0.293674 0)
(0.770736 0.30207 0)
(0.775299 0.322502 0)
(0.789914 0.324252 0)
(0.796019 0.338353 0)
(0.806586 0.345573 0)
(0.829989 0.356333 0)
(0.833608 0.366952 0)
(0.845669 0.369212 0)
(0.865223 0.383555 1.36254e-025)
(0.363247 0.00900699 0)
(0.372469 0.0210254 0)
(0.383538 0.036196 0)
(0.396362 0.0514976 0)
(0.410874 0.0669192 0)
(0.426984 0.08261 0)
(0.444588 0.0986098 0)
(0.463569 0.1149 0)
(0.483811 0.131458 0)
(0.505193 0.148259 0)
(0.527594 0.165276 0)
(0.55091 0.182484 0)
(0.575009 0.199839 0)
(0.599824 0.217268 0)
(0.625737 0.234609 0)
(0.65139 0.252516 0)
(0.682834 0.269066 0)
(0.701177 0.288973 0)
(0.71845 0.296266 0)
(0.734342 0.316834 0)
(0.740077 0.327223 0)
(0.758534 0.335605 0)
(0.763348 0.354476 0)
(0.780051 0.358006 0)
(0.790289 0.372435 0)
(0.80056 0.380921 0)
(0.82467 0.390385 0)
(0.829401 0.402409 0)
(0.843962 0.405412 -2.89872e-025)
(0.336049 0.00931525 0)
(0.344723 0.0219325 0)
(0.355219 0.0377386 0)
(0.367454 0.0536778 0)
(0.381373 0.0697611 0)
(0.396897 0.0861449 0)
(0.413929 0.102871 0)
(0.432365 0.119926 0)
(0.452093 0.13729 0)
(0.473003 0.154946 0)
(0.494981 0.172869 0)
(0.517927 0.191045 0)
(0.541749 0.209435 0)
(0.566339 0.227972 0)
(0.591746 0.246576 0)
(0.62002 0.264791 0)
(0.644922 0.285403 0)
(0.676534 0.30093 0)
(0.689163 0.321789 0)
(0.703606 0.329311 0)
(0.723071 0.348525 0)
(0.728589 0.363238 0)
(0.748612 0.37077 0)
(0.754522 0.389015 0)
(0.772496 0.39381 0)
(0.786172 0.409449 0)
(0.797114 0.417842 0)
(0.822308 0.425975 0)
(0.828846 0.438228 3.42832e-028)
(0.309467 0.00957414 0)
(0.317613 0.0227686 0)
(0.327547 0.0391519 0)
(0.339192 0.05567 0)
(0.352509 0.0723578 0)
(0.367428 0.0893775 0)
(0.383862 0.106773 0)
(0.401712 0.124536 0)
(0.420877 0.142652 0)
(0.441253 0.16111 0)
(0.46274 0.179893 0)
(0.485242 0.19898 0)
(0.508684 0.218334 0)
(0.532975 0.237922 0)
(0.558155 0.257661 0)
(0.584149 0.277633 0)
(0.615567 0.296998 0)
(0.637781 0.31968 0)
(0.667785 0.334553 0)
(0.677786 0.35741 0)
(0.69108 0.364929 0)
(0.712655 0.383015 0)
(0.718573 0.400176 0)
(0.740675 0.407368 0)
(0.747518 0.425933 0)
(0.767064 0.431432 0)
(0.783625 0.447748 0)
(0.796196 0.456919 0)
(0.821673 0.463238 7.65226e-028)
(0.283628 0.0097803 0)
(0.291267 0.0235257 0)
(0.300652 0.0404221 0)
(0.311713 0.0574544 0)
(0.324423 0.0746836 0)
(0.338725 0.0922758 0)
(0.354537 0.110278 0)
(0.371768 0.128685 0)
(0.390324 0.147492 0)
(0.410111 0.166693 0)
(0.431035 0.186278 0)
(0.45301 0.206229 0)
(0.475973 0.226542 0)
(0.499848 0.247183 0)
(0.524661 0.268062 0)
(0.551067 0.289207 0)
(0.577419 0.311333 0)
(0.610755 0.331433 0)
(0.628394 0.355038 0)
(0.656977 0.369457 0)
(0.666303 0.393683 0)
(0.679497 0.402377 0)
(0.703511 0.419739 0)
(0.710162 0.438288 0)
(0.73446 0.446823 0)
(0.743217 0.464413 0)
(0.764958 0.47086 0)
(0.785554 0.488635 0)
(0.799555 0.496361 1.73563e-025)
(0.258642 0.00993083 0)
(0.2658 0.0241959 0)
(0.274653 0.0415349 0)
(0.285138 0.0590114 0)
(0.297243 0.0767132 0)
(0.310918 0.0948088 0)
(0.326089 0.113347 0)
(0.342672 0.132331 0)
(0.36058 0.151761 0)
(0.379724 0.171642 0)
(0.40002 0.191972 0)
(0.421384 0.21274 0)
(0.443754 0.233953 0)
(0.467098 0.255581 0)
(0.491301 0.277572 0)
(0.516783 0.299852 0)
(0.545346 0.322573 0)
(0.570991 0.347343 0)
(0.603995 0.36738 0)
(0.617833 0.390764 0)
(0.645926 0.406455 0)
(0.655549 0.431413 0)
(0.670453 0.443032 0)
(0.696694 0.459822 0)
(0.70429 0.479083 0)
(0.730887 0.488851 0)
(0.741597 0.504582 0)
(0.765462 0.513217 0)
(0.791671 0.529286 -1.81784e-025)
(0.234606 0.0100232 0)
(0.241311 0.0247709 0)
(0.249652 0.042476 0)
(0.259574 0.0603213 0)
(0.271078 0.0784216 0)
(0.284124 0.0969458 0)
(0.298641 0.115945 0)
(0.314551 0.135429 0)
(0.331773 0.15541 0)
(0.350225 0.175898 0)
(0.369829 0.196903 0)
(0.390511 0.218425 0)
(0.412204 0.240456 0)
(0.434904 0.263012 0)
(0.458574 0.286041 0)
(0.483139 0.309518 0)
(0.509486 0.333532 0)
(0.540632 0.357657 0)
(0.564161 0.38578 0)
(0.596319 0.404661 0)
(0.607696 0.43076 0)
(0.63568 0.445585 0)
(0.645099 0.470808 0)
(0.662954 0.485228 0)
(0.691443 0.501597 0)
(0.70149 0.523156 0)
(0.732241 0.532065 0)
(0.742849 0.548624 0)
(0.771378 0.558192 1.93707e-025)
(0.211606 0.0100552 0)
(0.217888 0.025242 0)
(0.225739 0.0432308 0)
(0.235112 0.0613645 0)
(0.246025 0.0797845 0)
(0.25844 0.0986574 0)
(0.272294 0.118037 0)
(0.287512 0.137942 0)
(0.304017 0.158393 0)
(0.321735 0.179412 0)
(0.340591 0.201017 0)
(0.360521 0.223221 0)
(0.381465 0.246025 0)
(0.403393 0.269445 0)
(0.426347 0.293522 0)
(0.450476 0.317996 0)
(0.475614 0.343501 0)
(0.502656 0.369396 0)
(0.535233 0.395193 0)
(0.556295 0.424962 0)
(0.586412 0.444184 0)
(0.597767 0.472551 0)
(0.626138 0.486721 0)
(0.637021 0.515226 0)
(0.65885 0.528962 0)
(0.68798 0.547353 0)
(0.703675 0.568488 0)
(0.736611 0.576296 0)
(0.750676 0.595861 0)
(0.189715 0.0100245 0)
(0.195604 0.0256004 0)
(0.202987 0.0437845 0)
(0.21183 0.0621221 0)
(0.222162 0.0807786 0)
(0.233951 0.0999163 0)
(0.247137 0.119592 0)
(0.261647 0.139833 0)
(0.27741 0.160674 0)
(0.294354 0.182144 0)
(0.312412 0.204274 0)
(0.331525 0.227087 0)
(0.351638 0.250604 0)
(0.372714 0.274833 0)
(0.394811 0.299792 0)
(0.41794 0.325624 0)
(0.442974 0.351599 0)
(0.468531 0.379882 0)
(0.495713 0.407441 0)
(0.529038 0.435097 0)
(0.54615 0.466005 0)
(0.576588 0.487072 0)
(0.589152 0.516246 0)
(0.618639 0.532766 0)
(0.633229 0.562118 0)
(0.65733 0.576089 0)
(0.688532 0.59751 0)
(0.709758 0.615325 0)
(0.744989 0.624952 2.1007e-025)
(0.168994 0.00992853 0)
(0.174521 0.0258373 0)
(0.181458 0.044123 0)
(0.189789 0.0625765 0)
(0.199553 0.0813831 0)
(0.210723 0.100698 0)
(0.223239 0.120582 0)
(0.23703 0.141074 0)
(0.252027 0.162218 0)
(0.268163 0.184058 0)
(0.285377 0.206635 0)
(0.303612 0.229985 0)
(0.322824 0.254141 0)
(0.342982 0.279121 0)
(0.364089 0.304962 0)
(0.386359 0.331625 0)
(0.409528 0.359643 0)
(0.436105 0.38733 0)
(0.461243 0.418834 0)
(0.488638 0.44846 0)
(0.520499 0.47746 0)
(0.535395 0.510742 0)
(0.567991 0.533111 0)
(0.581084 0.563348 0)
(0.614011 0.58201 0)
(0.633661 0.610602 0)
(0.660096 0.627442 0)
(0.696172 0.649019 0)
(0.719902 0.665438 -5.14867e-027)
(0.149492 0.00976423 0)
(0.154688 0.0259444 0)
(0.161199 0.0442334 0)
(0.169035 0.0627129 0)
(0.178247 0.0815814 0)
(0.188807 0.100985 0)
(0.200652 0.120987 0)
(0.213716 0.141639 0)
(0.227929 0.163 0)
(0.243226 0.185127 0)
(0.259551 0.208074 0)
(0.276856 0.231891 0)
(0.295102 0.25662 0)
(0.314264 0.282304 0)
(0.334348 0.308932 0)
(0.355405 0.336716 0)
(0.377923 0.365143 0)
(0.400971 0.396425 0)
(0.429206 0.42524 0)
(0.452766 0.461589 0)
(0.480564 0.492219 0)
(0.510288 0.523758 0)
(0.526352 0.559406 0)
(0.562002 0.581966 0)