/*--------------------------------*- C++ -*----------------------------------*\
| =========                 |                                                 |
| \\      /  F ield         | OpenFOAM: The Open Source CFD Toolbox           |
|  \\    /   O peration     | Version:  5.x                                   |
|   \\  /    A nd           | Web:      www.OpenFOAM.org                      |
|    \\/     M anipulation  |                                                 |
\*---------------------------------------------------------------------------*/
/*   Windows 32 and 64 bit porting by blueCAPE: http://www.bluecape.com.pt   *\
|  Based on Windows porting (2.0.x v4) by Symscape: http://www.symscape.com   |
\*---------------------------------------------------------------------------*/
FoamFile
{
    version     2.0;
    format      ascii;
    class       volScalarField;
    location    "290";
    object      epsilon;
}
// * * * * * * * * * * * * * * * * * * * * * * * * * * * * * * * * * * * * * //

dimensions      [0 2 -3 0 0 0 0];

internalField   nonuniform List<scalar> 
43900
(
0.00152925
0.00151909
0.00151979
0.00151971
0.00151968
0.00151967
0.00151967
0.00151967
0.00151967
0.00151967
0.00151967
0.00151967
0.00151968
0.00151968
0.00151968
0.00151968
0.00151968
0.00151969
0.00151969
0.00151969
0.00151969
0.00151969
0.00151969
0.00151969
0.00151969
0.00151969
0.00151969
0.00151969
0.00151969
0.000413697
3.81845e-005
3.16663e-005
3.15204e-005
3.27304e-005
3.27937e-005
3.28065e-005
3.27923e-005
3.27924e-005
3.27958e-005
3.27937e-005
3.27959e-005
3.27997e-005
3.28035e-005
3.28042e-005
3.28042e-005
3.28088e-005
3.28104e-005
3.28101e-005
3.28116e-005
3.28105e-005
3.28114e-005
3.28141e-005
3.28133e-005
3.28141e-005
3.2815e-005
3.28136e-005
3.28151e-005
3.28169e-005
0.0508163
0.00574733
0.000289139
1.14582e-005
1.70933e-006
1.32773e-006
1.32672e-006
1.40982e-006
1.41881e-006
1.4176e-006
1.41652e-006
1.41659e-006
1.41709e-006
1.4176e-006
1.41781e-006
1.41817e-006
1.41859e-006
1.41865e-006
1.41891e-006
1.41912e-006
1.41923e-006
1.41951e-006
1.41965e-006
1.41969e-006
1.4199e-006
1.41997e-006
1.42004e-006
1.42025e-006
1.42028e-006
0.146363
0.0436887
0.00964531
0.00131326
8.29187e-005
3.3851e-006
3.40229e-007
1.22343e-007
1.08346e-007
1.15606e-007
1.19914e-007
1.2016e-007
1.19604e-007
1.19491e-007
1.19619e-007
1.19678e-007
1.19677e-007
1.19702e-007
1.19748e-007
1.19769e-007
1.19793e-007
1.19825e-007
1.19845e-007
1.19866e-007
1.19892e-007
1.19907e-007
1.19927e-007
1.19945e-007
1.19955e-007
0.197806
0.0845417
0.0338666
0.0112489
0.00264657
0.000356692
2.24237e-005
9.63603e-007
8.42098e-008
2.22489e-008
1.64972e-008
1.72045e-008
1.84518e-008
1.86154e-008
1.84304e-008
1.84219e-008
1.84868e-008
1.84829e-008
1.84745e-008
1.84819e-008
1.84884e-008
1.84926e-008
1.84964e-008
1.85012e-008
1.85058e-008
1.8508e-008
1.8511e-008
1.85153e-008
1.85184e-008
0.222788
0.109147
0.053308
0.0251057
0.0104999
0.00331682
0.000706282
7.73321e-005
4.27542e-006
2.01988e-007
1.90644e-008
5.52067e-009
4.10324e-009
4.44831e-009
4.74049e-009
4.71461e-009
4.6318e-009
4.65349e-009
4.67271e-009
4.67044e-009
4.67272e-009
4.67676e-009
4.677e-009
4.67734e-009
4.67841e-009
4.67938e-009
4.68088e-009
4.68192e-009
4.68213e-009
0.234421
0.123779
0.0661938
0.0353498
0.0184006
0.00892974
0.00356969
0.000975829
0.000153004
1.164e-005
5.9671e-007
3.25626e-008
4.32078e-009
1.72314e-009
1.53095e-009
1.67692e-009
1.75165e-009
1.71381e-009
1.70354e-009
1.7078e-009
1.7051e-009
1.70303e-009
1.70513e-009
1.70696e-009
1.70718e-009
1.70724e-009
1.70749e-009
1.70784e-009
1.70824e-009
0.237516
0.13131
0.073932
0.0420477
0.0238563
0.0132394
0.00693051
0.00315886
0.00102873
0.000213187
2.21992e-005
1.3462e-006
7.43281e-008
5.26273e-009
1.19332e-009
7.31355e-010
7.53185e-010
8.16022e-010
8.10061e-010
8.03169e-010
8.08314e-010
8.08314e-010
8.05133e-010
8.04926e-010
8.05848e-010
8.06396e-010
8.06726e-010
8.06985e-010
8.07146e-010
0.236917
0.135564
0.0791759
0.0469394
0.0280255
0.0166679
0.0097098
0.00538354
0.00268374
0.00101808
0.000245495
3.12473e-005
2.21682e-006
1.33428e-007
8.65357e-009
1.07536e-009
4.71329e-010
4.06349e-010
4.49015e-010
4.57587e-010
4.5106e-010
4.53237e-010
4.57134e-010
4.56163e-010
4.54827e-010
4.54893e-010
4.55098e-010
4.55261e-010
4.55382e-010
0.232686
0.136207
0.0815916
0.0497737
0.0307458
0.0190914
0.0117974
0.00714602
0.0041367
0.00217626
0.000915393
0.000243292
3.53063e-005
2.85241e-006
1.89209e-007
1.28488e-008
1.19783e-009
3.76478e-010
2.62705e-010
2.78141e-010
2.89713e-010
2.85142e-010
2.85606e-010
2.88061e-010
2.88672e-010
2.88274e-010
2.88242e-010
2.88374e-010
2.8842e-010
0.225612
0.1345
0.0820026
0.0510239
0.0322483
0.0205932
0.0131959
0.00840454
0.00524498
0.00313197
0.00171032
0.000767881
0.000216699
3.41367e-005
3.05847e-006
2.23899e-007
1.64444e-008
1.44059e-009
3.13028e-010
1.9279e-010
1.90292e-010
1.99398e-010
1.96564e-010
1.94432e-010
1.96162e-010
1.97468e-010
1.97495e-010
1.9744e-010
1.97519e-010
0.217682
0.131718
0.0815642
0.0515566
0.0331565
0.0216025
0.0141874
0.00933036
0.00608831
0.00388778
0.00237496
0.00133033
0.000620257
0.000180948
3.01094e-005
2.93066e-006
2.35095e-007
1.8739e-008
1.66381e-009
2.83949e-010
1.54162e-010
1.3743e-010
1.47985e-010
1.46785e-010
1.43759e-010
1.44019e-010
1.44729e-010
1.45065e-010
1.45018e-010
0.208834
0.128009
0.0803084
0.0514308
0.0335502
0.022211
0.014862
0.0100016
0.00672525
0.00447752
0.00291162
0.00180848
0.00102949
0.000488882
0.000143946
2.44945e-005
2.53588e-006
2.21436e-007
1.91861e-008
1.79013e-009
2.71813e-010
1.32116e-010
1.07588e-010
1.14742e-010
1.16233e-010
1.14144e-010
1.13323e-010
1.13597e-010
1.13928e-010
0.19926
0.123514
0.0783648
0.0507939
0.0335204
0.0224896
0.0152783
0.0104681
0.0071976
0.00493377
0.00334081
0.00220413
0.00138536
0.000795468
0.000378912
0.000110129
1.86434e-005
2.04236e-006
1.95469e-007
1.85759e-008
1.86131e-009
2.72179e-010
1.13945e-010
8.8907e-011
9.26899e-011
9.64024e-011
9.51472e-011
9.43844e-011
9.427e-011
0.189166
0.118421
0.0758891
0.0496974
0.0331773
0.0225002
0.0154842
0.0107678
0.00753621
0.00528158
0.00368171
0.00252895
0.0016878
0.00106928
0.000615343
0.000289901
8.23321e-005
1.39113e-005
1.62061e-006
1.6989e-007
1.77291e-008
1.92988e-009
2.80198e-010
1.01171e-010
7.57413e-011
7.64725e-011
8.01696e-011
8.00373e-011
7.94814e-011
0.178738
0.112911
0.0730144
0.0482639
0.032535
0.0223146
0.0155195
0.0109301
0.00776339
0.00553821
0.00394747
0.00279196
0.00194059
0.00130623
0.000830822
0.000476256
0.000219159
6.04547e-005
1.02202e-005
1.26684e-006
1.44909e-007
1.65037e-008
1.94245e-009
2.8526e-010
9.22592e-011
6.59446e-011
6.24908e-011
6.57939e-011
6.69266e-011
0.168149
0.10713
0.0698651
0.0465812
0.0316862
0.0219401
0.015426
0.0109817
0.00789956
0.00571964
0.0041508
0.00300307
0.00215066
0.00150924
0.00102188
0.000650242
0.00036914
0.00016358
4.37615e-005
7.46171e-006
9.8994e-007
1.23508e-007
1.53275e-008
1.95385e-009
2.95904e-010
8.7108e-011
5.87386e-011
5.13399e-011
5.3631e-011
0.157497
0.101167
0.0665149
0.0447145
0.0306749
0.0214315
0.0152152
0.0109468
0.00796484
0.00584226
0.00430487
0.00317276
0.00232608
0.00168388
0.00119098
0.000809622
0.00051417
0.000287931
0.000121473
3.16484e-005
5.51531e-006
7.87502e-007
1.07171e-007
1.45106e-008
2.00507e-009
3.15877e-010
8.57851e-011
5.25007e-011
4.412e-011
0.146863
0.0950926
0.0630191
0.042706
0.029539
0.0208147
0.0149115
0.0108366
0.00796402
0.00591177
0.00441554
0.00330647
0.0024714
0.00183342
0.00133969
0.000953581
0.000649754
0.000410954
0.000226153
8.98695e-005
2.29743e-005
4.13618e-006
6.36792e-007
9.44258e-008
1.3898e-008
2.06896e-009
3.39438e-010
8.64771e-011
4.71645e-011
0.13633
0.0889717
0.0594262
0.0405913
0.0283041
0.0201114
0.0145341
0.0106604
0.00791866
0.00593917
0.00448965
0.00340892
0.00259021
0.00196065
0.00146989
0.00108278
0.000774676
0.000528395
0.000332294
0.000179234
6.61769e-005
1.67936e-005
3.15935e-006
5.25739e-007
8.46234e-008
1.34917e-008
2.16046e-009
3.71291e-010
8.88744e-011
0.125969
0.0828602
0.0557781
0.0384007
0.026992
0.0193373
0.014094
0.0104307
0.00782154
0.00592727
0.00453122
0.00348386
0.00268554
0.00206785
0.00158318
0.00119807
0.000888822
0.00063864
0.000435783
0.000272443
0.000144426
5.07297e-005
1.27224e-005
2.49902e-006
4.45699e-007
7.70646e-008
1.31654e-008
2.25508e-009
4.00485e-010
0.115853
0.0768119
0.0521139
0.0361626
0.0256231
0.0185071
0.0136025
0.0101547
0.0076847
0.00588294
0.0045423
0.00353278
0.00275871
0.00215612
0.00168033
0.00129973
0.00099177
0.000740278
0.000533716
0.00036404
0.000226033
0.000116924
3.98411e-005
9.93947e-006
2.0377e-006
3.87114e-007
7.15659e-008
1.30677e-008
2.33858e-009
0.10605
0.0708787
0.0484714
0.033904
0.0242169
0.0176349
0.0130699
0.00984094
0.00751367
0.00580517
0.00452896
0.00356003
0.00281274
0.00222761
0.00176287
0.00138881
0.0010841
0.000833318
0.000625293
0.000452026
0.000307961
0.000189556
9.50959e-005
3.18604e-005
8.04131e-006
1.72452e-006
3.47639e-007
6.83877e-008
1.30105e-008
0.0966211
0.0651071
0.0448851
0.0316503
0.0227917
0.016734
0.0125059
0.00949663
0.00731421
0.00570275
0.00449217
0.00356536
0.00284804
0.00228297
0.00183146
0.00146584
0.00116612
0.000917722
0.000710002
0.000535178
0.000387664
0.000263623
0.000160768
7.80661e-005
2.59363e-005
6.67926e-006
1.49926e-006
3.18746e-007
6.47997e-008
0.0876207
0.0595384
0.0413859
0.0294244
0.0213646
0.0158169
0.01192
0.0091287
0.00709174
0.00557844
0.0044344
0.00355519
0.00286872
0.00232491
0.00188793
0.00153204
0.00123858
0.000993864
0.000787787
0.000612893
0.000463713
0.000336339
0.000228171
0.000137756
6.45926e-005
2.14064e-005
5.65133e-006
1.32637e-006
2.89894e-007
0.0790912
0.0542072
0.0380006
0.0272464
0.0199505
0.014895
0.0113204
0.00874341
0.00685084
0.00543599
0.0043601
0.0035285
0.00287396
0.00235348
0.00193273
0.00158805
0.00130214
0.00106226
0.000858959
0.000685161
0.000535619
0.00040648
0.000295034
0.000199552
0.000119196
5.38252e-005
1.78584e-005
4.84155e-006
1.15826e-006
0.0710647
0.0491409
0.034751
0.0251332
0.0185624
0.0139781
0.0107148
0.00834674
0.00659628
0.00527928
0.00427152
0.00348757
0.00286811
0.00237145
0.00196772
0.00163512
0.00135768
0.00112356
0.000923932
0.000752158
0.000603254
0.000473498
0.00036018
0.000261441
0.000176158
0.000104056
4.51691e-005
1.50434e-005
4.08944e-006
0.0635623
0.0443596
0.031654
0.0230986
0.0172113
0.0130748
0.0101099
0.00794383
0.00633209
0.00511161
0.00417177
0.00343634
0.00285205
0.00237993
0.00199413
0.00167447
0.00140628
0.00117866
0.000983434
0.000814412
0.000666908
0.000537381
0.000423193
0.000322449
0.000233891
0.00015692
9.15279e-005
3.83909e-005
1.25453e-005
0.0565947
0.0398764
0.028722
0.0211531
0.0159055
0.0121918
0.00951104
0.00753899
0.00606169
0.00493561
0.00406281
0.00337546
0.00282567
0.00237915
0.00201244
0.00170666
0.00144857
0.00122821
0.00103808
0.000872478
0.000727029
0.000598412
0.000484111
0.000382268
0.000291578
0.000211261
0.000141067
8.11449e-005
3.26595e-005
0.0501636
0.0356982
0.025963
0.0193041
0.0146518
0.0113345
0.00892265
0.00713581
0.00578803
0.00475377
0.0039469
0.00330742
0.00279285
0.00237292
0.0020249
0.00173319
0.00148562
0.00127304
0.00108858
0.000926942
0.000784106
0.000656968
0.000543159
0.000440898
0.000348892
0.000266283
0.000192635
0.000128141
7.09005e-005
0.0442629
0.0318266
0.0233814
0.0175567
0.0134546
0.0105072
0.00834817
0.00673711
0.00551338
0.00456791
0.0038254
0.00323312
0.00275357
0.00235974
0.00203149
0.00175458
0.00151812
0.00131387
0.00113557
0.000978404
0.000838663
0.000713481
0.000600654
0.000498502
0.000405779
0.000321612
0.000245484
0.00017732
0.000116571
0.0388799
0.0282588
0.0209783
0.0159136
0.0123172
0.00971266
0.0077902
0.00634507
0.00523956
0.00437952
0.00369957
0.00315361
0.00270868
0.00234083
0.00203234
0.00177099
0.00154636
0.00135108
0.00117952
0.00102734
0.000891178
0.000768405
0.000656996
0.000555393
0.000462423
0.000377239
0.000299294
0.000228344
0.000164522
0.0339969
0.0249883
0.0187527
0.0143759
0.0112415
0.00895299
0.00725062
0.00596136
0.00496796
0.00418975
0.00357035
0.00306975
0.00265917
0.00231762
0.00202967
0.00178371
0.00157112
0.00138522
0.00122089
0.0010742
0.00094209
0.000822175
0.000712608
0.000611961
0.000519148
0.000433375
0.000354104
0.000281033
0.000214262
0.0295925
0.0220059
0.0167013
0.0129433
0.0102283
0.00822952
0.00673084
0.00558721
0.00469963
0.00399947
0.00343845
0.00298207
0.00260539
0.00229013
0.0020228
0.00179275
0.00159269
0.00141665
0.00126006
0.00111936
0.000991788
0.000875197
0.000767906
0.000668618
0.000576346
0.00049036
0.000410158
0.000335435
0.000266132
0.0256423
0.0193006
0.0148195
0.0116144
0.00927793
0.00754307
0.00623182
0.00522358
0.00443539
0.00380933
0.00330433
0.0028909
0.00254751
0.00225834
0.00201151
0.00179801
0.00161108
0.00144551
0.00129723
0.00116309
0.0010406
0.000927839
0.00082329
0.000725787
0.000634442
0.000548603
0.000467814
0.000391799
0.000320424
0.0221198
0.0168596
0.0131018
0.0103872
0.00838995
0.00689409
0.0057543
0.0048712
0.00417587
0.00361981
0.00316837
0.00279647
0.00248571
0.0022224
0.00199623
0.0017993
0.00162617
0.00147174
0.00133246
0.00120553
0.00108876
0.000980409
0.000879136
0.000783897
0.000693902
0.000608578
0.000527532
0.000450528
0.000377445
0.0189975
0.014669
0.0115415
0.00925903
0.00756366
0.00628277
0.00529882
0.0045307
0.00392164
0.00343136
0.00303085
0.00269896
0.00242003
0.00218236
0.00197706
0.00179737
0.00163822
0.00149543
0.00136578
0.00124677
0.00113641
0.00103315
0.000935787
0.000843377
0.000755226
0.000670836
0.000589879
0.000512176
0.000437658
0.0162466
0.0127142
0.0101317
0.00822672
0.00679806
0.00570912
0.00486584
0.00420265
0.00367321
0.00324436
0.00289201
0.00259844
0.00235044
0.00213807
0.00195374
0.00179173
0.00164701
0.00151643
0.00139711
0.00128678
0.00118363
0.00108626
0.000993554
0.000904663
0.000818961
0.000736012
0.000655551
0.000577459
0.000501737
0.0138384
0.0109801
0.00886452
0.00728682
0.00609188
0.005173
0.00445573
0.00388758
0.00343111
0.00305923
0.0027521
0.002495
0.00227685
0.00208925
0.00192573
0.00178124
0.00165168
0.00153416
0.00142605
0.00132531
0.00123034
0.00113981
0.00105269
0.000968182
0.0008857
0.000804846
0.000725396
0.000647289
0.000570599
0.0117438
0.00945088
0.00773199
0.00643547
0.00544361
0.00467414
0.00406881
0.00358606
0.0031959
0.00287642
0.00261142
0.00238874
0.00219919
0.00203569
0.00189273
0.00176591
0.00165159
0.00154798
0.00145201
0.00136192
0.00127622
0.00119369
0.00111332
0.00103431
0.000956068
0.000878188
0.000800455
0.000722838
0.000645477
0.00993368
0.00811064
0.00672556
0.00566842
0.00485144
0.00421208
0.00370532
0.00329861
0.00296818
0.00269647
0.00247034
0.00227987
0.00211746
0.00197719
0.00185444
0.0017455
0.00164748
0.00155773
0.0014745
0.001396
0.00132077
0.00124757
0.00117536
0.00110327
0.00103063
0.000956959
0.000881963
0.000805592
0.000728012
0.00837966
0.00694316
0.0058363
0.00498108
0.00431332
0.00378622
0.00336546
0.00302583
0.00274869
0.00252008
0.00232948
0.00216881
0.00203185
0.00191372
0.00181054
0.00171924
0.00163732
0.00156198
0.00149241
0.00142658
0.0013631
0.00130073
0.00123835
0.00117497
0.00110974
0.00104198
0.000971232
0.000897296
0.000820281
0.00705393
0.00593227
0.00505509
0.00436857
0.00382696
0.00339586
0.00304945
0.00276846
0.0025384
0.00234832
0.00218982
0.00205642
0.00194305
0.00184572
0.00176122
0.00168695
0.00162071
0.00156042
0.00150502
0.00145271
0.00140218
0.00135216
0.00130145
0.00124885
0.00119327
0.00113371
0.00106937
0.000999713
0.000924619
0.00592989
0.00506211
0.00437273
0.00382591
0.00339003
0.00304031
0.00275767
0.00252753
0.00233877
0.00218284
0.00205311
0.00194441
0.00185265
0.0017746
0.00170764
0.00164964
0.00159881
0.00155371
0.00151233
0.00147395
0.00143723
0.00140089
0.0013636
0.00132398
0.00128061
0.00123204
0.00117695
0.00111422
0.00104321
0.00498257
0.00431751
0.00378032
0.00334822
0.0030003
0.00271916
0.00249091
0.00230469
0.00215201
0.00202626
0.00192223
0.00183579
0.0017637
0.00170334
0.00165263
0.00160984
0.00157354
0.00154249
0.00151533
0.00149102
0.00146854
0.00144674
0.00142427
0.0013996
0.00137098
0.00133645
0.00129398
0.0012416
0.00117769
0.00418909
0.00368437
0.00326952
0.00293104
0.00265597
0.00243249
0.00225065
0.00210245
0.00198145
0.00188254
0.00180159
0.00173535
0.00168119
0.00163706
0.00160128
0.00157253
0.00154973
0.00153191
0.00151815
0.0015071
0.00149852
0.00149143
0.00148452
0.00147619
0.00146444
0.00144669
0.00142043
0.00138238
0.00132929
0.00352899
0.00314997
0.00283284
0.0025705
0.00235581
0.00218101
0.00203915
0.00192433
0.00183167
0.00175714
0.00169743
0.00164992
0.00161246
0.0015834
0.00156146
0.00154563
0.00153526
0.00152959
0.00152716
0.00152828
0.00153252
0.00153968
0.00154825
0.0015568
0.00156323
0.0015638
0.00155749
0.0015383
0.00149969
0.00298435
0.00270308
0.00246373
0.00226343
0.00209915
0.00196609
0.00185942
0.00177481
0.00170843
0.00165702
0.00161776
0.00158847
0.00156727
0.00155284
0.00154416
0.00154043
0.00154073
0.00154416
0.00155217
0.00156447
0.00158069
0.00160068
0.00162374
0.00164874
0.00167384
0.00169569
0.00171063
0.00170991
0.00169167
0.00253966
0.00233392
0.00215649
0.00200716
0.00188573
0.00178943
0.00171496
0.00165902
0.00161845
0.00159047
0.0015723
0.00156225
0.00155817
0.00155845
0.00156153
0.00156815
0.00157832
0.00159192
0.00160966
0.00163192
0.00165847
0.00168972
0.00172569
0.00176587
0.001809
0.00185212
0.001891
0.00191513
0.00191273
0.00218143
0.00203378
0.00190592
0.00179918
0.00171522
0.00165267
0.00160923
0.00158233
0.00156903
0.00156703
0.00157263
0.00158316
0.00159724
0.00161396
0.00163248
0.00165246
0.00167415
0.00169806
0.00172507
0.00175627
0.00179175
0.00183265
0.00187976
0.00193334
0.0019931
0.00205663
0.00212048
0.00217182
0.00219225
0.0018977
0.00179466
0.00170697
0.00163675
0.00158686
0.00155694
0.00154533
0.00155011
0.00156798
0.0015954
0.00162952
0.00166857
0.00170944
0.00175034
0.0017902
0.00182859
0.00186577
0.00190264
0.00194058
0.00198102
0.00202546
0.00207564
0.00213307
0.00219885
0.00227391
0.00235659
0.00244568
0.00252504
0.00257492
0.00167755
0.0016089
0.00155442
0.00151659
0.00149913
0.00150259
0.00152551
0.00156665
0.00162207
0.00169004
0.00176637
0.00184739
0.00192914
0.00200847
0.00208326
0.00215233
0.00221576
0.00227462
0.00233079
0.00238698
0.00244575
0.0025096
0.00258085
0.00266147
0.00275358
0.00285657
0.00297189
0.00308102
0.00316755
0.0015109
0.001469
0.00144273
0.00143482
0.00144959
0.00148873
0.00155156
0.00163747
0.00174468
0.0018698
0.00200795
0.00215405
0.00230258
0.00244837
0.00258722
0.00271627
0.0028344
0.00294205
0.0030412
0.00313673
0.0032315
0.00332886
0.0034324
0.00354549
0.00367067
0.00381089
0.00396503
0.00412616
0.00426809
0.00138844
0.0013677
0.00136621
0.00138678
0.00143535
0.00151417
0.00162521
0.00176955
0.00194595
0.00215209
0.00238341
0.00263375
0.00289571
0.00316145
0.00342372
0.00367674
0.00391685
0.00414273
0.00435526
0.00456005
0.00476138
0.0049642
0.00517279
0.00539289
0.00562206
0.00588014
0.00612138
0.00645027
0.00666483
0.00130176
0.00129815
0.00131898
0.00136818
0.00145265
0.00157732
0.00174704
0.00196553
0.00223518
0.00255651
0.00292719
0.00334203
0.00379326
0.00427142
0.00476678
0.00527077
0.00577729
0.0062834
0.00678932
0.00729795
0.00782142
0.00836884
0.00894833
0.0095738
0.0102268
0.0109973
0.0116091
0.0128204
0.0130636
0.00124344
0.00125396
0.0012959
0.00137412
0.00149763
0.00167492
0.00191492
0.00222693
0.00261958
0.00309987
0.00367181
0.00433578
0.00508843
0.00592349
0.00683356
0.00781232
0.00885682
0.00996939
0.0111593
0.0124404
0.0138352
0.0153897
0.0171475
0.0191677
0.0214653
0.0243322
0.0269771
0.0326692
0.0332885
0.00120709
0.00122954
0.00129191
0.00139974
0.00156564
0.00180227
0.0021251
0.00255172
0.00310096
0.0037916
0.00464071
0.0056624
0.00686731
0.00826341
0.00985819
0.0116621
0.0136927
0.0159793
0.0185685
0.0215264
0.0249525
0.0289664
0.0337871
0.0396528
0.0469999
0.0564253
0.067735
0.0891597
0.0971896
0.00118749
0.00122005
0.00130242
0.00144061
0.00165165
0.00195399
0.0023717
0.00293398
0.00367477
0.00463163
0.00584418
0.00735277
0.00919797
0.0114218
0.0140709
0.0172025
0.0208916
0.025242
0.0303997
0.036566
0.0440377
0.053196
0.0647203
0.0792669
0.098805
0.124147
0.16195
0.218644
0.267411
0.00118112
0.00122214
0.00132446
0.00149324
0.00175181
0.00212534
0.00264883
0.00336669
0.00433368
0.00561475
0.00728456
0.00942724
0.0121371
0.015522
0.0197089
0.024855
0.0311621
0.0388981
0.0484296
0.0602549
0.0751049
0.0939362
0.118474
0.150423
0.195374
0.254328
0.3535
0.477003
0.661426
0.00151969
0.00151969
0.00151969
0.00151969
0.00151969
0.00151969
0.0015197
0.0015197
0.0015197
0.00151969
0.00151969
0.0015197
0.0015197
0.0015197
0.00151969
0.00151969
0.00151969
0.0015197
0.00151969
0.00151969
0.00151969
0.00151969
0.00151969
0.0015197
0.0015197
0.0015197
0.0015197
0.00151969
0.00151969
0.00151969
0.00151969
0.0015197
0.0015197
0.0015197
0.0015197
0.0015197
0.0015197
0.0015197
0.0015197
0.0015197
0.0015197
0.0015197
0.0015197
0.0015197
0.0015197
0.0015197
0.0015197
0.0015197
0.0015197
0.0015197
0.0015197
0.0015197
0.0015197
0.0015197
0.0015197
0.0015197
0.0015197
0.0015197
0.0015197
0.0015197
0.0015197
0.0015197
0.0015197
0.0015197
0.0015197
0.0015197
0.0015197
0.0015197
0.00151971
0.00151971
0.00151971
0.00151971
0.0015197
0.00151971
0.00151971
0.00151971
0.00151971
0.0015197
0.00151971
0.0015197
0.00151971
0.0015197
0.00151971
0.00151971
0.00151971
0.00151971
0.00151971
0.00151971
0.00151971
0.00151971
0.00151971
0.00151971
0.00151971
0.00151971
0.00151971
0.00151971
0.00151971
0.00151971
0.00151971
0.00151971
0.00151971
0.00151971
0.00151971
0.00151971
0.00151971
0.00151971
0.00151971
0.00151971
0.00151971
0.00151971
0.00151971
0.00151971
0.00151971
0.00151971
0.00151971
0.00151971
0.00151971
0.00151971
0.00151971
0.00151971
0.00151971
0.00151971
0.00151971
0.00151971
0.00151971
0.00151971
0.00151971
0.00151971
0.00151971
0.00151971
0.00151971
0.00151971
0.00151971
0.00151972
0.00151972
0.00151972
0.00151972
0.00151973
0.001542
3.28164e-005
3.28189e-005
3.28207e-005
3.28168e-005
3.28135e-005
3.28181e-005
3.28259e-005
3.28278e-005
3.28219e-005
3.28149e-005
3.28164e-005
3.28259e-005
3.28319e-005
3.28266e-005
3.28161e-005
3.28119e-005
3.28176e-005
3.28229e-005
3.28221e-005
3.28186e-005
3.28176e-005
3.282e-005
3.28228e-005
3.28239e-005
3.28251e-005
3.28269e-005
3.28259e-005
3.28194e-005
3.28161e-005
3.28167e-005
3.28215e-005
3.28267e-005
3.28273e-005
3.28275e-005
3.28276e-005
3.28277e-005
3.28278e-005
3.2828e-005
3.28281e-005
3.28282e-005
3.28283e-005
3.28281e-005
3.28273e-005
3.28265e-005
3.28264e-005
3.28268e-005
3.28272e-005
3.2828e-005
3.28283e-005
3.28288e-005
3.28291e-005
3.28295e-005
3.28298e-005
3.28301e-005
3.28305e-005
3.28309e-005
3.28311e-005
3.28316e-005
3.28318e-005
3.28323e-005
3.28326e-005
3.28329e-005
3.28335e-005
3.28335e-005
3.2834e-005
3.28341e-005
3.28347e-005
3.28343e-005
3.28355e-005
3.2835e-005
3.28351e-005
3.28364e-005
3.28346e-005
3.28364e-005
3.28353e-005
3.28363e-005
3.28354e-005
3.28349e-005
3.28357e-005
3.28337e-005
3.28357e-005
3.28343e-005
3.2836e-005
3.2838e-005
3.28385e-005
3.2838e-005
3.28363e-005
3.28377e-005
3.28374e-005
3.2839e-005
3.28399e-005
3.28404e-005
3.28408e-005
3.28409e-005
3.28409e-005
3.28411e-005
3.28406e-005
3.2841e-005
3.28407e-005
3.28407e-005
3.28407e-005
3.28405e-005
3.28405e-005
3.28403e-005
3.28402e-005
3.284e-005
3.284e-005
3.28397e-005
3.28396e-005
3.28393e-005
3.28391e-005
3.28388e-005
3.28386e-005
3.28383e-005
3.2838e-005
3.28375e-005
3.28371e-005
3.28368e-005
3.28368e-005
3.28369e-005
3.2837e-005
3.28371e-005
3.28374e-005
3.28378e-005
3.28382e-005
3.28386e-005
3.28392e-005
3.28398e-005
3.28402e-005
3.28414e-005
3.28422e-005
3.28439e-005
3.2844e-005
3.28491e-005
3.28463e-005
3.28523e-005
3.28561e-005
3.2866e-005
3.45843e-005
1.42038e-006
1.42059e-006
1.42048e-006
1.42029e-006
1.42059e-006
1.42115e-006
1.42123e-006
1.42077e-006
1.42036e-006
1.42058e-006
1.4212e-006
1.42154e-006
1.42111e-006
1.4205e-006
1.42043e-006
1.42092e-006
1.42164e-006
1.42185e-006
1.42195e-006
1.42218e-006
1.42244e-006
1.42257e-006
1.42246e-006
1.42247e-006
1.42252e-006
1.42252e-006
1.42242e-006
1.42238e-006
1.4224e-006
1.42248e-006
1.42266e-006
1.42263e-006
1.4227e-006
1.42278e-006
1.42286e-006
1.4229e-006
1.42294e-006
1.42297e-006
1.423e-006
1.42304e-006
1.42305e-006
1.42304e-006
1.42302e-006
1.42305e-006
1.4231e-006
1.42318e-006
1.42325e-006
1.42334e-006
1.4234e-006
1.42347e-006
1.42352e-006
1.42358e-006
1.42363e-006
1.42368e-006
1.42373e-006
1.42378e-006
1.4238e-006
1.42385e-006
1.42388e-006
1.42392e-006
1.42395e-006
1.42399e-006
1.42403e-006
1.42406e-006
1.4241e-006
1.42413e-006
1.42417e-006
1.42419e-006
1.42424e-006
1.42425e-006
1.42429e-006
1.42434e-006
1.42431e-006
1.42442e-006
1.4244e-006
1.42444e-006
1.42449e-006
1.4245e-006
1.42457e-006
1.42458e-006
1.42463e-006
1.42462e-006
1.42471e-006
1.42474e-006
1.42477e-006
1.42483e-006
1.42489e-006
1.42494e-006
1.42495e-006
1.42499e-006
1.42499e-006
1.42501e-006
1.42504e-006
1.42507e-006
1.42509e-006
1.42512e-006
1.4251e-006
1.42515e-006
1.42513e-006
1.42515e-006
1.42515e-006
1.42514e-006
1.42514e-006
1.42512e-006
1.42512e-006
1.42509e-006
1.4251e-006
1.42504e-006
1.42503e-006
1.42498e-006
1.42496e-006
1.42489e-006
1.42487e-006
1.4248e-006
1.42476e-006
1.42469e-006
1.42465e-006
1.42459e-006
1.42457e-006
1.42455e-006
1.42453e-006
1.42449e-006
1.42448e-006
1.42446e-006
1.42443e-006
1.42441e-006
1.42441e-006
1.42432e-006
1.42435e-006
1.42442e-006
1.42426e-006
1.4245e-006
1.42441e-006
1.42484e-006
1.42442e-006
1.42772e-006
1.38555e-006
1.33567e-006
4.41422e-006
1.19979e-007
1.19998e-007
1.20003e-007
1.20025e-007
1.20062e-007
1.20073e-007
1.20055e-007
1.20052e-007
1.2008e-007
1.20129e-007
1.20141e-007
1.20126e-007
1.20107e-007
1.20114e-007
1.2015e-007
1.20182e-007
1.20224e-007
1.20253e-007
1.20271e-007
1.20276e-007
1.20267e-007
1.2027e-007
1.20297e-007
1.2033e-007
1.20346e-007
1.20349e-007
1.20332e-007
1.20317e-007
1.20313e-007
1.20321e-007
1.20343e-007
1.20384e-007
1.20404e-007
1.20418e-007
1.20432e-007
1.20443e-007
1.20454e-007
1.20465e-007
1.20476e-007
1.20485e-007
1.20493e-007
1.205e-007
1.2051e-007
1.20523e-007
1.20537e-007
1.2055e-007
1.20563e-007
1.20575e-007
1.20587e-007
1.20599e-007
1.20611e-007
1.20623e-007
1.20634e-007
1.20646e-007
1.20657e-007
1.20667e-007
1.20678e-007
1.20688e-007
1.20698e-007
1.20708e-007
1.20718e-007
1.20729e-007
1.20739e-007
1.20749e-007
1.20759e-007
1.20768e-007
1.20778e-007
1.20788e-007
1.20797e-007
1.20807e-007
1.20816e-007
1.20827e-007
1.20837e-007
1.2085e-007
1.20854e-007
1.20864e-007
1.20869e-007
1.20878e-007
1.20886e-007
1.20893e-007
1.20907e-007
1.20912e-007
1.20922e-007
1.20928e-007
1.20937e-007
1.20939e-007
1.20942e-007
1.2095e-007
1.20955e-007
1.20963e-007
1.20971e-007
1.20976e-007
1.2098e-007
1.20984e-007
1.20988e-007
1.20992e-007
1.20995e-007
1.20999e-007
1.21e-007
1.21003e-007
1.21004e-007
1.21005e-007
1.21005e-007
1.21004e-007
1.21004e-007
1.21001e-007
1.21e-007
1.20995e-007
1.20992e-007
1.20986e-007
1.20982e-007
1.20974e-007
1.20968e-007
1.20959e-007
1.20951e-007
1.2094e-007
1.2093e-007
1.20918e-007
1.20908e-007
1.20898e-007
1.20887e-007
1.20874e-007
1.20862e-007
1.2085e-007
1.20835e-007
1.20818e-007
1.20806e-007
1.20787e-007
1.2077e-007
1.20756e-007
1.20812e-007
1.20691e-007
1.2069e-007
1.21868e-007
1.20996e-007
1.09285e-007
2.10012e-007
1.52476e-005
0.00199125
1.85223e-008
1.85269e-008
1.85298e-008
1.85315e-008
1.85337e-008
1.8538e-008
1.85436e-008
1.85485e-008
1.85496e-008
1.85495e-008
1.85507e-008
1.85562e-008
1.85608e-008
1.85615e-008
1.85643e-008
1.85708e-008
1.85788e-008
1.85838e-008
1.85854e-008
1.85889e-008
1.85963e-008
1.8602e-008
1.86078e-008
1.86076e-008
1.86091e-008
1.86103e-008
1.86107e-008
1.86134e-008
1.86175e-008
1.86216e-008
1.86287e-008
1.86322e-008
1.86334e-008
1.86376e-008
1.86421e-008
1.86463e-008
1.86503e-008
1.86543e-008
1.86581e-008
1.86619e-008
1.86655e-008
1.86693e-008
1.8673e-008
1.86766e-008
1.86802e-008
1.86839e-008
1.86876e-008
1.86914e-008
1.8695e-008
1.86986e-008
1.87022e-008
1.87057e-008
1.87092e-008
1.87127e-008
1.87162e-008
1.87196e-008
1.87229e-008
1.87263e-008
1.87296e-008
1.8733e-008
1.87363e-008
1.87395e-008
1.87429e-008
1.87459e-008
1.87493e-008
1.87522e-008
1.87556e-008
1.8758e-008
1.87617e-008
1.87641e-008
1.87669e-008
1.87709e-008
1.87725e-008
1.87766e-008
1.87775e-008
1.87807e-008
1.87821e-008
1.87836e-008
1.87867e-008
1.87893e-008
1.87918e-008
1.87932e-008
1.87955e-008
1.8798e-008
1.88009e-008
1.8802e-008
1.88044e-008
1.88068e-008
1.88077e-008
1.88098e-008
1.88111e-008
1.88134e-008
1.8815e-008
1.88162e-008
1.88171e-008
1.88181e-008
1.88187e-008
1.88196e-008
1.88201e-008
1.88206e-008
1.88209e-008
1.88211e-008
1.88211e-008
1.8821e-008
1.88207e-008
1.88201e-008
1.88196e-008
1.88186e-008
1.88176e-008
1.88162e-008
1.88148e-008
1.8813e-008
1.8811e-008
1.88087e-008
1.88063e-008
1.88036e-008
1.88006e-008
1.87972e-008
1.8794e-008
1.87908e-008
1.87873e-008
1.87834e-008
1.87795e-008
1.87753e-008
1.87707e-008
1.87652e-008
1.87606e-008
1.87536e-008
1.87214e-008
1.87802e-008
1.86216e-008
1.87882e-008
1.89503e-008
1.66699e-008
1.74187e-008
1.01407e-007
8.67965e-006
0.000809082
0.0178273
4.68354e-009
4.68498e-009
4.68541e-009
4.6863e-009
4.68853e-009
4.69082e-009
4.69154e-009
4.69105e-009
4.69109e-009
4.6933e-009
4.69612e-009
4.69747e-009
4.6974e-009
4.69738e-009
4.69862e-009
4.7012e-009
4.70355e-009
4.70583e-009
4.70799e-009
4.71024e-009
4.71169e-009
4.71208e-009
4.71281e-009
4.71426e-009
4.71556e-009
4.71664e-009
4.71829e-009
4.72024e-009
4.72099e-009
4.72178e-009
4.72338e-009
4.72459e-009
4.7266e-009
4.72816e-009
4.72975e-009
4.73133e-009
4.73291e-009
4.73449e-009
4.73607e-009
4.73764e-009
4.73919e-009
4.7407e-009
4.74213e-009
4.74355e-009
4.74504e-009
4.74659e-009
4.74814e-009
4.74972e-009
4.75124e-009
4.75278e-009
4.75427e-009
4.75577e-009
4.75723e-009
4.75868e-009
4.76013e-009
4.76156e-009
4.76294e-009
4.76435e-009
4.7657e-009
4.76708e-009
4.76841e-009
4.76973e-009
4.77106e-009
4.7723e-009
4.77359e-009
4.7748e-009
4.77603e-009
4.77719e-009
4.7784e-009
4.77946e-009
4.78061e-009
4.78181e-009
4.78302e-009
4.78416e-009
4.78495e-009
4.7859e-009
4.78676e-009
4.78778e-009
4.78867e-009