/*--------------------------------*- C++ -*----------------------------------*\
| =========                 |                                                 |
| \\      /  F ield         | OpenFOAM: The Open Source CFD Toolbox           |
|  \\    /   O peration     | Version:  5.x                                   |
|   \\  /    A nd           | Web:      www.OpenFOAM.org                      |
|    \\/     M anipulation  |                                                 |
\*---------------------------------------------------------------------------*/
/*   Windows 32 and 64 bit porting by blueCAPE: http://www.bluecape.com.pt   *\
|  Based on Windows porting (2.0.x v4) by Symscape: http://www.symscape.com   |
\*---------------------------------------------------------------------------*/
FoamFile
{
    version     2.0;
    format      ascii;
    class       volScalarField;
    location    "290";
    object      k;
}
// * * * * * * * * * * * * * * * * * * * * * * * * * * * * * * * * * * * * * //

dimensions      [0 2 -2 0 0 0 0];

internalField   nonuniform List<scalar> 
43900
(
0.000985516
0.000989437
0.000990249
0.000990178
0.000990128
0.000990116
0.000990121
0.000990122
0.000990122
0.000990125
0.000990122
0.000990124
0.000990127
0.00099013
0.000990131
0.000990131
0.000990134
0.000990136
0.000990135
0.000990136
0.000990135
0.000990136
0.000990138
0.000990137
0.000990138
0.000990139
0.000990137
0.000990139
0.00099014
0.00164846
5.59932e-005
3.89323e-005
3.81747e-005
4.08119e-005
4.09675e-005
4.09894e-005
4.09576e-005
4.0957e-005
4.09614e-005
4.09593e-005
4.09618e-005
4.09666e-005
4.09714e-005
4.09724e-005
4.09727e-005
4.09784e-005
4.09803e-005
4.09801e-005
4.0982e-005
4.09807e-005
4.0982e-005
4.09853e-005
4.09843e-005
4.09854e-005
4.09865e-005
4.09849e-005
4.09869e-005
4.09889e-005
0.294306
0.0539563
0.00409366
0.000117446
4.99345e-006
3.0835e-006
2.97836e-006
3.34489e-006
3.38111e-006
3.3758e-006
3.37059e-006
3.37055e-006
3.37204e-006
3.37331e-006
3.37377e-006
3.37464e-006
3.37558e-006
3.37574e-006
3.37637e-006
3.37685e-006
3.37712e-006
3.37778e-006
3.37808e-006
3.37821e-006
3.37871e-006
3.37887e-006
3.37906e-006
3.37956e-006
3.3796e-006
0.879458
0.376161
0.11975
0.0237248
0.00206397
8.18777e-005
3.98258e-006
5.89422e-007
4.57768e-007
4.99006e-007
5.33926e-007
5.3612e-007
5.31395e-007
5.30306e-007
5.31223e-007
5.31535e-007
5.31406e-007
5.31527e-007
5.31752e-007
5.31838e-007
5.3194e-007
5.3208e-007
5.32161e-007
5.3226e-007
5.32368e-007
5.32432e-007
5.32517e-007
5.32593e-007
5.32636e-007
1.2899
0.739173
0.394749
0.176443
0.0560607
0.0102973
0.000822746
3.75476e-005
1.70353e-006
2.30064e-007
1.28776e-007
1.27454e-007
1.45116e-007
1.48022e-007
1.45212e-007
1.45048e-007
1.45986e-007
1.45888e-007
1.45722e-007
1.458e-007
1.45861e-007
1.45882e-007
1.45909e-007
1.45946e-007
1.45981e-007
1.45998e-007
1.46023e-007
1.46056e-007
1.46075e-007
1.547
0.984196
0.616842
0.369932
0.198778
0.0832399
0.0231778
0.00328341
0.000212292
1.03123e-005
5.47343e-007
9.63698e-008
5.39202e-008
5.51569e-008
6.19779e-008
6.16074e-008
5.95048e-008
6.00411e-008
6.05051e-008
6.04299e-008
6.04708e-008
6.05519e-008
6.05477e-008
6.05438e-008
6.05562e-008
6.05705e-008
6.0588e-008
6.05982e-008
6.06009e-008
1.71292
1.15151
0.774593
0.514975
0.331449
0.198771
0.100561
0.035046
0.00705946
0.000648358
3.62266e-005
1.92792e-006
1.35395e-007
3.93552e-008
2.88867e-008
3.17035e-008
3.49406e-008
3.35163e-008
3.30118e-008
3.31703e-008
3.30546e-008
3.29711e-008
3.30515e-008
3.31046e-008
3.31014e-008
3.30975e-008
3.31005e-008
3.3108e-008
3.31168e-008
1.81068
1.25791
0.879667
0.614832
0.424958
0.285657
0.181266
0.102112
0.0429846
0.0111885
0.00141947
9.5159e-005
5.47645e-006
3.37423e-007
4.16586e-008
2.13173e-008
1.88824e-008
2.16033e-008
2.18119e-008
2.14611e-008
2.17217e-008
2.17191e-008
2.1537e-008
2.15214e-008
2.15699e-008
2.15944e-008
2.16029e-008
2.16085e-008
2.16106e-008
1.87806
1.33632
0.95975
0.692437
0.498541
0.354894
0.24629
0.162704
0.0975451
0.0465828
0.0139839
0.00217158
0.000171905
1.09142e-005
7.01961e-007
6.03064e-008
1.94728e-008
1.44036e-008
1.5217e-008
1.60429e-008
1.55717e-008
1.56777e-008
1.59494e-008
1.58749e-008
1.57707e-008
1.57728e-008
1.5781e-008
1.57866e-008
1.57913e-008
1.9041
1.37767
1.00821
0.743578
0.550075
0.405674
0.295744
0.210443
0.143107
0.089265
0.0462032
0.0151388
0.00266582
0.000240622
1.68329e-005
1.16834e-006
9.41012e-008
1.8369e-008
1.19979e-008
1.14162e-008
1.2356e-008
1.21227e-008
1.20728e-008
1.22697e-008
1.23364e-008
1.22897e-008
1.22778e-008
1.22838e-008
1.22862e-008
1.90407
1.39426
1.03374
0.773947
0.583
0.439899
0.33056
0.245409
0.177873
0.123436
0.0790719
0.0430108
0.0148277
0.00280948
0.000279836
2.15245e-005
1.62897e-006
1.33592e-007
1.98215e-008
1.09566e-008
9.34187e-009
9.9506e-009
9.90413e-009
9.69311e-009
9.79109e-009
9.93225e-009
9.9279e-009
9.91452e-009
9.91734e-009
1.8951
1.40166
1.05019
0.795299
0.606999
0.465328
0.356783
0.272091
0.204812
0.150448
0.105873
0.0689884
0.0385908
0.0137696
0.00272246
0.000291721
2.44362e-005
2.00401e-006
1.7298e-007
2.27588e-008
9.87195e-009
8.20948e-009
8.5077e-009
8.51685e-009
8.31222e-009
8.26931e-009
8.34669e-009
8.38597e-009
8.37642e-009
1.87318
1.39752
1.05633
0.807599
0.62298
0.483518
0.376327
0.292502
0.225807
0.171839
0.12748
0.0905421
0.0595558
0.0336661
0.0121087
0.00241619
0.000272005
2.46534e-005
2.19151e-006
2.02551e-007
2.54488e-008
9.25356e-009
7.4471e-009
7.51247e-009
7.73534e-009
7.5583e-009
7.40416e-009
7.42045e-009
7.46671e-009
1.84073
1.38391
1.0541
0.812374
0.632255
0.495718
0.39045
0.307926
0.242147
0.188844
0.144961
0.108311
0.0773494
0.051039
0.0287939
0.010041
0.00196984
0.000232163
2.30033e-005
2.24202e-006
2.2497e-007
2.84844e-008
9.02989e-009
6.8815e-009
6.78202e-009
7.08825e-009
7.05978e-009
6.9795e-009
6.92943e-009
1.79998
1.36219
1.04501
0.811128
0.636126
0.503051
0.400182
0.319339
0.254772
0.20237
0.159168
0.123018
0.0923714
0.0661299
0.0435672
0.024336
0.00818681
0.00157707
0.000195368
2.11231e-005
2.25717e-006
2.47124e-007
3.22742e-008
9.05496e-009
6.60254e-009
6.08597e-009
6.40352e-009
6.56433e-009
6.51762e-009
1.75273
1.33442
1.02996
0.804971
0.635604
0.506437
0.406304
0.327446
0.264335
0.213029
0.170667
0.135166
0.105
0.0790647
0.0565799
0.037048
0.0202509
0.00654586
0.00123988
0.000161681
1.90019e-005
2.21091e-006
2.61973e-007
3.55628e-008
9.324e-009
6.19647e-009
5.42249e-009
5.61376e-009
5.83062e-009
1.7005
1.30192
1.01061
0.794514
0.631621
0.506582
0.409488
0.332836
0.27138
0.221333
0.179949
0.145216
0.11565
0.0901601
0.0679544
0.0484805
0.0313989
0.0165942
0.005138
0.000964298
0.000133327
1.70298e-005
2.15399e-006
2.76581e-007
3.96722e-008
9.7341e-009
5.67945e-009
4.88508e-009
4.89024e-009
1.64421
1.26559
0.98775
0.780894
0.624444
0.504288
0.410387
0.336134
0.276467
0.227789
0.187476
0.153596
0.124715
0.0997673
0.0779668
0.0587424
0.0417032
0.0266252
0.0134652
0.00400298
0.000754936
0.000111483
1.54861e-005
2.13268e-006
2.97091e-007
4.51142e-008
1.03117e-008
5.35118e-009
4.5088e-009
1.58457
1.22606
0.961939
0.764609
0.614877
0.499531
0.40928
0.337599
0.279886
0.23271
0.193562
0.160605
0.132466
0.10812
0.0867975
0.0679284
0.0511017
0.0360436
0.0226154
0.0108415
0.00311329
0.0005974
9.45311e-005
1.42673e-005
2.13137e-006
3.19937e-007
5.10394e-008
1.11987e-008
5.20258e-009
1.52223
1.18387
0.933641
0.746045
0.603239
0.492894
0.406364
0.33739
0.281762
0.236193
0.198318
0.166376
0.139058
0.11538
0.0945984
0.0761573
0.0596434
0.044763
0.0313304
0.0192736
0.00865222
0.00242329
0.000479127
8.14659e-005
1.3304e-005
2.14762e-006
3.46485e-007
5.83115e-008
1.23932e-008
1.45771
1.13949
0.903244
0.725531
0.589814
0.484631
0.40192
0.335937
0.282408
0.238509
0.201948
0.171063
0.144609
0.121646
0.101459
0.0835087
0.0673862
0.0527918
0.0395182
0.0274489
0.0165847
0.0069102
0.00189351
0.000388188
7.06499e-005
1.23938e-005
2.14378e-006
3.70177e-007
6.48351e-008
1.39157
1.09335
0.87111
0.703359
0.574834
0.474917
0.396116
0.333071
0.281885
0.239749
0.20458
0.174813
0.149267
0.127051
0.107488
0.0900584
0.0743671
0.060116
0.047089
0.0351431
0.0242119
0.0143478
0.00554717
0.0015016
0.000320333
6.2154e-005
1.16712e-005
2.15945e-006
3.89957e-007
1.32436
1.04591
0.837605
0.679829
0.558551
0.463975
0.389165
0.329149
0.280322
0.239944
0.206223
0.177623
0.153034
0.131614
0.112718
0.0958508
0.0806323
0.0667725
0.054054
0.0423224
0.0314819
0.021504
0.0124484
0.00462763
0.00124752
0.00027641
5.67757e-005
1.13328e-005
2.18281e-006
1.25662
0.997601
0.803079
0.655229
0.541202
0.451999
0.381225
0.324283
0.277828
0.239397
0.207139
0.17972
0.1561
0.135484
0.117265
0.100973
0.0862462
0.0728039
0.0604326
0.0489737
0.0383174
0.0284027
0.0192242
0.0107864
0.00392201
0.00106641
0.000245887
5.31281e-005
1.094e-005
1.18885
0.948838
0.767872
0.629834
0.523012
0.439172
0.372446
0.3186
0.274545
0.238006
0.207215
0.18103
0.15842
0.138645
0.121134
0.105445
0.0912343
0.0782354
0.066241
0.055094
0.0446795
0.0349217
0.0257842
0.0172635
0.00936855
0.00335976
0.000928003
0.000222712
4.93527e-005
1.12153
0.90001
0.732299
0.603903
0.504196
0.425678
0.362986
0.312239
0.270599
0.235967
0.206773
0.181805
0.160199
0.141264
0.124461
0.109378
0.0956906
0.083144
0.0715403
0.0607262
0.0505861
0.0410376
0.0320298
0.0235421
0.0155827
0.00815287
0.00289751
0.000815729
0.0001988
1.0551
0.851465
0.696645
0.577673
0.484951
0.41168
0.352982
0.305316
0.266082
0.233354
0.205689
0.181945
0.161379
0.14331
0.127242
0.112786
0.0996387
0.0875602
0.076363
0.0659
0.056058
0.0467528
0.0379269
0.0295479
0.0216084
0.0141361
0.00709805
0.00250807
0.000703443
0.989934
0.80351
0.661163
0.551351
0.46545
0.397327
0.342566
0.297949
0.261108
0.230282
0.204146
0.181695
0.162154
0.144945
0.129606
0.115775
0.103168
0.091561
0.0807756
0.0706721
0.0611412
0.0520994
0.0434862
0.0352624
0.0274101
0.0199379
0.0128804
0.00618753
0.00212671
0.926335
0.756402
0.626065
0.525114
0.445842
0.382745
0.331844
0.290231
0.255758
0.226823
0.202221
0.181035
0.162527
0.146189
0.131589
0.118392
0.106333
0.0952032
0.0848362
0.0750996
0.0658892
0.0571238
0.0487428
0.0407039
0.0329824
0.0255738
0.018496
0.011795
0.00530267
0.864565
0.710353
0.591526
0.499107
0.426248
0.368036
0.320905
0.282239
0.250099
0.223033
0.199944
0.17999
0.162518
0.14707
0.133223
0.120672
0.109172
0.0985305
0.0885911
0.0792303
0.0703494
0.0618712
0.0537364
0.0459017
0.0383392
0.0310364
0.0239992
0.0172709
0.0106704
0.804827
0.665534
0.557687
0.473448
0.406767
0.353284
0.309821
0.274037
0.244191
0.218974
0.197394
0.178694
0.16229
0.147706
0.134601
0.122692
0.111752
0.101601
0.0920942
0.0831147
0.0745701
0.0663868
0.0585077
0.05089
0.0435042
0.0363337
0.0293771
0.0226518
0.0161652
0.747278
0.622076
0.524658
0.448228
0.387475
0.338553
0.298647
0.265673
0.238074
0.214679
0.194594
0.177136
0.161774
0.148077
0.135732
0.124479
0.11411
0.104458
0.0953908
0.0867998
0.0785983
0.0707169
0.0631013
0.0557097
0.0485124
0.0414909
0.0346388
0.0279626
0.0215011
0.692035
0.58008
0.492524
0.423517
0.36843
0.323892
0.287423
0.257179
0.231777
0.210173
0.191566
0.175338
0.16101
0.148198
0.136628
0.126045
0.116262
0.107125
0.0985114
0.090321
0.0824734
0.0749036
0.0675604
0.0604039
0.0534049
0.0465443
0.0398127
0.0332117
0.026763
0.639183
0.539623
0.461349
0.399369
0.349674
0.309333
0.276175
0.248577
0.225319
0.205473
0.188326
0.173326
0.16004
0.148128
0.137332
0.127427
0.118241
0.109632
0.101486
0.0937103
0.0862301
0.0789845
0.0719252
0.0650144
0.058224
0.0515347
0.044936
0.0384261
0.0320141
0.588783
0.500762
0.431185
0.375825
0.331243
0.294904
0.264923
0.239882
0.218709
0.200586
0.184881
0.171103
0.158868
0.147873
0.137858
0.128642
0.120066
0.112001
0.104339
0.0969956
0.0898997
0.0829942
0.0762335
0.0695816
0.0630116
0.0565047
0.0500497
0.0436432
0.0372889
0.54088
0.463544
0.402072
0.35292
0.313161
0.280623
0.253679
0.231098
0.211947
0.195508
0.181222
0.168657
0.157468
0.147382
0.138174
0.129673
0.121733
0.114236
0.107083
0.100195
0.0935064
0.0869624
0.0805197
0.0741442
0.0678098
0.0614982
0.0551983
0.0489059
0.0426231
0.495504
0.428007
0.374049
0.330687
0.295455
0.266508
0.242453
0.222231
0.205032
0.190232
0.177341
0.165976
0.155831
0.146662
0.138263
0.130504
0.123229
0.11633
0.109718
0.103317
0.0970653
0.0909117
0.0848139
0.0787387
0.0726606
0.0665616
0.0604306
0.0542634
0.0480622
0.45268
0.394187
0.347151
0.309158
0.278151
0.252577
0.231256
0.213282
0.19796
0.184748
0.17322
0.163042
0.153942
0.145703
0.138147
0.131137
0.124547
0.118276
0.112237
0.10636
0.100584
0.0948579
0.0891408
0.0833989
0.077606
0.0717437
0.0658006
0.0597727
0.0536626
0.412428
0.36212
0.32142
0.28837
0.261279
0.238854
0.220102
0.204258
0.190728
0.179046
0.168846
0.159833
0.151771
0.14447
0.137776
0.131533
0.125656
0.120046
0.114621
0.109311
0.104057
0.0988067
0.0935177
0.088154
0.082687
0.0770962
0.0713687
0.0654998
0.0594929
0.374764
0.331841
0.296896
0.268366
0.244878
0.225369
0.209015
0.195173
0.183341
0.173122
0.164202
0.156325
0.149286
0.142914
0.137067
0.131611
0.126493
0.121589
0.116826
0.112136
0.107461
0.102748
0.0979486
0.0930239
0.0879401
0.0826717
0.0772016
0.0715225
0.0656375
0.339699
0.303385
0.273626
0.249194
0.228994
0.212165
0.198029
0.186052
0.175815
0.166982
0.159284
0.152505
0.146463
0.141012
0.136026
0.131396
0.127032
0.122859
0.118799
0.114784
0.110752
0.106647
0.102416
0.0980099
0.0933882
0.0885157
0.0833671
0.0779281
0.0721981
0.307234
0.276785
0.251659
0.230911
0.213685
0.199296
0.187192
0.176937
0.168183
0.160648
0.154107
0.148373
0.143294
0.13874
0.134603
0.130794
0.127187
0.123781
0.120467
0.11718
0.113859
0.110441
0.106868
0.10308
0.0990245
0.0946506
0.0899184
0.0848
0.0792844
0.277365
0.252071
0.231047
0.21358
0.199022
0.186834
0.176576
0.167896
0.160506
0.154174
0.148711
0.143961
0.139792
0.136096
0.13278
0.12976
0.126955
0.124306
0.121757
0.119238
0.116686
0.114033
0.111214
0.108157
0.104792
0.10105
0.0968657
0.0921885
0.0869861
0.250077
0.229272
0.211845
0.197277
0.18509
0.174872
0.166279
0.159025
0.152879
0.147649
0.143179
0.139337
0.136016
0.133123
0.130581
0.128322
0.126285
0.124367
0.122597
0.120869
0.119127
0.117302
0.115324
0.11311
0.110571
0.107614
0.104143
0.100071
0.0953278
0.225347
0.208412
0.194115
0.182086
0.171993
0.163529
0.156426
0.150458
0.145437
0.141207
0.137639
0.134624
0.132074
0.129915
0.128083
0.126523
0.125187
0.124025
0.122966
0.122014
0.121087
0.120122
0.119044
0.117764
0.116178
0.114163
0.111589
0.108319
0.104227
0.203147
0.189517
0.17792
0.168104
0.159855
0.152949
0.147179
0.142367
0.138361
0.135032
0.132273
0.129998
0.128134
0.126623
0.125418
0.124478
0.123767
0.123257
0.122877
0.122649
0.122505
0.122386
0.122225
0.121932
0.12139
0.120451
0.118954
0.116703
0.113482
0.183441
0.172611
0.163331
0.155439
0.148813
0.143294
0.138722
0.134955
0.131865
0.129347
0.12731
0.125684
0.124414
0.123456
0.122779
0.122358
0.122168
0.122205
0.122426
0.122815
0.123377
0.124043
0.124761
0.12545
0.125992
0.126196
0.125929
0.12493
0.122803
0.16619
0.157712
0.150415
0.144197
0.13901
0.134739
0.131256
0.128443
0.126189
0.124403
0.123008
0.121945
0.121174
0.120667
0.120408
0.120391
0.120591
0.121046
0.121733
0.12265
0.123779
0.125112
0.126613
0.128218
0.129824
0.131261
0.132316
0.13256
0.131768
0.151339
0.144824
0.139223
0.134474
0.130577
0.127447
0.124974
0.123051
0.121576
0.120462
0.119643
0.119067
0.118707
0.118548
0.118596
0.118843
0.119326
0.120055
0.121045
0.122313
0.123864
0.125708
0.127841
0.130229
0.132803
0.135417
0.137848
0.139628
0.140147
0.138808
0.133923
0.129778
0.126332
0.123615
0.121553
0.120043
0.118979
0.118257
0.117787
0.117506
0.117367
0.11735
0.117452
0.117696
0.118105
0.118715
0.119566
0.120695
0.122138
0.123925
0.126081
0.128648
0.131627
0.134995
0.138649
0.142419
0.145784
0.148079
0.128479
0.124944
0.122058
0.119788
0.118175
0.117148
0.116593
0.116401
0.116452
0.116647
0.116917
0.117209
0.117501
0.117803
0.118158
0.118613
0.119224
0.120051
0.121154
0.122589
0.124414
0.126699
0.12947
0.132794
0.136711
0.141176
0.14614
0.151046
0.155445
0.120191
0.117772
0.115988
0.114802
0.114256
0.114273
0.114711
0.115463
0.116374
0.117303
0.11818
0.118953
0.119603
0.120143
0.120613
0.121079
0.121619
0.122318
0.123261
0.124533
0.126215
0.128404
0.131169
0.134583
0.138738
0.143686
0.149573
0.155811
0.162609
0.11374
0.112245
0.111442
0.111287
0.111806
0.112915
0.114459
0.116266
0.118179
0.120066
0.121805
0.123313
0.124548
0.125514
0.12625
0.126832
0.127356
0.127928
0.128667
0.129682
0.131083
0.132992
0.135511
0.138765
0.142883
0.147997
0.154385
0.16151
0.171014
0.108891
0.108168
0.10826
0.109106
0.110739
0.113036
0.115817
0.118924
0.122165
0.12536
0.128351
0.131018
0.13329
0.135143
0.136602
0.137726
0.138615
0.13939
0.140198
0.141177
0.142458
0.144191
0.146483
0.149526
0.153399
0.158479
0.164976
0.172827
0.184978
0.105399
0.105328
0.106255
0.108118
0.110927
0.114541
0.118807
0.123521
0.128468
0.133441
0.138251
0.142739
0.146793
0.150355
0.153419
0.156034
0.158294
0.160326
0.162256
0.164252
0.166484
0.169142
0.172298
0.176242
0.180768
0.186958
0.193549
0.203873
0.215901
0.103022
0.103509
0.105245
0.108148
0.11222
0.117342
0.123337
0.130004
0.137121
0.144465
0.151822
0.159006
0.165872
0.172334
0.178368
0.184018
0.189387
0.194628
0.199926
0.205509
0.211599
0.218424
0.226159
0.235347
0.245354
0.259016
0.270555
0.296327
0.299453
0.101534
0.102505
0.105041
0.109016
0.114465
0.121262
0.129249
0.138238
0.148019
0.158374
0.169087
0.179968
0.190865
0.201691
0.212433
0.223165
0.234042
0.245303
0.25726
0.270306
0.284896
0.301614
0.321061
0.344463
0.371255
0.407091
0.442146
0.517004
0.51568
0.10074
0.102132
0.10547
0.110558
0.117474
0.126108
0.136332
0.147989
0.160905
0.174892
0.189769
0.205374
0.221592
0.23838
0.255785
0.273966
0.293202
0.3139
0.336609
0.362031
0.391074
0.424867
0.464976
0.513641
0.572964
0.650442
0.743808
0.900787
0.948398
0.100506
0.102261
0.106417
0.112642
0.121108
0.131716
0.144386
0.159012
0.175479
0.193668
0.213468
0.234799
0.257637
0.282047
0.308212
0.336459
0.367288
0.401391
0.4397
0.483417
0.534175
0.593987
0.666058
0.754055
0.865159
1.00756
1.20182
1.46308
1.66612
0.00099014
0.000990142
0.000990143
0.00099014
0.000990137
0.000990141
0.000990147
0.00099015
0.000990145
0.000990138
0.000990139
0.000990147
0.000990153
0.000990149
0.000990139
0.000990135
0.00099014
0.000990144
0.000990143
0.00099014
0.000990139
0.000990141
0.000990144
0.000990145
0.000990146
0.000990147
0.000990147
0.000990141
0.000990138
0.000990138
0.000990142
0.000990147
0.000990148
0.000990148
0.000990148
0.000990148
0.000990148
0.000990148
0.000990148
0.000990148
0.000990148
0.000990148
0.000990147
0.000990147
0.000990146
0.000990147
0.000990147
0.000990148
0.000990148
0.000990148
0.000990149
0.000990149
0.000990149
0.000990149
0.00099015
0.00099015
0.00099015
0.000990151
0.000990151
0.000990151
0.000990151
0.000990152
0.000990152
0.000990152
0.000990153
0.000990153
0.000990153
0.000990153
0.000990154
0.000990153
0.000990153
0.000990155
0.000990153
0.000990154
0.000990153
0.000990154
0.000990153
0.000990153
0.000990154
0.000990152
0.000990154
0.000990152
0.000990154
0.000990156
0.000990156
0.000990156
0.000990154
0.000990155
0.000990155
0.000990156
0.000990157
0.000990158
0.000990158
0.000990158
0.000990158
0.000990158
0.000990158
0.000990158
0.000990158
0.000990158
0.000990158
0.000990158
0.000990157
0.000990157
0.000990157
0.000990157
0.000990157
0.000990157
0.000990157
0.000990157
0.000990156
0.000990156
0.000990156
0.000990156
0.000990156
0.000990155
0.000990155
0.000990155
0.000990155
0.000990155
0.000990155
0.000990155
0.000990155
0.000990156
0.000990156
0.000990156
0.000990157
0.000990157
0.000990158
0.000990159
0.00099016
0.000990161
0.000990161
0.000990165
0.000990163
0.000990168
0.000990165
0.000990176
0.00100819
4.09884e-005
4.09916e-005
4.09935e-005
4.09887e-005
4.09851e-005
4.09912e-005
4.10005e-005
4.10021e-005
4.09946e-005
4.09865e-005
4.09891e-005
4.10007e-005
4.10072e-005
4.10002e-005
4.09877e-005
4.09832e-005
4.09908e-005
4.09972e-005
4.09964e-005
4.09925e-005
4.09916e-005
4.09944e-005
4.09976e-005
4.09988e-005
4.10003e-005
4.10024e-005
4.10011e-005
4.09933e-005
4.09894e-005
4.09902e-005
4.09961e-005
4.10021e-005
4.1003e-005
4.10032e-005
4.10034e-005
4.10036e-005
4.10037e-005
4.10039e-005
4.10041e-005
4.10042e-005
4.10042e-005
4.10039e-005
4.10029e-005
4.10021e-005
4.10019e-005
4.10024e-005
4.1003e-005
4.1004e-005
4.10044e-005
4.1005e-005
4.10054e-005
4.10059e-005
4.10063e-005
4.10067e-005
4.10072e-005
4.10078e-005
4.10079e-005
4.10086e-005
4.10088e-005
4.10094e-005
4.10098e-005
4.10101e-005
4.10109e-005
4.10108e-005
4.10116e-005
4.10116e-005
4.10124e-005
4.10119e-005
4.10133e-005
4.10128e-005
4.10129e-005
4.10145e-005
4.10123e-005
4.10145e-005
4.10132e-005
4.10144e-005
4.10134e-005
4.10128e-005
4.10138e-005
4.10114e-005
4.10138e-005
4.10121e-005
4.10142e-005
4.10166e-005
4.10172e-005
4.10167e-005
4.10148e-005
4.10165e-005
4.1016e-005
4.10179e-005
4.1019e-005
4.10196e-005
4.10202e-005
4.10203e-005
4.10202e-005
4.10205e-005
4.102e-005
4.10204e-005
4.10201e-005
4.10201e-005
4.102e-005
4.10199e-005
4.10198e-005
4.10195e-005
4.10195e-005
4.10192e-005
4.10192e-005
4.10188e-005
4.10186e-005
4.10183e-005
4.10181e-005
4.10176e-005
4.10174e-005
4.10169e-005
4.10165e-005
4.1016e-005
4.10155e-005
4.10151e-005
4.1015e-005
4.10152e-005
4.10153e-005
4.10154e-005
4.10158e-005
4.10162e-005
4.10168e-005
4.10172e-005
4.10179e-005
4.10186e-005
4.10191e-005
4.10206e-005
4.10216e-005
4.10237e-005
4.10238e-005
4.10304e-005
4.10266e-005
4.10339e-005
4.10457e-005
4.10617e-005
4.33404e-005
3.37986e-006
3.38034e-006
3.38008e-006
3.3797e-006
3.38048e-006
3.38172e-006
3.38176e-006
3.38068e-006
3.37985e-006
3.3805e-006
3.38192e-006
3.38256e-006
3.38149e-006
3.38014e-006
3.38013e-006
3.38132e-006
3.38297e-006
3.38347e-006
3.38373e-006
3.38426e-006
3.38481e-006
3.38507e-006
3.38485e-006
3.38491e-006
3.38504e-006
3.38502e-006
3.38476e-006
3.38467e-006
3.3847e-006
3.3849e-006
3.38528e-006
3.38525e-006
3.38543e-006
3.38563e-006
3.38582e-006
3.38592e-006
3.38601e-006
3.38609e-006
3.38617e-006
3.38624e-006
3.38628e-006
3.38626e-006
3.38624e-006
3.3863e-006
3.38644e-006
3.38662e-006
3.3868e-006
3.387e-006
3.38714e-006
3.3873e-006
3.38743e-006
3.38757e-006
3.38769e-006
3.38781e-006
3.38793e-006
3.38804e-006
3.38811e-006
3.38822e-006
3.38829e-006
3.38839e-006
3.38847e-006
3.38856e-006
3.38867e-006
3.38873e-006
3.38883e-006
3.38891e-006
3.38899e-006
3.38906e-006
3.38917e-006
3.38921e-006
3.38931e-006
3.38942e-006
3.38937e-006
3.38962e-006
3.38958e-006
3.38967e-006
3.38979e-006
3.38984e-006
3.39e-006
3.39003e-006
3.39016e-006
3.39015e-006
3.39036e-006
3.39041e-006
3.39048e-006
3.39062e-006
3.39077e-006
3.39088e-006
3.3909e-006
3.39099e-006
3.391e-006
3.39105e-006
3.39112e-006
3.39118e-006
3.39122e-006
3.3913e-006
3.39126e-006
3.39136e-006
3.39134e-006
3.39137e-006
3.39138e-006
3.39137e-006
3.39136e-006
3.39133e-006
3.39132e-006
3.39125e-006
3.39126e-006
3.39114e-006
3.39111e-006
3.391e-006
3.39094e-006
3.39079e-006
3.39073e-006
3.39057e-006
3.39048e-006
3.39031e-006
3.39021e-006
3.39007e-006
3.39001e-006
3.38997e-006
3.38991e-006
3.38982e-006
3.38977e-006
3.38974e-006
3.38966e-006
3.3896e-006
3.38957e-006
3.38937e-006
3.3894e-006
3.38961e-006
3.38916e-006
3.38979e-006
3.3896e-006
3.38993e-006
3.3896e-006
3.40206e-006
3.21701e-006
3.09672e-006
1.78324e-005
5.32741e-007
5.32817e-007
5.32846e-007
5.32947e-007
5.33091e-007
5.33124e-007
5.33055e-007
5.33059e-007
5.33194e-007
5.33389e-007
5.33422e-007
5.33349e-007
5.33288e-007
5.33332e-007
5.33492e-007
5.33637e-007
5.33808e-007
5.33927e-007
5.33994e-007
5.34009e-007
5.33989e-007
5.34013e-007
5.34138e-007
5.3426e-007
5.34319e-007
5.34324e-007
5.34251e-007
5.34193e-007
5.34189e-007
5.3423e-007
5.34332e-007
5.34495e-007
5.34573e-007
5.34632e-007
5.34693e-007
5.34746e-007
5.34796e-007
5.34845e-007
5.34891e-007
5.34935e-007
5.34971e-007
5.35006e-007
5.35054e-007
5.35112e-007
5.35172e-007
5.35229e-007
5.35285e-007
5.35338e-007
5.3539e-007
5.35442e-007
5.35493e-007
5.35544e-007
5.35594e-007
5.35643e-007
5.35692e-007
5.35738e-007
5.35784e-007
5.35829e-007
5.35874e-007
5.35919e-007
5.35963e-007
5.36009e-007
5.36053e-007
5.36097e-007
5.36142e-007
5.36186e-007
5.36228e-007
5.36272e-007
5.36315e-007
5.36356e-007
5.36399e-007
5.36448e-007
5.36489e-007
5.36549e-007
5.36565e-007
5.36609e-007
5.3663e-007
5.3667e-007
5.36706e-007
5.36736e-007
5.36794e-007
5.36817e-007
5.36856e-007
5.36888e-007
5.36927e-007
5.36935e-007
5.3695e-007
5.36985e-007
5.37006e-007
5.3704e-007
5.37072e-007
5.37096e-007
5.37112e-007
5.3713e-007
5.37147e-007
5.37163e-007
5.37177e-007
5.3719e-007
5.37198e-007
5.37208e-007
5.37212e-007
5.37216e-007
5.37217e-007
5.37214e-007
5.3721e-007
5.372e-007
5.37192e-007
5.37173e-007
5.37159e-007
5.37135e-007
5.37114e-007
5.37082e-007
5.37051e-007
5.37012e-007
5.36976e-007
5.36931e-007
5.36884e-007
5.36833e-007
5.36789e-007
5.36744e-007
5.36695e-007
5.36641e-007
5.36586e-007
5.36535e-007
5.36471e-007
5.36397e-007
5.36341e-007
5.36258e-007
5.36242e-007
5.36038e-007
5.36644e-007
5.35655e-007
5.35524e-007
5.45011e-007
5.37621e-007
4.67177e-007
1.51923e-006
0.000179814
0.0154383
1.46103e-007
1.46136e-007
1.46156e-007
1.4617e-007
1.46189e-007
1.46226e-007
1.46266e-007
1.46294e-007
1.463e-007
1.463e-007
1.46319e-007
1.46359e-007
1.46387e-007
1.46393e-007
1.46413e-007
1.46465e-007
1.46519e-007
1.46554e-007
1.46572e-007
1.46605e-007
1.46658e-007
1.46696e-007
1.46728e-007
1.46727e-007
1.46738e-007
1.46747e-007
1.46756e-007
1.46784e-007
1.46813e-007
1.4684e-007
1.46886e-007
1.46904e-007
1.46918e-007
1.46949e-007
1.46982e-007
1.47013e-007
1.47044e-007
1.47073e-007
1.47102e-007
1.47131e-007
1.47159e-007
1.47187e-007
1.47214e-007
1.4724e-007
1.47267e-007
1.47294e-007
1.47322e-007
1.4735e-007
1.47377e-007
1.47404e-007
1.47431e-007
1.47457e-007
1.47483e-007
1.47509e-007
1.47535e-007
1.47561e-007
1.47585e-007
1.47611e-007
1.47635e-007
1.4766e-007
1.47685e-007
1.47709e-007
1.47734e-007
1.47756e-007
1.47781e-007
1.47803e-007
1.47828e-007
1.47846e-007
1.47873e-007
1.47891e-007
1.47911e-007
1.4794e-007
1.47954e-007
1.47982e-007
1.4799e-007
1.48012e-007
1.48025e-007
1.48037e-007
1.4806e-007
1.4808e-007
1.48098e-007
1.48109e-007
1.48127e-007
1.48143e-007
1.48163e-007
1.48174e-007
1.48192e-007
1.48208e-007
1.48217e-007
1.4823e-007
1.48239e-007
1.48255e-007
1.48267e-007
1.48276e-007
1.48283e-007
1.48291e-007
1.48295e-007
1.48301e-007
1.48305e-007
1.48308e-007
1.48311e-007
1.48312e-007
1.48312e-007
1.48311e-007
1.48309e-007
1.48305e-007
1.48301e-007
1.48293e-007
1.48286e-007
1.48277e-007
1.48266e-007
1.48253e-007
1.48239e-007
1.48221e-007
1.48203e-007
1.48183e-007
1.48161e-007
1.48135e-007
1.48112e-007
1.48087e-007
1.48061e-007
1.48033e-007
1.48004e-007
1.47972e-007
1.47938e-007
1.47895e-007
1.4787e-007
1.47809e-007
1.47394e-007
1.48304e-007
1.45926e-007
1.48556e-007
1.50394e-007
1.1942e-007
1.39429e-007
1.39114e-006
0.00015585
0.0101704
0.138422
6.06192e-008
6.06358e-008
6.06411e-008
6.06543e-008
6.06816e-008
6.07042e-008
6.07084e-008
6.07031e-008
6.07089e-008
6.07387e-008
6.07689e-008
6.07794e-008
6.07768e-008
6.07793e-008
6.0796e-008
6.08263e-008
6.08531e-008
6.0881e-008
6.09048e-008
6.09293e-008
6.09411e-008
6.09465e-008
6.09552e-008
6.09727e-008
6.09861e-008
6.09997e-008
6.10198e-008
6.1039e-008
6.1047e-008
6.10579e-008
6.10763e-008
6.10934e-008
6.11158e-008
6.11326e-008
6.11502e-008
6.1168e-008
6.1186e-008
6.1204e-008
6.12219e-008
6.12399e-008
6.12576e-008
6.12748e-008
6.12912e-008
6.13076e-008
6.13247e-008
6.13425e-008
6.13603e-008
6.13783e-008
6.13958e-008
6.14134e-008
6.14306e-008
6.14478e-008
6.14646e-008
6.14812e-008
6.14979e-008
6.15143e-008
6.15302e-008
6.15463e-008
6.15618e-008
6.15776e-008
6.15929e-008
6.1608e-008
6.1623e-008
6.16374e-008
6.16518e-008
6.16659e-008
6.16796e-008
6.16934e-008
6.17067e-008
6.17192e-008
6.17327e-008
6.17451e-008
6.17605e-008
6.17725e-008
6.17829e-008
6.17929e-008
6.18036e-008
6.18158e-008
6.1825e-008
6.18392e-008
6.18527e-008
6.18625e-008
6.18718e-008
6.18799e-008
6.18906e-008
6.18981e-008
6.19085e-008
6.19169e-008
6.1926e-008
6.19322e-008
6.19395e-008
6.19497e-008
6.19577e-008
6.19636e-008
6.19685e-008
6.19735e-008
6.19767e-008
6.19811e-008
6.19836e-008
6.19862e-008
6.1988e-008
6.19892e-008
6.19897e-008
6.19895e-008
6.1989e-008
6.19873e-008
6.19861e-008
6.19833e-008
6.19805e-008
6.19762e-008
6.19717e-008
6.19656e-008
6.19592e-008
6.19505e-008
6.19419e-008
6.19311e-008
6.19197e-008
6.19063e-008
6.18933e-008
6.18795e-008
6.18645e-008
6.18475e-008
6.18298e-008
6.18089e-008
6.17885e-008
6.17662e-008
6.168e-008
6.17467e-008
6.23165e-008
6.04147e-008
6.47965e-008
6.05722e-008
5.45396e-008
1.45743e-007
4.60472e-006
0.000304026
0.0108316
0.112171
0.4912
3.31299e-008
3.31371e-008
3.31462e-008
3.31585e-008
3.31675e-008
3.31717e-008
3.31763e-008
3.3189e-008
3.3205e-008
3.32194e-008
3.32246e-008
3.3228e-008
3.32351e-008
3.32477e-008
3.32653e-008
3.32834e-008
3.32959e-008
3.3311e-008
3.332e-008
3.33311e-008
3.3339e-008
3.33484e-008
3.33595e-008
3.3372e-008
3.33831e-008
3.33948e-008
3.34066e-008
3.34168e-008
3.34296e-008
3.34412e-008
3.34536e-008
3.34701e-008
3.34826e-008
3.34955e-008
3.3509e-008
3.3522e-008
3.35345e-008
3.3547e-008
3.35595e-008
3.35719e-008
3.35844e-008
3.35967e-008
3.36092e-008
3.36221e-008
3.36349e-008
3.36471e-008
3.36594e-008
3.36717e-008
3.36841e-008
3.36963e-008
3.37085e-008
3.37206e-008
3.37326e-008
3.37446e-008
3.37564e-008
3.3768e-008
3.37797e-008
3.3791e-008
3.38024e-008
3.38135e-008
3.38244e-008
3.38353e-008
3.38457e-008
3.38564e-008
3.38665e-008
3.3877e-008
3.38864e-008
3.38973e-008
3.39058e-008
3.39163e-008
3.39255e-008
3.39347e-008
3.39451e-008
3.39549e-008
3.39628e-008
3.39716e-008
3.39795e-008
3.39874e-008
3.39958e-008
3.40053e-008
3.40123e-008
3.40192e-008
3.40243e-008
3.40296e-008
3.40375e-008
3.40433e-008
3.40513e-008
3.40563e-008
3.40609e-008
3.40673e-008
3.40737e-008
3.40779e-008
3.40816e-008
3.4086e-008
3.40908e-008
3.40949e-008
3.40986e-008
3.41016e-008
3.41043e-008
3.41066e-008
3.41083e-008
3.41097e-008
3.41104e-008
3.41108e-008
3.41107e-008
3.411e-008
3.41092e-008
3.41079e-008
3.41062e-008
3.41039e-008
3.41011e-008
3.40977e-008
3.4094e-008