/*--------------------------------*- C++ -*----------------------------------*\
| =========                 |                                                 |
| \\      /  F ield         | OpenFOAM: The Open Source CFD Toolbox           |
|  \\    /   O peration     | Version:  5.x                                   |
|   \\  /    A nd           | Web:      www.OpenFOAM.org                      |
|    \\/     M anipulation  |                                                 |
\*---------------------------------------------------------------------------*/
/*   Windows 32 and 64 bit porting by blueCAPE: http://www.bluecape.com.pt   *\
|  Based on Windows porting (2.0.x v4) by Symscape: http://www.symscape.com   |
\*---------------------------------------------------------------------------*/
FoamFile
{
    version     2.0;
    format      ascii;
    class       volScalarField;
    location    "290";
    object      nut;
}
// * * * * * * * * * * * * * * * * * * * * * * * * * * * * * * * * * * * * * //

dimensions      [0 2 -1 0 0 0 0];

internalField   nonuniform List<scalar> 
43900
(
5.71598e-005
5.80008e-005
5.80695e-005
5.80643e-005
5.80596e-005
5.80586e-005
5.8059e-005
5.8059e-005
5.80591e-005
5.80593e-005
5.80591e-005
5.80592e-005
5.80595e-005
5.80597e-005
5.80598e-005
5.80597e-005
5.806e-005
5.80601e-005
5.80601e-005
5.80602e-005
5.80601e-005
5.80601e-005
5.80603e-005
5.80603e-005
5.80603e-005
5.80604e-005
5.80603e-005
5.80603e-005
5.80605e-005
0.000591175
7.38967e-006
4.30789e-006
4.16103e-006
4.57999e-006
4.60608e-006
4.6092e-006
4.60404e-006
4.60389e-006
4.60441e-006
4.60422e-006
4.6045e-006
4.60503e-006
4.60558e-006
4.6057e-006
4.60576e-006
4.60641e-006
4.60661e-006
4.60661e-006
4.60683e-006
4.60669e-006
4.60685e-006
4.60721e-006
4.6071e-006
4.60724e-006
4.60736e-006
4.60719e-006
4.60742e-006
4.60764e-006
0.153404
0.0455891
0.00521627
0.000108344
1.31286e-006
6.44499e-007
6.01752e-007
7.14236e-007
7.25167e-007
7.23504e-007
7.21825e-007
7.21772e-007
7.22154e-007
7.22439e-007
7.22529e-007
7.22715e-007
7.2291e-007
7.22944e-007
7.23081e-007
7.23181e-007
7.23241e-007
7.23383e-007
7.23442e-007
7.23473e-007
7.23581e-007
7.23614e-007
7.23661e-007
7.23764e-007
7.23769e-007
0.475598
0.291489
0.133807
0.0385743
0.00462376
0.000178239
4.19565e-006
2.55573e-007
1.74068e-007
1.93853e-007
2.13961e-007
2.15282e-007
2.12486e-007
2.11816e-007
2.12322e-007
2.12466e-007
2.12366e-007
2.12418e-007
2.12517e-007
2.12547e-007
2.12586e-007
2.12641e-007
2.12672e-007
2.12712e-007
2.12754e-007
2.12777e-007
2.1281e-007
2.12839e-007
2.12857e-007
0.757029
0.581652
0.414108
0.249082
0.106875
0.0267544
0.00271685
0.000131677
3.10155e-006
2.14108e-007
9.04698e-008
8.49777e-008
1.02715e-007
1.0593e-007
1.02971e-007
1.02785e-007
1.03754e-007
1.03637e-007
1.03448e-007
1.03517e-007
1.03567e-007
1.03574e-007
1.03591e-007
1.03616e-007
1.03639e-007
1.03651e-007
1.03671e-007
1.03693e-007
1.03704e-007
0.966792
0.798716
0.64239
0.490586
0.338683
0.188012
0.0684558
0.0125468
0.000948706
4.73834e-005
1.41429e-006
1.51402e-007
6.37703e-008
6.15528e-008
7.29278e-008
7.2454e-008
6.88012e-008
6.97206e-008
7.05112e-008
7.03702e-008
7.04312e-008
7.05592e-008
7.05456e-008
7.05315e-008
7.05443e-008
7.0563e-008
7.0581e-008
7.05892e-008
7.05922e-008
1.12648
0.964118
0.815778
0.675193
0.537335
0.398207
0.254958
0.113278
0.0293145
0.00325026
0.000197941
1.02731e-005
3.81843e-007
8.08959e-008
4.90542e-008
5.39442e-008
6.27275e-008
5.89917e-008
5.75742e-008
5.79836e-008
5.7671e-008
5.74496e-008
5.7659e-008
5.77824e-008
5.77639e-008
5.77481e-008
5.77502e-008
5.77646e-008
5.77818e-008
1.24231
1.08453
0.94199
0.809121
0.681288
0.554705
0.426689
0.297075
0.161646
0.0528476
0.00816881
0.000605385
3.63151e-005
1.94706e-006
1.30886e-007
5.59214e-008
4.26044e-008
5.14731e-008
5.28583e-008
5.16105e-008
5.2535e-008
5.25226e-008
5.18495e-008
5.17878e-008
5.19622e-008
5.20446e-008
5.20643e-008
5.20748e-008
5.20743e-008
1.33987
1.18556
1.04705
0.919317
0.798162
0.680078
0.562247
0.442557
0.31909
0.191829
0.0716896
0.0135825
0.00119975
8.03496e-005
5.12476e-006
3.0438e-007
7.24064e-008
4.595e-008
4.64131e-008
5.06212e-008
4.83818e-008
4.88073e-008
5.00827e-008
4.97212e-008
4.92151e-008
4.92207e-008
4.92499e-008
4.92677e-008
4.92834e-008
1.40233
1.25411
1.12124
0.99976
0.88573
0.775817
0.667247
0.557757
0.445563
0.32953
0.209884
0.0847802
0.0181156
0.00182684
0.000134777
9.56126e-006
6.65332e-007
8.06633e-008
4.93153e-008
4.21713e-008
4.74272e-008
4.63851e-008
4.59297e-008
4.70354e-008
4.74473e-008
4.71541e-008
4.7068e-008
4.70923e-008
4.71037e-008
1.44626
1.3008
1.17283
1.05655
0.948578
0.845717
0.745256
0.644925
0.5429
0.437837
0.32901
0.216823
0.0913132
0.02081
0.00230433
0.000186234
1.45229e-005
1.11497e-006
1.12962e-007
5.60414e-008
4.12752e-008
4.46911e-008
4.49129e-008
4.34911e-008
4.39835e-008
4.49616e-008
4.4916e-008
4.48075e-008
4.48151e-008
1.48486
1.3424
1.21697
1.10413
1.00011
0.902104
0.807512
0.714122
0.620093
0.523979
0.424769
0.321985
0.216092
0.0943044
0.0221546
0.00261344
0.000228595
1.92884e-005
1.61856e-006
1.64172e-007
5.68946e-008
4.41359e-008
4.402e-008
4.44753e-008
4.32554e-008
4.27329e-008
4.33228e-008
4.36301e-008
4.35449e-008
1.51218
1.37314
1.25048
1.14133
1.04111
0.947327
0.857624
0.769894
0.682354
0.593541
0.502335
0.407973
0.310077
0.208653
0.0916727
0.0214505
0.00262584
0.000247029
2.25291e-005
2.06267e-006
2.14441e-007
5.83319e-008
4.63932e-008
4.42676e-008
4.63308e-008
4.5044e-008
4.35388e-008
4.36251e-008
4.40423e-008
1.53039
1.39553
1.27609
1.16935
1.07329
0.983404
0.898042
0.815208
0.733184
0.650534
0.566103
0.479019
0.388682
0.29473
0.196927
0.0823938
0.0187317
0.00237518
0.000243637
2.43542e-005
2.44722e-006
2.68289e-007
6.44038e-008
4.79373e-008
4.46609e-008
4.69064e-008
4.71443e-008
4.64506e-008
4.58421e-008
1.54146
1.41024
1.2951
1.19148
1.09771
1.01223
0.930826
0.852352
0.775163
0.697864
0.619302
0.538569
0.454984
0.368085
0.277616
0.183862
0.0732661
0.0160907
0.00211968
0.000236369
2.58632e-005
2.84802e-006
3.34571e-007
7.29389e-008
5.18002e-008
4.3591e-008
4.60331e-008
4.84542e-008
4.81011e-008
1.54688
1.41934
1.30761
1.20832
1.11754
1.03444
0.957341
0.882868
0.810032
0.737481
0.664087
0.588935
0.511316
0.430712
0.346784
0.259378
0.168411
0.0637889
0.0135375
0.00185711
0.000224254
2.66566e-005
3.17984e-006
3.9902e-007
8.48082e-008
5.24024e-008
4.23471e-008
4.31087e-008
4.57165e-008
1.54775
1.42398
1.31569
1.21965
1.13314
1.0527
0.978304
0.907887
0.839064
0.770844
0.70212
0.631983
0.559708
0.484745
0.406702
0.325313
0.240371
0.151504
0.0542923
0.0112157
0.0016161
0.000211333
2.72433e-005
3.52367e-006
4.787e-007
9.78985e-008
4.94233e-008
4.18342e-008
4.01316e-008
1.54484
1.42492
1.32013
1.22738
1.14406
1.06794
0.996212
0.92892
0.863677
0.799331
0.734812
0.669214
0.601801
0.531997
0.459364
0.383586
0.304421
0.221585
0.134336
0.0455677
0.00930022
0.0014204
0.000201394
2.82103e-005
3.96179e-006
5.79898e-007
1.11556e-007
4.90881e-008
4.14694e-008
1.5387
1.42272
1.3215
1.23206
1.15192
1.07894
1.01102
0.94657
0.885266
0.82443
0.763662
0.702096
0.639016
0.573842
0.506119
0.435499
0.361713
0.284516
0.203539
0.117708
0.0379699
0.00776557
0.00126297
0.000194016
2.94177e-005
4.45266e-006
6.90707e-007
1.30521e-007
5.16494e-008
1.52971
1.41775
1.32015
1.23407
1.1571
1.0872
1.02255
0.961026
0.902311
0.845377
0.788412
0.730815
0.671894
0.611082
0.54793
0.482088
0.413282
0.341288
0.265859
0.186529
0.10181
0.0314709
0.00653952
0.00113612
0.000188242
3.07676e-005
5.00109e-006
8.24208e-007
1.55537e-007
1.51817
1.41031
1.3164
1.23372
1.15994
1.09312
1.03154
0.973747
0.91771
0.863767
0.810043
0.755956
0.700815
0.644048
0.58519
0.52387
0.459801
0.392753
0.322528
0.248895
0.171401
0.0847152
0.0253634
0.00542696
0.00100791
0.00017939
3.14174e-005
5.46889e-006
9.44664e-007
1.50435
1.40065
1.3105
1.23122
1.16063
1.09683
1.03817
0.983218
0.930591
0.879354
0.829266
0.778527
0.726881
0.673793
0.618824
0.561613
0.501871
0.439368
0.373914
0.305334
0.233414
0.158457
0.069511
0.0204168
0.00453217
0.000898135
0.000171303
3.21165e-005
5.85226e-006
1.4885
1.38904
1.30267
1.22685
1.15944
1.09865
1.04289
0.990811
0.941247
0.892579
0.84512
0.797601
0.749359
0.699856
0.648649
0.595376
0.539748
0.481533
0.420547
0.356632
0.289646
0.219555
0.146659
0.0604933
0.0174184
0.00398731
0.000834523
0.000169022
3.29597e-005
1.47087
1.37571
1.29318
1.22082
1.1566
1.0988
1.04589
0.996599
0.949786
0.90447
0.85963
0.815327
0.770025
0.723637
0.675742
0.62599
0.57409
0.519806
0.462942
0.403339
0.340862
0.275409
0.206889
0.134133
0.0533767
0.0153237
0.00362941
0.00079698
0.000166229
1.45174
1.36091
1.28223
1.21335
1.15232
1.09746
1.04735
1.00075
0.956573
0.913912
0.871462
0.829619
0.78736
0.74412
0.699499
0.653162
0.604831
0.55427
0.501289
0.445725
0.387445
0.326328
0.262234
0.19471
0.122294
0.0474586
0.0137148
0.00336564
0.00075618
1.43133
1.34487
1.27007
1.20467
1.1468
1.09488
1.04751
1.00354
0.961947
0.921862
0.882535
0.843075
0.80368
0.76312
0.721341
0.678021
0.632884
0.585695
0.536255
0.484398
0.429981
0.372878
0.312952
0.249965
0.183344
0.111142
0.0423108
0.0123694
0.00307092
1.40987
1.3278
1.2569
1.19497
1.14026
1.09122
1.04656
1.00513
0.965996
0.928322
0.891421
0.854276
0.817219
0.77944
0.740528
0.700173
0.658114
0.614129
0.568026
0.519641
0.468832
0.415471
0.359433
0.300553
0.238552
0.172837
0.100387
0.0376336
0.0108902
1.38757
1.3099
1.24289
1.18444
1.13286
1.08669
1.04468
1.00576
0.969027
0.933692
0.899093
0.864634
0.829742
0.794481
0.758118
0.720437
0.681184
0.640139
0.597115
0.551943
0.50448
0.454595
0.402167
0.347061
0.289102
0.227993
0.163136
0.0897528
0.0324475
1.36459
1.29131
1.22819
1.17321
1.12475
1.08142
1.04203
1.00558
0.971196
0.938161
0.905872
0.873846
0.841337
0.808444
0.774391
0.739158
0.702488
0.66416
0.623982
0.581787
0.537426
0.490769
0.441692
0.390073
0.335778
0.278621
0.218258
0.154303
0.0774856
1.34106
1.27217
1.21293
1.1614
1.11603
1.07552
1.03873
1.00469
0.9726
0.941765
0.911593
0.88156
0.851135
0.820362
0.788852
0.756147
0.72204
0.686342
0.64888
0.609498
0.568053
0.524416
0.478468
0.430093
0.379173
0.325569
0.269093
0.209499
0.144529
1.31707
1.25254
1.19716
1.14907
1.10678
1.06906
1.03484
1.0032
0.973379
0.944732
0.916716
0.888879
0.860856
0.832093
0.802645
0.772149
0.740373
0.707113
0.672191
0.635447
0.596739
0.555935
0.512914
0.467564
0.419773
0.369428
0.316402
0.260429
0.201749
1.29265
1.23247
1.18093
1.13624
1.09702
1.06208
1.03041
1.00115
0.973581
0.947096
0.921196
0.895463
0.869567
0.84304
0.815854
0.78744
0.757839
0.726853
0.694304
0.66003
0.623884
0.585733
0.545451
0.502925
0.458046
0.410707
0.360805
0.308183
0.252894
1.26782
1.21194
1.16422
1.12292
1.08674
1.05457
1.02544
0.998544
0.973211
0.948873
0.925052
0.901346
0.877403
0.852878
0.827743
0.801629
0.774301
0.745603
0.715382
0.683493
0.649797
0.614163
0.576469
0.536597
0.49444
0.449894
0.402862
0.353239
0.300862
1.24254
1.19092
1.14697
1.10904
1.07588
1.04646
1.01986
0.995336
0.972245
0.950057
0.928326
0.906671
0.884763
0.862292
0.839136
0.815169
0.790038
0.763578
0.735636
0.706072
0.674748
0.641536
0.606313
0.568962
0.529375
0.487446
0.443078
0.396175
0.346599
1.21674
1.16932
1.12911
1.0945
1.06435
1.03766
1.0136
0.991444
0.970607
0.950591
0.930982
0.911431
0.891654
0.871431
0.850321
0.828355
0.805317
0.78102
0.7553
0.728006
0.698996
0.668137
0.635303
0.600375
0.563237
0.523785
0.481917
0.437535
0.39055
1.19032
1.14704
1.1105
1.07919
1.05201
1.02805
1.00651
0.986735
0.968169
0.95035
0.932889
0.915462
0.897792
0.879646
0.860767
0.841089
0.820158
0.798026
0.774519
0.74948
0.72276
0.694221
0.663729
0.631158
0.596389
0.559308
0.519811
0.477797
0.433191
1.16316
1.12394
1.09102
1.06295
1.03871
1.01745
0.998429
0.981038
0.96476
0.949164
0.933886
0.918618
0.90309
0.887052
0.870237
0.852814
0.834253
0.814448
0.793261
0.770549
0.746167
0.719974
0.691831
0.661603
0.629164
0.594393
0.557178
0.517414
0.475024
1.13517
1.09991
1.07053
1.04563
1.02428
1.00568
0.989166
0.974156
0.960176
0.946827
0.933771
0.920719
0.907415
0.893629
0.879133
0.863818
0.84765
0.830257
0.811495
0.791217
0.769273
0.745513
0.719788
0.691952
0.661866
0.629398
0.594424
0.556835
0.516547
1.10625
1.07484
1.04889
1.02708
1.00856
0.992578
0.978527
0.965879
0.954195
0.943106
0.932302
0.921515
0.910512
0.899098
0.887138
0.874158
0.86036
0.845403
0.829153
0.811429
0.79206
0.770876
0.747706
0.722386
0.694753
0.664654
0.631951
0.596519
0.558266
1.07635
1.04865
1.02603
1.00721
0.991414
0.977983
0.966344
0.956018
0.946606
0.937771
0.929226
0.920724
0.912044
0.902988
0.89335
0.882796
0.871917
0.859546
0.845962
0.830967
0.814368
0.795967
0.77557
0.752977
0.727994
0.700436
0.670129
0.636923
0.600711
1.04549
1.02135
1.00191
0.985955
0.972794
0.961819
0.952517
0.944453
0.937265
0.930648
0.92434
0.918115
0.911772
0.905124
0.89799
0.890193
0.881557
0.872095
0.861434
0.849411
0.835835
0.820495
0.803165
0.78361
0.761591
0.736869
0.709221
0.678447
0.644399
1.0138
0.993048
0.976628
0.963404
0.952753
0.94413
0.937071
0.931185
0.926146
0.921679
0.917548
0.91355
0.909504
0.905246
0.900628
0.895536
0.889194
0.882831
0.875164
0.866271
0.855944
0.843949
0.830025
0.813893
0.795254
0.773801
0.749233
0.721271
0.689692
0.981555
0.963983
0.950417
0.93978
0.931514
0.92513
0.920209
0.916399
0.913405
0.910979
0.908911
0.907023
0.905156
0.903171
0.900932
0.898298
0.895023
0.89123
0.886516
0.880835
0.873925
0.865523
0.855334
0.843031
0.828252
0.810606
0.789689
0.765104
0.736511
0.94917
0.934574
0.923695
0.915504
0.909502
0.905245
0.902348
0.900487
0.899392
0.898838
0.89864
0.898645
0.898726
0.898773
0.898687
0.89837
0.897746
0.895946
0.894443
0.892058
0.888655
0.884001
0.877796
0.869681
0.859232
0.84597
0.829367
0.808879
0.783991
0.917262
0.905434
0.89708
0.891208
0.887359
0.885114
0.884105
0.884021
0.884605
0.885648
0.886992
0.888515
0.890132
0.891779
0.893403
0.894953
0.896367
0.897507
0.898066
0.898622
0.898565
0.897623
0.895489
0.891786
0.886043
0.877694
0.866084
0.850498
0.830181
0.886628
0.87736
0.871383
0.867714
0.865906
0.865533
0.866217
0.867636
0.869531
0.871708
0.87404
0.876454
0.878927
0.881464
0.884083
0.886801
0.889609
0.892541
0.895101
0.898317
0.901333
0.903869
0.90569
0.906433
0.905606
0.902586
0.896559
0.88671
0.871927
0.858193
0.851282
0.847537
0.845946
0.846027
0.847306
0.849352
0.851805
0.854391
0.856932
0.85936
0.861675
0.863959
0.866319
0.868881
0.871764
0.874931
0.878706
0.883291
0.888267
0.893927
0.899405
0.904815
0.909815
0.913916
0.916544
0.916368
0.913141
0.905014
0.83292
0.828155
0.826473
0.826779
0.828498
0.831042
0.83388
0.836582
0.83886
0.840572
0.841766
0.842545
0.843178
0.843901
0.845009
0.846821
0.849463
0.853985
0.859258
0.865392
0.872347
0.880109
0.888548
0.897396
0.906233
0.914473
0.921109
0.924895
0.92373
0.81165
0.808794
0.80894
0.810848
0.813768
0.816928
0.819645
0.821406
0.821937
0.821147
0.819367
0.81673
0.813917
0.811594
0.810646
0.810598
0.811927
0.814851
0.819223
0.825073
0.832583
0.841692
0.852347
0.864368
0.877443
0.891083
0.904386
0.916199
0.924179
0.794929
0.793693
0.79532
0.798358
0.801797
0.804611
0.80593
0.80517
0.802173
0.796823
0.790195
0.783085
0.775963
0.769249
0.763697
0.759709
0.757639
0.757713
0.759997
0.764451
0.771411
0.780662
0.792404
0.806531
0.8229
0.84124
0.860879
0.880718
0.900201
0.782855
0.782879
0.785507
0.789015
0.792052
0.793304
0.791712
0.786671
0.778393
0.767568
0.754982
0.741004
0.726898
0.713562
0.70189
0.692454
0.685669
0.681743
0.680751
0.682739
0.687794
0.696041
0.707258
0.721779
0.739732
0.761167
0.785922
0.813189
0.844567
0.775019
0.775889
0.778933
0.78212
0.783715
0.782146
0.776323
0.765879
0.751424
0.73276
0.711625
0.689339
0.667363
0.6468
0.628474
0.613019
0.600793
0.591986
0.586671
0.584735
0.586215
0.591287
0.599984
0.61249
0.629121
0.650473
0.677507
0.70916
0.751295
0.770604
0.771891
0.774746
0.776838
0.77611
0.770771
0.759927
0.742975
0.720458
0.69388
0.664996
0.635333
0.606317
0.579092
0.554462
0.533003
0.515017
0.500641
0.48993
0.482527
0.478553
0.478184
0.481495
0.488791
0.500561
0.517272
0.541013
0.56898
0.616699
0.768598
0.769926
0.772083
0.772558
0.768927
0.759452
0.742811
0.719311
0.690246
0.657205
0.622074
0.586581
0.55218
0.519931
0.490521
0.464315
0.441493
0.422102
0.406176
0.39337
0.383605
0.376936
0.373329
0.373123
0.376698
0.384415
0.40016
0.416761
0.462052
0.768041
0.769145
0.770368
0.768948
0.76235
0.748588
0.727153
0.69863
0.664534
0.626868
0.587666
0.548681
0.511261
0.476324
0.444402
0.415727
0.390346
0.368178
0.348994
0.332706
0.318934
0.307666
0.29858
0.291998
0.287571
0.286051
0.290419
0.291785
0.321138
0.768205
0.768974
0.769257
0.76605
0.756798
0.739873
0.714959
0.683048
0.645978
0.605932
0.56498
0.524808
0.486636
0.451237
0.419015
0.390106
0.364472
0.341969
0.322363
0.305541
0.291262
0.279006
0.268453
0.260068
0.252401
0.24815
0.244207
0.241907
0.242441
0.768643
0.769114
0.768653
0.764145
0.753176
0.734294
0.707484
0.674009
0.635891
0.59537
0.554473
0.514791
0.477428
0.443053
0.411994
0.384341
0.360031
0.338914
0.320783
0.305479
0.292753
0.282651
0.274579
0.269311
0.263931
0.264333
0.259753
0.269812
0.246254
0.769153
0.769469
0.768691
0.763618
0.751989
0.732496
0.705305
0.67181
0.634089
0.594362
0.554588
0.516278
0.480463
0.447761
0.418474
0.392685
0.370342
0.351319
0.335448
0.322595
0.312561
0.3054
0.300651
0.299551
0.299032
0.306706
0.307456
0.334002
0.302723
0.769714
0.770086
0.769533
0.764732
0.753537
0.734672
0.708337
0.675928
0.639496
0.601214
0.562997
0.526321
0.4922
0.461251
0.433788
0.409915
0.38961
0.372777
0.35929
0.349055
0.341933
0.338036
0.337011
0.340199
0.3448
0.359245
0.367734
0.403886
0.377722
5.80604e-005
5.80606e-005
5.80607e-005
5.80605e-005
5.80602e-005
5.80605e-005
5.8061e-005
5.80612e-005
5.80608e-005
5.80603e-005
5.80604e-005
5.8061e-005
5.80614e-005
5.80611e-005
5.80604e-005
5.80601e-005
5.80604e-005
5.80608e-005
5.80607e-005
5.80605e-005
5.80604e-005
5.80605e-005
5.80607e-005
5.80608e-005
5.80609e-005
5.8061e-005
5.8061e-005
5.80605e-005
5.80603e-005
5.80603e-005
5.80606e-005
5.8061e-005
5.8061e-005
5.8061e-005
5.8061e-005
5.80611e-005
5.80611e-005
5.80611e-005
5.80611e-005
5.80611e-005
5.80611e-005
5.80611e-005
5.8061e-005
5.8061e-005
5.8061e-005
5.8061e-005
5.8061e-005
5.8061e-005
5.80611e-005
5.80611e-005
5.80611e-005
5.80611e-005
5.80612e-005
5.80612e-005
5.80612e-005
5.80612e-005
5.80612e-005
5.80613e-005
5.80613e-005
5.80613e-005
5.80613e-005
5.80613e-005
5.80614e-005
5.80614e-005
5.80614e-005
5.80614e-005
5.80615e-005
5.80614e-005
5.80615e-005
5.80615e-005
5.80615e-005
5.80616e-005
5.80614e-005
5.80616e-005
5.80615e-005
5.80616e-005
5.80615e-005
5.80615e-005
5.80615e-005
5.80614e-005
5.80615e-005
5.80614e-005
5.80615e-005
5.80617e-005
5.80617e-005
5.80616e-005
5.80615e-005
5.80616e-005
5.80616e-005
5.80617e-005
5.80618e-005
5.80618e-005
5.80618e-005
5.80618e-005
5.80618e-005
5.80618e-005
5.80618e-005
5.80618e-005
5.80618e-005
5.80618e-005
5.80618e-005
5.80618e-005
5.80618e-005
5.80618e-005
5.80618e-005
5.80618e-005
5.80618e-005
5.80618e-005
5.80617e-005
5.80617e-005
5.80617e-005
5.80617e-005
5.80617e-005
5.80617e-005
5.80616e-005
5.80616e-005
5.80616e-005
5.80616e-005
5.80616e-005
5.80616e-005
5.80616e-005
5.80616e-005
5.80616e-005
5.80617e-005
5.80617e-005
5.80617e-005
5.80618e-005
5.80618e-005
5.80618e-005
5.80619e-005
5.8062e-005
5.80621e-005
5.80621e-005
5.80624e-005
5.80622e-005
5.80626e-005
5.80624e-005
5.80633e-005
5.93256e-005
4.60759e-006
4.60795e-006
4.60814e-006
4.60759e-006
4.60724e-006
4.60797e-006
4.60897e-006
4.60907e-006
4.60821e-006
4.60738e-006
4.60774e-006
4.60902e-006
4.60965e-006
4.60881e-006
4.60746e-006
4.60706e-006
4.60795e-006
4.60866e-006
4.60858e-006
4.60819e-006
4.60813e-006
4.60844e-006
4.60875e-006
4.60888e-006
4.60904e-006
4.60927e-006
4.60911e-006
4.60828e-006
4.60786e-006
4.60796e-006
4.6086e-006
4.60922e-006
4.60932e-006
4.60936e-006
4.60939e-006
4.6094e-006
4.60942e-006
4.60944e-006
4.60946e-006
4.60947e-006
4.60948e-006
4.60944e-006
4.60933e-006
4.60923e-006
4.60922e-006
4.60928e-006
4.60935e-006
4.60946e-006
4.60951e-006
4.60958e-006
4.60963e-006
4.60969e-006
4.60973e-006
4.60977e-006
4.60983e-006
4.60989e-006
4.60991e-006
4.60998e-006
4.61001e-006
4.61008e-006
4.61012e-006
4.61016e-006
4.61024e-006
4.61024e-006
4.61032e-006
4.61033e-006
4.61041e-006
4.61036e-006
4.61051e-006
4.61045e-006
4.61047e-006
4.61064e-006
4.6104e-006
4.61065e-006
4.6105e-006
4.61063e-006
4.61053e-006
4.61047e-006
4.61059e-006
4.61033e-006
4.61059e-006
4.6104e-006
4.61064e-006
4.6109e-006
4.61096e-006
4.61091e-006
4.61071e-006
4.6109e-006
4.61085e-006
4.61106e-006
4.61117e-006
4.61124e-006
4.6113e-006
4.61131e-006
4.61131e-006
4.61134e-006
4.61128e-006
4.61133e-006
4.6113e-006
4.6113e-006
4.61129e-006
4.61127e-006
4.61126e-006
4.61123e-006
4.61123e-006
4.61119e-006
4.6112e-006
4.61115e-006
4.61113e-006
4.61109e-006
4.61107e-006
4.61101e-006
4.61099e-006
4.61093e-006
4.61089e-006
4.61082e-006
4.61076e-006
4.61072e-006
4.61071e-006
4.61073e-006
4.61074e-006
4.61074e-006
4.61079e-006
4.61083e-006
4.6109e-006
4.61094e-006
4.61102e-006
4.6111e-006
4.61116e-006
4.61133e-006
4.61143e-006
4.61167e-006
4.61167e-006
4.61244e-006
4.61198e-006
4.61278e-006
4.61489e-006
4.6171e-006
4.88821e-006
7.23829e-007
7.23926e-007
7.23868e-007
7.23807e-007
7.23983e-007
7.24231e-007
7.24212e-007
7.23983e-007
7.23837e-007
7.24e-007
7.24295e-007
7.24393e-007
7.24155e-007
7.23888e-007
7.2392e-007
7.24179e-007
7.2452e-007
7.24622e-007
7.24684e-007
7.24796e-007
7.24902e-007
7.24945e-007
7.24904e-007
7.24927e-007
7.24957e-007
7.24949e-007
7.24886e-007
7.2487e-007
7.24875e-007
7.24914e-007
7.24987e-007
7.24987e-007
7.25032e-007
7.25075e-007
7.25116e-007
7.25138e-007
7.25157e-007
7.25175e-007
7.25192e-007
7.25209e-007
7.25216e-007
7.25212e-007
7.25211e-007
7.25229e-007
7.2526e-007
7.25298e-007
7.25336e-007
7.25377e-007
7.25408e-007
7.25443e-007
7.25471e-007
7.25501e-007
7.25527e-007
7.25552e-007
7.25578e-007
7.25602e-007
7.25618e-007
7.25641e-007
7.25656e-007
7.25678e-007
7.25695e-007
7.25715e-007
7.25737e-007
7.25752e-007
7.25774e-007
7.25791e-007
7.2581e-007
7.25827e-007
7.25848e-007
7.25859e-007
7.25881e-007
7.25903e-007
7.259e-007
7.25951e-007
7.25944e-007
7.25964e-007
7.25991e-007
7.26003e-007
7.26035e-007
7.26046e-007
7.26073e-007
7.26076e-007
7.26118e-007
7.26126e-007
7.2614e-007
7.26171e-007
7.26202e-007
7.26224e-007
7.2623e-007
7.26247e-007
7.26251e-007
7.2626e-007
7.26274e-007
7.26286e-007
7.26296e-007
7.26311e-007
7.26307e-007
7.26326e-007
7.26323e-007
7.26329e-007
7.26331e-007
7.2633e-007
7.26329e-007
7.26322e-007
7.2632e-007
7.26306e-007
7.26308e-007
7.26284e-007
7.26277e-007
7.26254e-007
7.26242e-007
7.2621e-007
7.26196e-007
7.26162e-007
7.26143e-007
7.26107e-007
7.26084e-007
7.26055e-007
7.26042e-007
7.26031e-007
7.26017e-007
7.25997e-007
7.25986e-007
7.25977e-007
7.25959e-007
7.25944e-007
7.25937e-007
7.25894e-007
7.25893e-007
7.25943e-007
7.25835e-007
7.25982e-007
7.25949e-007
7.25868e-007
7.25937e-007
7.29596e-007
6.72242e-007
6.46168e-007
6.48351e-006
2.12897e-007
2.12925e-007
2.12938e-007
2.12979e-007
2.13029e-007
2.13037e-007
2.13013e-007
2.13023e-007
2.13081e-007
2.13148e-007
2.13153e-007
2.13122e-007
2.13107e-007
2.13129e-007
2.13194e-007
2.13254e-007
2.13314e-007
2.13358e-007
2.1338e-007
2.13384e-007
2.13384e-007
2.13397e-007
2.1345e-007
2.13489e-007
2.13507e-007
2.13506e-007
2.13476e-007
2.13459e-007
2.13462e-007
2.13481e-007
2.13522e-007
2.13581e-007
2.13606e-007
2.13629e-007
2.13654e-007
2.13676e-007
2.13696e-007
2.13716e-007
2.13735e-007
2.13752e-007
2.13767e-007
2.13783e-007
2.13803e-007
2.13827e-007
2.1385e-007
2.13872e-007
2.13894e-007
2.13915e-007
2.13935e-007
2.13955e-007
2.13975e-007
2.13995e-007
2.14014e-007
2.14034e-007
2.14053e-007
2.14071e-007
2.14089e-007
2.14107e-007
2.14125e-007
2.14143e-007
2.1416e-007
2.14179e-007
2.14196e-007
2.14214e-007
2.14232e-007
2.14249e-007
2.14267e-007
2.14284e-007
2.14301e-007
2.14318e-007
2.14335e-007
2.14355e-007
2.14371e-007
2.14394e-007
2.14401e-007
2.14419e-007
2.14427e-007
2.14441e-007
2.14456e-007
2.14469e-007
2.14489e-007
2.14499e-007
2.14514e-007
2.14527e-007
2.14542e-007
2.14545e-007
2.14552e-007
2.14566e-007
2.14573e-007
2.14587e-007
2.14599e-007
2.14609e-007
2.14615e-007
2.14622e-007
2.14628e-007
2.14633e-007
2.14639e-007
2.14643e-007
2.14647e-007
2.1465e-007
2.14652e-007
2.14653e-007
2.14653e-007
2.14653e-007
2.1465e-007
2.14647e-007
2.14643e-007
2.14637e-007
2.1463e-007
2.14622e-007
2.14613e-007
2.14601e-007
2.14588e-007
2.14573e-007
2.14558e-007
2.1454e-007
2.14522e-007
2.14501e-007
2.14484e-007
2.14466e-007
2.14446e-007
2.14425e-007
2.14403e-007
2.14384e-007
2.14359e-007
2.1433e-007
2.14306e-007
2.14273e-007
2.14292e-007
2.14154e-007
2.14539e-007
2.13962e-007
2.1386e-007
2.19362e-007
2.14992e-007
1.7974e-007
9.89114e-007
0.000190848
0.0107725
1.03721e-007
1.03743e-007
1.03755e-007
1.03764e-007
1.0378e-007
1.03807e-007
1.03833e-007
1.03845e-007
1.03847e-007
1.03848e-007
1.03868e-007
1.03894e-007
1.03909e-007
1.03913e-007
1.03926e-007
1.03963e-007
1.03994e-007
1.04017e-007
1.04033e-007
1.0406e-007
1.04095e-007
1.04117e-007
1.0413e-007
1.04129e-007
1.04136e-007
1.04143e-007
1.04153e-007
1.04178e-007
1.04196e-007
1.04211e-007
1.04237e-007
1.04243e-007
1.04256e-007
1.04277e-007
1.04298e-007
1.04319e-007
1.04339e-007
1.04359e-007
1.04379e-007
1.04398e-007
1.04417e-007
1.04437e-007
1.04455e-007
1.04472e-007
1.04489e-007
1.04507e-007
1.04526e-007
1.04545e-007
1.04563e-007
1.04581e-007
1.04599e-007
1.04616e-007
1.04634e-007
1.04651e-007
1.04668e-007
1.04686e-007
1.04702e-007
1.04719e-007
1.04735e-007
1.04752e-007
1.04768e-007
1.04784e-007
1.04801e-007
1.04816e-007
1.04833e-007
1.04847e-007
1.04864e-007
1.04876e-007
1.04893e-007
1.04905e-007
1.04919e-007
1.04937e-007
1.04947e-007
1.04965e-007
1.04972e-007
1.04985e-007
1.04995e-007
1.05004e-007
1.05019e-007
1.05032e-007
1.05044e-007
1.05052e-007
1.05064e-007
1.05073e-007
1.05086e-007
1.05095e-007
1.05107e-007
1.05117e-007
1.05123e-007
1.05131e-007
1.05136e-007
1.05146e-007
1.05155e-007
1.05161e-007
1.05165e-007
1.0517e-007
1.05173e-007
1.05177e-007
1.05179e-007
1.05182e-007
1.05183e-007
1.05184e-007
1.05184e-007
1.05183e-007
1.05182e-007
1.05179e-007
1.05176e-007
1.05172e-007
1.05167e-007
1.05161e-007
1.05154e-007
1.05146e-007
1.05136e-007
1.05125e-007
1.05113e-007
1.05099e-007
1.05084e-007
1.05067e-007
1.05051e-007
1.05035e-007
1.05018e-007
1.04999e-007
1.04979e-007
1.04958e-007
1.04935e-007
1.04906e-007
1.04896e-007
1.04847e-007
1.0444e-007
1.05402e-007
1.02919e-007
1.05715e-007
1.07421e-007
7.69955e-008
1.00446e-007
1.71758e-006
0.000251858
0.0115059
0.0967317
7.06136e-008
7.06307e-008
7.06365e-008
7.0654e-008
7.06839e-008
7.0702e-008
7.0701e-008
7.06959e-008
7.07088e-008
7.07449e-008
7.07728e-008
7.07769e-008
7.07718e-008
7.0778e-008
7.07981e-008
7.08299e-008
7.0857e-008
7.08875e-008
7.09105e-008
7.09335e-008
7.09393e-008
7.09459e-008
7.09553e-008
7.09741e-008
7.09856e-008
7.1001e-008
7.1023e-008
7.10384e-008
7.10457e-008
7.10593e-008
7.10781e-008
7.10996e-008
7.11214e-008
7.11371e-008
7.11541e-008
7.11719e-008
7.11898e-008
7.12079e-008
7.1226e-008
7.12442e-008
7.12622e-008
7.12795e-008
7.12959e-008
7.13127e-008
7.13303e-008
7.13484e-008
7.13663e-008
7.13845e-008
7.14023e-008
7.14202e-008
7.14377e-008
7.14552e-008
7.14724e-008
7.14894e-008
7.15063e-008
7.1523e-008
7.15392e-008
7.15555e-008
7.15713e-008
7.15872e-008
7.16027e-008
7.1618e-008
7.16329e-008
7.16477e-008
7.16621e-008
7.16766e-008
7.169e-008
7.17048e-008
7.17173e-008
7.17305e-008
7.17446e-008
7.17554e-008
7.1773e-008
7.1784e-008
7.17963e-008
7.18051e-008
7.18173e-008
7.18302e-008
7.18383e-008
7.1853e-008
7.18664e-008
7.18776e-008
7.18865e-008
7.18952e-008
7.19046e-008
7.19132e-008
7.19242e-008
7.19331e-008
7.19427e-008
7.19489e-008
7.19574e-008
7.19663e-008
7.19732e-008
7.19787e-008
7.19834e-008
7.19884e-008
7.19917e-008
7.19958e-008
7.19982e-008
7.20006e-008
7.20021e-008
7.20031e-008
7.20033e-008
7.20029e-008
7.20021e-008
7.20001e-008
7.19985e-008
7.19953e-008
7.1992e-008
7.19873e-008
7.19824e-008
7.19759e-008
7.19692e-008
7.19601e-008
7.19509e-008
7.19396e-008
7.19275e-008
7.19136e-008
7.19e-008
7.18858e-008
7.18704e-008
7.18529e-008
7.18348e-008
7.18133e-008
7.17932e-008
7.17716e-008
7.1638e-008
7.17832e-008
7.27911e-008
6.9509e-008
7.7169e-008
6.96337e-008
6.37998e-008
2.41972e-007
1.131e-005
0.00066138
0.0175857
0.120294
0.342185
5.77982e-008
5.78071e-008
5.78233e-008
5.78422e-008
5.7852e-008
5.78553e-008
5.7866e-008
5.78904e-008
5.79148e-008
5.79303e-008
5.7934e-008
5.79402e-008
5.79532e-008
5.79747e-008
5.8003e-008
5.80276e-008
5.80437e-008
5.80596e-008
5.80697e-008
5.8085e-008
5.80971e-008
5.81093e-008
5.81238e-008
5.81387e-008
5.81576e-008
5.81751e-008
5.81899e-008
5.82048e-008
5.82278e-008
5.82423e-008
5.82568e-008
5.8278e-008
5.8294e-008
5.83138e-008
5.83331e-008
5.83512e-008
5.83686e-008
5.8386e-008
5.84034e-008
5.84206e-008
5.84379e-008
5.84552e-008
5.84733e-008
5.8492e-008
5.85101e-008
5.85268e-008
5.85437e-008
5.85604e-008
5.85774e-008
5.85943e-008
5.86112e-008
5.86279e-008
5.86446e-008
5.86614e-008
5.86779e-008
5.8694e-008
5.87105e-008
5.87262e-008
5.87423e-008
5.87576e-008
5.8773e-008
5.87884e-008
5.88026e-008
5.88179e-008
5.88318e-008
5.88468e-008
5.88599e-008
5.88754e-008
5.88871e-008
5.89023e-008
5.89155e-008
5.89282e-008
5.89425e-008
5.89567e-008
5.89681e-008
5.89814e-008
5.89924e-008
5.90037e-008
5.9017e-008
5.90294e-008
5.90379e-008
5.90476e-008
5.90549e-008
5.90615e-008
5.90727e-008
5.90813e-008
5.90919e-008
5.90979e-008
5.91038e-008
5.91135e-008
5.91219e-008
5.91263e-008
5.91306e-008
5.91368e-008
5.91438e-008
5.91493e-008
5.9155e-008
5.91587e-008
5.91625e-008
5.91655e-008
5.91676e-008
5.91692e-008
5.917e-008
5.91703e-008
5.91698e-008
5.91687e-008
5.91668e-008
5.91646e-008
5.91614e-008
5.91575e-008
5.91527e-008
5.91475e-008
5.91416e-008
5.91344e-008
5.91263e-008
5.91168e-008
5.91066e-008
5.90956e-008
5.90841e-008
5.9072e-008
5.90586e-008
5.90441e-008
5.90273e-008
5.90105e-008
5.89864e-008
5.89811e-008
5.93953e-008
5.85988e-008
5.67104e-008
6.45433e-008
5.02806e-008
6.22984e-008
4.33726e-007
2.73722e-005
0.00135466
0.0274475
0.153458
0.395881