/*--------------------------------*- C++ -*----------------------------------*\
| =========                 |                                                 |
| \\      /  F ield         | OpenFOAM: The Open Source CFD Toolbox           |
|  \\    /   O peration     | Version:  5.x                                   |
|   \\  /    A nd           | Web:      www.OpenFOAM.org                      |
|    \\/     M anipulation  |                                                 |
\*---------------------------------------------------------------------------*/
/*   Windows 32 and 64 bit porting by blueCAPE: http://www.bluecape.com.pt   *\
|  Based on Windows porting (2.0.x v4) by Symscape: http://www.symscape.com   |
\*---------------------------------------------------------------------------*/
FoamFile
{
    version     2.0;
    format      ascii;
    class       volScalarField;
    location    "290";
    object      p;
}
// * * * * * * * * * * * * * * * * * * * * * * * * * * * * * * * * * * * * * //

dimensions      [0 2 -2 0 0 0 0];

internalField   nonuniform List<scalar> 
43900
(
0.342515
0.342166
0.342125
0.341998
0.341797
0.34157
0.341368
0.341032
0.340789
0.340465
0.340141
0.339811
0.339464
0.339103
0.338733
0.338354
0.337964
0.337566
0.337159
0.336745
0.336323
0.335895
0.33546
0.335019
0.334573
0.334122
0.333664
0.333204
0.332737
0.340487
0.348567
0.342428
0.345717
0.343204
0.343955
0.343043
0.342868
0.342416
0.341983
0.34158
0.341145
0.340711
0.340283
0.339851
0.339414
0.338974
0.338531
0.338086
0.337635
0.337181
0.336723
0.33626
0.335795
0.335325
0.334849
0.334372
0.333889
0.333402
0.333685
0.355463
0.344372
0.350623
0.345534
0.348112
0.345722
0.346061
0.344973
0.344561
0.343973
0.34341
0.342875
0.342343
0.341816
0.341296
0.34078
0.34027
0.339762
0.339257
0.338756
0.338254
0.337754
0.337252
0.336748
0.336247
0.335741
0.335233
0.334727
0.328908
0.356567
0.349838
0.349643
0.34929
0.348866
0.347778
0.347738
0.346944
0.346571
0.346005
0.345489
0.344967
0.344443
0.343919
0.343393
0.342866
0.342337
0.341807
0.341279
0.340746
0.340214
0.339681
0.339145
0.338612
0.338074
0.337533
0.336994
0.336448
0.33143
0.355276
0.350263
0.349654
0.349632
0.349202
0.349007
0.348773
0.348243
0.347935
0.347499
0.347075
0.346648
0.346202
0.345745
0.345277
0.344798
0.344309
0.343813
0.343304
0.342789
0.342268
0.341733
0.341197
0.340653
0.3401
0.339545
0.33898
0.338407
0.336435
0.354544
0.351499
0.351193
0.351121
0.350714
0.350442
0.350193
0.349972
0.349701
0.349333
0.348989
0.348619
0.348232
0.347829
0.347413
0.346985
0.346542
0.346083
0.345619
0.345139
0.344639
0.344136
0.343619
0.343086
0.34255
0.341996
0.341435
0.340871
0.342705
0.356603
0.354796
0.354265
0.354219
0.354077
0.353747
0.353295
0.352975
0.352743
0.35241
0.352052
0.351685
0.351296
0.350893
0.350475
0.350044
0.349596
0.349139
0.348661
0.348165
0.347669
0.34715
0.346607
0.346071
0.345517
0.344944
0.344361
0.343755
0.349467
0.360728
0.35957
0.358958
0.358782
0.358643
0.358429
0.358078
0.357616
0.357172
0.35683
0.356459
0.356042
0.355611
0.355169
0.35471
0.354232
0.353743
0.353236
0.352715
0.352184
0.351619
0.351048
0.350476
0.349863
0.349235
0.348604
0.347956
0.347315
0.357304
0.366356
0.365649
0.365015
0.364737
0.364527
0.364276
0.363967
0.363572
0.363051
0.362532
0.362112
0.36167
0.361187
0.360685
0.360169
0.359638
0.359088
0.358522
0.357936
0.357325
0.356715
0.356084
0.355414
0.354734
0.354071
0.353386
0.352671
0.351924
0.366594
0.373406
0.373008
0.37237
0.372009
0.371728
0.371419
0.371067
0.370669
0.370202
0.369628
0.369015
0.368486
0.367955
0.36739
0.366805
0.366197
0.365566
0.364911
0.364236
0.363553
0.36283
0.362087
0.361355
0.360597
0.359776
0.358951
0.358122
0.35728
0.37599
0.381921
0.381628
0.380962
0.380534
0.38019
0.379819
0.379404
0.378945
0.378438
0.377867
0.3772
0.376471
0.375816
0.375167
0.374494
0.373809
0.373089
0.372339
0.371572
0.370776
0.369955
0.369118
0.368252
0.367353
0.366447
0.365541
0.364587
0.363599
0.386108
0.391521
0.391278
0.390577
0.390092
0.389689
0.38926
0.388782
0.388254
0.387676
0.387042
0.38634
0.385552
0.384696
0.383891
0.383102
0.382301
0.381476
0.38062
0.379732
0.378823
0.377891
0.376919
0.375934
0.37492
0.373866
0.372785
0.371689
0.370613
0.397413
0.402111
0.401899
0.401177
0.400639
0.400179
0.399692
0.399153
0.398561
0.397911
0.397199
0.396421
0.395566
0.394619
0.393603
0.392623
0.391668
0.390687
0.389683
0.388662
0.387596
0.386506
0.385385
0.384239
0.383057
0.381839
0.380619
0.37937
0.378048
0.409505
0.413669
0.41346
0.412711
0.412121
0.411602
0.411053
0.410449
0.409785
0.409057
0.408259
0.407387
0.406435
0.405394
0.404249
0.403037
0.401861
0.400701
0.399506
0.39829
0.397045
0.395758
0.394435
0.393091
0.391709
0.390273
0.388826
0.387345
0.385871
0.422309
0.426102
0.425878
0.425094
0.424449
0.42387
0.423258
0.422585
0.421846
0.421036
0.420148
0.419177
0.418118
0.416966
0.415714
0.414352
0.412926
0.411522
0.410139
0.40872
0.407268
0.405801
0.404278
0.402713
0.401123
0.399511
0.39788
0.396189
0.394463
0.435792
0.439333
0.439086
0.438264
0.437568
0.436931
0.436257
0.435518
0.434707
0.433819
0.432845
0.43178
0.430619
0.429358
0.427993
0.426517
0.42493
0.423288
0.421661
0.42004
0.418388
0.416725
0.414988
0.413216
0.411433
0.409574
0.407658
0.405724
0.403792
0.449846
0.453226
0.452952
0.452089
0.451339
0.450644
0.449908
0.4491
0.448215
0.447243
0.446177
0.445011
0.443737
0.442353
0.440856
0.439241
0.437501
0.435644
0.433726
0.43182
0.429906
0.427933
0.425938
0.423899
0.42179
0.419663
0.417512
0.415263
0.412954
0.464367
0.467656
0.467353
0.466442
0.465638
0.464883
0.464079
0.463197
0.462229
0.461167
0.46
0.45872
0.457321
0.455798
0.454147
0.452365
0.450446
0.448386
0.446197
0.44395
0.441704
0.439454
0.437146
0.434815
0.432449
0.429995
0.427528
0.425042
0.422502
0.479278
0.482528
0.482195
0.481236
0.480376
0.479562
0.478693
0.477738
0.476688
0.475533
0.474264
0.472873
0.47135
0.469691
0.46789
0.465945
0.463853
0.461608
0.459206
0.456675
0.454099
0.451497
0.44889
0.446246
0.443498
0.440755
0.437943
0.434978
0.432076
0.494462
0.497711
0.497349
0.49634
0.495426
0.494553
0.493618
0.492588
0.491455
0.490208
0.488838
0.487332
0.485683
0.483885
0.481932
0.47982
0.477548
0.475112
0.472506
0.469727
0.46682
0.463831
0.46082
0.457756
0.454676
0.451493
0.448235
0.445026
0.441714
0.50979
0.513071
0.512681
0.51162
0.510651
0.509719
0.508718
0.507613
0.506394
0.505051
0.503572
0.501947
0.500166
0.498221
0.496108
0.493819
0.491354
0.488711
0.485886
0.482873
0.479665
0.476316
0.472888
0.469459
0.465953
0.462427
0.458933
0.455261
0.451559
0.525158
0.528497
0.528082
0.52697
0.525948
0.524957
0.52389
0.52271
0.521405
0.519966
0.518379
0.516634
0.514719
0.512627
0.510351
0.507887
0.505231
0.502381
0.499338
0.496099
0.492659
0.489016
0.485245
0.481392
0.477492
0.473503
0.469473
0.465384
0.461174
0.540438
0.543864
0.543426
0.542263
0.541187
0.540139
0.539005
0.537748
0.536355
0.534815
0.533114
0.531242
0.529188
0.526942
0.524496
0.521846
0.518987
0.515916
0.512633
0.509139
0.505432
0.501508
0.497384
0.493094
0.488705
0.484244
0.47973
0.47513
0.470462
0.555526
0.559066
0.558607
0.557394
0.556266
0.555161
0.55396
0.552626
0.551144
0.549502
0.547687
0.545684
0.543483
0.541073
0.538448
0.535601
0.532527
0.529224
0.525689
0.521924
0.517929
0.513704
0.509247
0.504572
0.499717
0.494778
0.489777
0.484699
0.479538
0.570325
0.574006
0.573529
0.572267
0.57109
0.569928
0.568662
0.567249
0.565675
0.563927
0.56199
0.559851
0.557499
0.554923
0.552113
0.549063
0.545769
0.542226
0.538432
0.534389
0.530097
0.525558
0.520773
0.515741
0.510473
0.505031
0.499449
0.493744
0.487962
0.584743
0.588591
0.588099
0.58679
0.585564
0.584348
0.583014
0.581521
0.579854
0.577999
0.57594
0.573663
0.571153
0.568401
0.565396
0.562132
0.558604
0.554807
0.550739
0.5464
0.541791
0.536915
0.531775
0.526371
0.520699
0.514791
0.508678
0.50241
0.496047
0.598709
0.602748
0.602244
0.600889
0.599617
0.598348
0.596949
0.595376
0.593615
0.591649
0.589462
0.587037
0.584362
0.581426
0.578218
0.57473
0.570955
0.566891
0.562533
0.557882
0.552939
0.547708
0.542193
0.536399
0.530328
0.523987
0.517401
0.510594
0.503642
0.612155
0.616408
0.615894
0.614494
0.613179
0.611857
0.610392
0.608739
0.60688
0.604801
0.602482
0.599907
0.597062
0.593935
0.590514
0.586789
0.582755
0.578406
0.57374
0.568758
0.563459
0.557849
0.551933
0.545718
0.539214
0.532426
0.525359
0.518045
0.510501
0.62503
0.629517
0.628995
0.627553
0.626196
0.624825
0.623295
0.62156
0.619603
0.617408
0.614954
0.612224
0.609201
0.605871
0.602223
0.598247
0.593937
0.589285
0.584291
0.578952
0.57327
0.56725
0.560899
0.554224
0.547237
0.539949
0.532369
0.524511
0.516397
0.637295
0.64203
0.641501
0.640019
0.638624
0.637205
0.635612
0.633796
0.631741
0.629428
0.626835
0.623942
0.620733
0.617193
0.613309
0.60907
0.604466
0.599492
0.594145
0.588422
0.582328
0.575865
0.569041
0.561866
0.554353
0.546517
0.538372
0.529934
0.521232
0.648917
0.65391
0.653374
0.651857
0.650427
0.648962
0.647306
0.64541
0.643255
0.640822
0.638087
0.635029
0.63163
0.627872
0.623741
0.619224
0.61431
0.608994
0.603269
0.597137
0.590597
0.583656
0.576322
0.568606
0.560525
0.552095
0.543338
0.534276
0.524923
0.659876
0.665133
0.66459
0.663039
0.661578
0.660072
0.658355
0.65638
0.654126
0.651573
0.648694
0.645467
0.641871
0.637886
0.633496
0.628687
0.623446
0.617766
0.611641
0.605068
0.59805
0.590592
0.582704
0.574399
0.565695
0.556615
0.547183
0.537429
0.527368
0.67016
0.675679
0.675127
0.673548
0.672061
0.670516
0.668742
0.66669
0.66434
0.661667
0.658644
0.655246
0.651449
0.64723
0.642572
0.637457
0.631873
0.625808
0.619254
0.61221
0.604676
0.596657
0.588166
0.579216
0.569829
0.560032
0.549853
0.539329
0.528488
0.679765
0.685538
0.684976
0.683373
0.681866
0.680285
0.678457
0.676331
0.673886
0.671095
0.667929
0.664358
0.660357
0.6559
0.650967
0.645537
0.639593
0.633122
0.626114
0.618565
0.610475
0.60185
0.592701
0.583046
0.572909
0.562321
0.551316
0.539938
0.528226
0.688695
0.694708
0.694134
0.692512
0.690989
0.689378
0.6875
0.685304
0.682767
0.67986
0.676551
0.672807
0.668601
0.663903
0.658687
0.65293
0.646613
0.639716
0.632228
0.624142
0.615457
0.606177
0.596315
0.58589
0.57493
0.563469
0.551553
0.53923
0.526553
0.696959
0.703194
0.702603
0.70097
0.699438
0.6978
0.695876
0.693614
0.69099
0.687972
0.684523
0.68061
0.676198
0.671255
0.665751
0.659658
0.652952
0.645611
0.637618
0.628963
0.619642
0.609657
0.599021
0.587756
0.575892
0.563473
0.550548
0.53718
0.523436
0.704575
0.711006
0.710397
0.708758
0.707223
0.705565
0.703599
0.701277
0.69857
0.695445
0.691861
0.687781
0.683166
0.677978
0.672183
0.665748
0.658642
0.650839
0.642316
0.633059
0.623058
0.612315
0.600841
0.588659
0.575805
0.562327
0.548288
0.53376
0.518831
0.711563
0.718163
0.717531
0.715895
0.714364
0.71269
0.710688
0.70831
0.705527
0.7023
0.698585
0.694341
0.689525
0.684094
0.678008
0.671227
0.663713
0.655433
0.646357
0.636465
0.625742
0.614185
0.601804
0.588623
0.57468
0.560034
0.544757
0.528941
0.512692
0.717947
0.72469
0.724031
0.722405
0.720885
0.7192
0.717168
0.714741
0.711887
0.708564
0.704724
0.700322
0.69531
0.689639
0.683261
0.67613
0.6682
0.659431
0.649782
0.639224
0.627736
0.615309
0.601947
0.587675
0.572535
0.556595
0.539942
0.522689
0.504968
0.723753
0.730615
0.729925
0.728318
0.726817
0.725127
0.72307
0.7206
0.717681
0.714269
0.710312
0.705759
0.700556
0.69465
0.687984
0.680504
0.672155
0.662885
0.652644
0.641392
0.629096
0.615738
0.601317
0.585853
0.569394
0.552016
0.533827
0.514963
0.495592
0.729009
0.73597
0.735247
0.733667
0.732191
0.730502
0.728426
0.72592
0.722944
0.71945
0.715382
0.710685
0.7053
0.699167
0.692221
0.684398
0.67563
0.665853
0.655008
0.643036
0.629891
0.615542
0.599977
0.583212
0.565294
0.546312
0.526395
0.505715
0.484485
0.733738
0.740794
0.740031
0.738487
0.737043
0.73536
0.733272
0.730736
0.72771
0.724141
0.719972
0.71514
0.709583
0.703232
0.696017
0.687858
0.67868
0.668401
0.656944
0.644234
0.630205
0.614807
0.598012
0.579825
0.560293
0.539512
0.517641
0.494896
0.47155
0.737962
0.745123
0.744314
0.742814
0.741407
0.739736
0.737641
0.735082
0.732013
0.728378
0.724116
0.719161
0.713444
0.706891
0.69942
0.690943
0.681371
0.670603
0.658538
0.645082
0.630144
0.613647
0.595539
0.575805
0.554484
0.531682
0.507587
0.482471
0.456692
0.7417
0.748996
0.748131
0.746679
0.745316
0.74366
0.741564
0.738988
0.735884
0.732192
0.727847
0.722782
0.716922
0.710185
0.702483
0.693715
0.683772
0.672538
0.659888
0.645698
0.629843
0.61221
0.592713
0.571308
0.548016
0.522941
0.496303
0.468444
0.439836
0.74497
0.752448
0.751512
0.750113
0.748796
0.74716
0.745068
0.742481
0.739349
0.73561
0.731197
0.726038
0.720057
0.713165
0.705263
0.69624
0.685967
0.67431
0.661116
0.646222
0.629465
0.610685
0.589746
0.566559
0.54111
0.513489
0.483938
0.452884
0.42095
0.74779
0.755512
0.754481
0.753139
0.751872
0.750258
0.748175
0.745585
0.742436
0.738663
0.734199
0.728973
0.722901
0.715893
0.707839
0.698614
0.688073
0.676054
0.662377
0.646838
0.629222
0.609313
0.586911
0.561859
0.53408
0.503626
0.470751
0.435956
0.400077
0.750185
0.758211
0.757059
0.755777
0.754562
0.752974
0.750908
0.748326
0.745174
0.741389
0.736903
0.731645
0.725529
0.718459
0.710317
0.700963
0.690232
0.677936
0.663863
0.647767
0.629374
0.608398
0.584558
0.5576
0.527353
0.49378
0.457127
0.417949
0.37736
0.752186
0.760563
0.75926
0.758048
0.756887
0.755331
0.753293
0.750737
0.747607
0.743842
0.739377
0.73414
0.728043
0.72098
0.712827
0.703429
0.692606
0.680145
0.665795
0.649264
0.63022
0.608295
0.583106
0.554267
0.521471
0.484523
0.443616
0.39927
0.353041
0.753831
0.76258
0.7611
0.759972
0.75887
0.757358
0.755368
0.752864
0.749793
0.746095
0.741707
0.736555
0.730547
0.723576
0.715505
0.70617
0.695376
0.682885
0.668409
0.651608
0.63209
0.609395
0.58302
0.552411
0.517081
0.476569
0.430955
0.380506
0.327488
0.755167
0.764276
0.7626
0.761578
0.760544
0.759093
0.757177
0.754762
0.751795
0.748218
0.743971
0.738979
0.733149
0.726369
0.718496
0.709352
0.698725
0.686358
0.67193
0.655056
0.63528
0.612051
0.584741
0.552585
0.514876
0.47073
0.420067
0.362469
0.301252
0.75624
0.765671
0.763791
0.762902
0.761946
0.760578
0.758768
0.756481
0.753665
0.750271
0.746237
0.741491
0.735934
0.729449
0.721886
0.713057
0.702735
0.690645
0.676443
0.659706
0.639926
0.616458
0.588555
0.555205
0.515472
0.467832
0.412016
0.346173
0.275141
0.757097
0.766793
0.764711
0.763985
0.763117
0.761855
0.760179
0.758056
0.755438
0.75228
0.748519
0.744079
0.73886
0.732737
0.725556
0.717124
0.707207
0.695518
0.681702
0.66531
0.645794
0.622422
0.59435
0.560294
0.519111
0.468417
0.407763
0.332772
0.250214
0.757783
0.767686
0.765413
0.764875
0.764099
0.76296
0.761439
0.759502
0.757107
0.754201
0.750724
0.746595
0.741712
0.735949
0.729153
0.721132
0.711652
0.700424
0.687085
0.671176
0.652127
0.629137
0.601298
0.567051
0.525117
0.472066
0.407278
0.322805
0.226937
0.758338
0.7684
0.765948
0.765614
0.764928
0.763919
0.762556
0.760803
0.758614
0.755934
0.7527
0.74883
0.744224
0.738757
0.732279
0.724602
0.715497
0.704676
0.691781
0.676342
0.657785
0.635259
0.607834
0.573694
0.531508
0.476732
0.408504
0.314851
0.20339
0.758736
0.768934
0.766315
0.766185
0.765576
0.764687
0.76346
0.761856
0.759827
0.757315
0.754255
0.750565
0.746143
0.740869
0.734595
0.727136
0.718267
0.707703
0.695089
0.679945
0.661696
0.639446
0.612268
0.578094
0.53562
0.479117
0.407423
0.304016
0.173188
0.758818
0.769138
0.766359
0.766406
0.765842
0.76503
0.763884
0.762366
0.760425
0.758004
0.755036
0.751436
0.747104
0.741918
0.735731
0.728358
0.719575
0.709093
0.696554
0.681466
0.663242
0.64093
0.613598
0.578898
0.535632
0.476616
0.400778
0.283514
0.128017
0.75864
0.76903
0.766102
0.766274
0.765712
0.764915
0.763774
0.762255
0.760311
0.757888
0.754918
0.751318
0.746987
0.741799
0.735605
0.728217
0.719404
0.708872
0.69625
0.681029
0.662601
0.639942
0.6121
0.576406
0.531832
0.469496
0.38919
0.254111
0.0660331
0.759962
0.770322
0.767361
0.767629
0.767126
0.766401
0.765318
0.763835
0.761898
0.759448
0.756423
0.752744
0.748314
0.743015
0.736699
0.729178
0.72022
0.709522
0.696706
0.681244
0.662506
0.639403
0.61094
0.57421
0.528168
0.462839
0.379099
0.233092
0.0158856
0.767121
0.777628
0.774968
0.775488
0.775478
0.775377
0.775009
0.774245
0.772951
0.771015
0.768348
0.76487
0.7605
0.755142
0.748672
0.740927
0.73169
0.720678
0.707517
0.691695
0.672564
0.649091
0.620079
0.583132
0.535615
0.470801
0.383769
0.259976
0.14347
0.332182
0.331538
0.330884
0.330224
0.329558
0.328885
0.328205
0.327519
0.326829
0.326131
0.32543
0.324722
0.324007
0.323289
0.322566
0.321837
0.321105
0.320368
0.319627
0.318881
0.318134
0.317384
0.31663
0.315876
0.31512
0.314366
0.313608
0.312849
0.312092
0.311333
0.310575
0.309817
0.309059
0.308302
0.307546
0.30679
0.306035
0.305281
0.304528
0.303777
0.303027
0.302279
0.301534
0.300792
0.300052
0.299315
0.298583
0.297853
0.297128
0.296406
0.295689
0.294977
0.294269
0.293567
0.292869
0.292177
0.291491
0.29081
0.290135
0.289466
0.288804
0.288148
0.287499
0.286857
0.286221
0.285593
0.284972
0.284358
0.283752
0.283153
0.282564
0.281981
0.281407
0.280842
0.280284
0.279736
0.279196
0.278665
0.278143
0.27763
0.277126
0.276632
0.276147
0.275671
0.275205
0.27475
0.274303
0.273868
0.273442
0.273027
0.272622
0.272228
0.271844
0.271472
0.27111
0.270759
0.27042
0.270091
0.269774
0.269468
0.269173
0.268889
0.268617
0.268355
0.268105
0.267866
0.267639
0.267422
0.267216
0.26702
0.266836
0.266661
0.266497
0.266343
0.266199
0.266065
0.26594
0.265825
0.26572
0.265624
0.265538
0.265461
0.265392
0.265332
0.265281
0.265238
0.265202
0.265175
0.265152
0.265139
0.265131
0.265129
0.265138
0.265147
0.265178
0.265199
0.265265
0.26528
0.265435
0.332826
0.332153
0.331475
0.330791
0.330099
0.329402
0.3287
0.327993
0.327281
0.326564
0.325842
0.325116
0.324388
0.323656
0.32292
0.322182
0.321441
0.320698
0.319953
0.319207
0.318457
0.317705
0.316951
0.316191
0.315425
0.314653
0.313886
0.313119
0.312344
0.311568
0.310792
0.310015
0.309243
0.30848
0.307717
0.306955
0.306193
0.30543
0.304667
0.303903
0.303137
0.302371
0.301608
0.300848
0.300089
0.299334
0.298581
0.297831
0.297085
0.296342
0.295603
0.294868
0.294138
0.293412
0.292691
0.291975
0.291265
0.290559
0.28986
0.289166
0.288479
0.287798
0.287124
0.286457
0.285796
0.285143
0.284498
0.283859
0.283229
0.282607
0.281992
0.281386
0.280788
0.280199
0.279619
0.279047
0.278485
0.277933
0.277388
0.276854
0.27633
0.275816
0.275312
0.274819
0.274337
0.273863
0.273402
0.27295
0.272509
0.27208
0.271661
0.271253
0.270855
0.270468
0.270094
0.269731
0.26938
0.26904
0.268713
0.268397
0.268094
0.267802
0.267523
0.267256
0.267001
0.266758
0.266527
0.266308
0.266101
0.265906
0.265723
0.265553
0.265394
0.265247
0.265112
0.264988
0.264877
0.264777
0.264687
0.264608
0.264539
0.26448
0.26443
0.264389
0.264356
0.264331
0.264312
0.264298
0.264295
0.264285
0.264294
0.264286
0.264306
0.26428
0.264323
0.264282
0.264325
0.264264
0.264222
0.334123
0.333424
0.332724
0.332013
0.331299
0.330581
0.329857
0.329127
0.32839
0.327649
0.326902
0.32615
0.325392
0.324627
0.323858
0.323084
0.322303
0.321519
0.320726
0.319928
0.319127
0.318321
0.317514
0.316706
0.315913
0.315134
0.314332
0.313511
0.312695
0.311881
0.311066
0.310251
0.309431
0.308603
0.307775
0.306949
0.306125
0.305305
0.304487
0.303673
0.302866
0.302065
0.301261
0.300455
0.299653
0.298854
0.298058
0.297266
0.296477
0.295691
0.29491
0.294133
0.293361
0.292593
0.29183
0.291072
0.29032
0.289573
0.288833
0.288099
0.287371
0.28665
0.285936
0.285229
0.28453
0.283839
0.283156
0.282482
0.281816
0.28116
0.280513
0.279874
0.279245
0.278627
0.27802
0.277421
0.276834
0.276257
0.27569
0.275134
0.274586
0.27405
0.273526
0.273012
0.272509
0.272018
0.271537
0.271067
0.270611
0.270166
0.269734
0.269314
0.268909
0.268518
0.26814
0.267775
0.267421
0.267081
0.266753
0.266438
0.266137
0.265848
0.265572
0.265309
0.265059
0.264823
0.264599
0.264389
0.264192
0.264008
0.263837
0.263679
0.263533
0.2634
0.26328
0.263173
0.263078
0.262997
0.262928
0.262872
0.262829
0.262798
0.262779
0.262771
0.262776
0.262792
0.262821
0.26286
0.262912
0.262979
0.263064
0.263124
0.263217
0.263329
0.263333
0.263563
0.263372
0.263943
0.263364
0.335802
0.335059
0.334305
0.333547
0.332785
0.332014
0.331235
0.330452
0.329662
0.328864
0.328059
0.327249
0.326432
0.32561
0.324781
0.323948
0.323111
0.322268
0.321427
0.320583
0.319732
0.318874
0.318013
0.317151
0.316272
0.315384
0.314502
0.313629
0.312756
0.311875
0.310991
0.310106
0.309227
0.308357
0.307489
0.306617
0.305742
0.304865
0.303987
0.303108
0.302228
0.301348
0.300477
0.299618
0.298764
0.297911
0.297061
0.296213
0.295367
0.294527
0.29369
0.292858
0.292032
0.291212
0.290398
0.289589
0.288788
0.287994
0.287206
0.286426
0.285654
0.28489
0.284134
0.283387
0.282649
0.281921
0.281202
0.280494
0.279796
0.279108
0.278435
0.27777
0.277117
0.276476
0.275844
0.275222
0.274604
0.273996
0.273398
0.272802
0.272221
0.271654
0.271096
0.270543
0.270001
0.26947
0.268956
0.268467
0.26799
0.267522
0.267066
0.266623
0.266191
0.265772
0.265368
0.264981
0.264609
0.264252
0.263911
0.263583
0.263271
0.262973
0.26269
0.262421
0.262167
0.261926
0.2617
0.261488
0.261289
0.261102
0.260928
0.260766
0.260617
0.260487
0.260375
0.260281
0.260206
0.260149
0.260111
0.260092
0.260093
0.260113
0.260154
0.260216
0.260298
0.260403
0.260526
0.260668
0.260845
0.261011
0.261183
0.261548
0.261443
0.262318
0.261453
0.263577
0.261285
0.26519
0.260562
0.337735
0.336945
0.336146
0.335345
0.33453
0.333706
0.332877
0.332042
0.331198
0.330349
0.329494
0.32863
0.327762
0.326891
0.326007
0.325117
0.324225
0.323326
0.32241
0.32149
0.320563
0.319658
0.318744
0.317807
0.316859
0.315898
0.314937
0.313977
0.31301
0.312063
0.311121
0.310154
0.309176
0.308208
0.30725
0.306296
0.305347
0.304401
0.303459
0.302521
0.301587
0.300653
0.29972
0.298786
0.29785
0.29692
0.295997
0.29508
0.294169
0.293264
0.292365
0.291472
0.290586
0.289707
0.288835
0.287971
0.287114
0.286265
0.285424
0.284591
0.283766
0.28295
0.282142
0.281342
0.28055
0.279768
0.278993
0.278226
0.277468
0.276718
0.275976
0.275244
0.27452
0.273806
0.273102
0.272413
0.271736
0.271069
0.270414
0.269777
0.269151
0.268536
0.267939
0.267362
0.266808
0.266265
0.265724
0.265184
0.264658
0.264153
0.263663
0.263191
0.262736
0.262294
0.261868
0.261453
0.261054
0.260668
0.260295
0.259939
0.259597
0.25927
0.258959
0.258665
0.258386
0.258125
0.257882
0.257656
0.257449
0.257264
0.2571
0.256959
0.256843
0.256744
0.256665
0.256604
0.256564
0.256545
0.256546
0.256568
0.256612
0.256678
0.256767
0.25688
0.257015
0.257179
0.257382
0.257598
0.257845
0.258314
0.258274
0.259433
0.258462
0.261533
0.258168
0.264797
0.256763
0.270054
0.251197
0.340184
0.339378
0.338567
0.337733
0.336878
0.33602
0.335147
0.334257
0.333349
0.332428
0.331495
0.330551
0.329593
0.328622
0.327649
0.326667
0.325662
0.324649
0.323644
0.322665
0.321679
0.320632
0.319581
0.318547
0.31752
0.316513
0.315538
0.31454
0.313509
0.312453
0.311397
0.310366
0.30933
0.308275
0.307206
0.306144
0.305086
0.304034
0.302985
0.301942
0.300902
0.299868
0.298837
0.297808
0.296784
0.295768
0.294758
0.293755
0.292758
0.291768
0.290783
0.289805
0.288834
0.287869
0.286911
0.285961
0.285019
0.284084
0.283157
0.282239
0.28133
0.28043
0.279539
0.278657
0.277784
0.276921
0.276069
0.275225
0.274393
0.273574
0.27276
0.271966
0.271181
0.270408
0.269646
0.268892
0.268154
0.267425
0.266713
0.26602
0.265349
0.264696
0.264056
0.263438
0.262829
0.262233
0.261664
0.261112
0.260579
0.260056
0.25955
0.259055
0.258573
0.258104
0.257646
0.257202
0.256772
0.256358
0.25596
0.255579
0.255213
0.254866
0.254535
0.254223
0.25393
0.253655
0.253399
0.253164
0.25295
0.252756
0.252583
0.252432
0.252301
0.252192
0.252104
0.252038
0.251994
0.251973
0.251976
0.252003
0.252057
0.252138
0.252251
0.252398
0.252581
0.252789
0.253043
0.253412
0.253495
0.254365
0.253863
0.255841
0.254114
0.257643
0.254229
0.259772
0.25287
0.266289
0.235424
0.343026
0.34218
0.341299
0.340397
0.339489
0.338554
0.337587
0.336611
0.335632
0.334639
0.333629
0.332608
0.33158
0.330533
0.32947
0.328401
0.327368
0.32632
0.325215
0.324077
0.322937
0.321828
0.320732
0.319612
0.318465
0.317296
0.316098
0.314946
0.313819
0.312659
0.311499
0.310334
0.309166
0.308006
0.306869
0.305738
0.304597
0.303451
0.302301
0.30115
0.300001
0.298857
0.297718
0.296588
0.295463
0.294339
0.293213
0.292093
0.290981
0.289878
0.288783
0.287696
0.286617
0.285547
0.284486
0.283434
0.282392
0.28136
0.280339
0.279329
0.27833
0.277343
0.27637
0.275409
0.274463
0.273531
0.272614
0.271712
0.270825
0.269953
0.269095
0.26825
0.267421
0.266604
0.265804
0.265022
0.264253
0.263505
0.262767
0.262032
0.261303
0.260592
0.259896
0.259202
0.258512
0.257842
0.257197
0.256563
0.255941
0.255339
0.25475
0.254182
0.253636
0.253112
0.252611
0.252135
0.251679
0.251242
0.250824
0.250424
0.250043
0.249679
0.249335
0.249008
0.248699
0.248409
0.248136
0.247883
0.247649
0.247435
0.24724
0.247064
0.246909
0.246775
0.246663
0.246574
0.246508
0.246467
0.246452
0.246463
0.246502
0.246568
0.246662
0.246781
0.246933
0.247108
0.247229
0.247604
0.247499
0.248223
0.247762
0.248852
0.248154
0.249313
0.248964
0.249589
0.249212
0.256026
0.223971
0.346553
0.34561
0.344647
0.343678
0.342679
0.341648
0.340634
0.339599
0.338516
0.337411
0.336304
0.33517
0.334042
0.332937
0.331787
0.330585
0.329341
0.328096
0.326876
0.325653
0.324422
0.32316
0.321869
0.320598
0.319342
0.318079
0.316801
0.315494
0.314195
0.312926
0.311651
0.310377
0.309104
0.307821
0.306524
0.305218
0.303926
0.302647
0.301375
0.30011
0.298848
0.297589
0.296334
0.295083
0.293836
0.29259
0.291348
0.290112
0.288888
0.28768
0.286482
0.285294
0.284117
0.28295
0.281796
0.280652
0.279521
0.278403
0.277296
0.276202
0.27512
0.27405
0.272993
0.271948
0.270918
0.269903
0.268899
0.267914
0.266939
0.265975
0.26503
0.26409
0.263162
0.262247
0.261339
0.260437
0.259548
0.258679
0.257836
0.257021
0.256226
0.255454
0.25471
0.253979
0.253279
0.252611
0.251944
0.251293
0.250665
0.250048
0.249447
0.248864
0.248292
0.247734
0.247193
0.246663
0.246149
0.245652
0.245173
0.244716
0.244278
0.243862
0.243468
0.243094
0.242743
0.242412
0.242103
0.241815
0.241547
0.241299
0.241072
0.240866
0.24068
0.240515
0.240372
0.240251
0.24015
0.240071
0.240012
0.239971
0.23995
0.239942
0.239948
0.239963
0.23999
0.240058
0.240022
0.240229
0.240094
0.240453
0.24024
0.240704
0.240503
0.240762
0.241375
0.240557
0.240561
0.247531
0.218281
0.351018
0.34998
0.348928
0.347817
0.346676
0.345536
0.344351
0.343129
0.341902
0.340672
0.339422
0.33815
0.336822
0.335437
0.334077
0.332747
0.331419
0.330091
0.328718
0.327313
0.325912
0.324524
0.323134
0.321724
0.320294
0.318881
0.3175
0.316126
0.314696
0.313222
0.311758
0.310297
0.308845
0.307413
0.305988
0.304565
0.303142
0.301718
0.300296
0.298883
0.297477
0.296079
0.294689
0.293307
0.29194
0.290571
0.289199
0.287843
0.286491
0.285147
0.283822
0.282516
0.281223
0.279941
0.278673
0.277416
0.276173
0.274941
0.273722
0.272517
0.271322
0.270142
0.268978
0.267829
0.266696
0.265575
0.264472
0.263383
0.262309
0.261252
0.260213
0.259193
0.258194
0.257216
0.256266
0.255341
0.254442
0.253569
0.252704
0.25184
0.250995
0.250167
0.249342
0.24853
0.247742
0.246966
0.246212
0.245487
0.244775
0.24409
0.243438
0.242801
0.242186
0.241596
0.241023
0.24047
0.239937
0.239422
0.238927
0.238447
0.237985
0.237542
0.237114
0.236705
0.236314
0.235942
0.235589
0.235255
0.23494
0.234646
0.234372
0.234117
0.233883
0.233668
0.23347
0.233291
0.233128
0.23298
0.232847
0.232727
0.232619
0.232526
0.23244
0.232365
0.232288
0.23227
0.232154
0.232235
0.23207
0.232261
0.232054
0.232312
0.232339
0.23202
0.232448
0.231554
0.230124
0.236968
0.211407
0.356281
0.355081
0.353822
0.352552
0.351279
0.349944
0.348572
0.347231
0.34586
0.344427
0.342991
0.341525
0.340041
0.338627
0.337197
0.335657
0.334089
0.33251
0.330938
0.329428
0.327868
0.326254
0.324639
0.323007
0.321406
0.319834
0.318235
0.316607
0.314991
0.313399
0.311806
0.310204
0.308588
0.306976
0.305392
0.303825
0.302251
0.300675
0.299104
0.297534
0.295965
0.294401
0.29284
0.291276
0.289711
0.288176
0.28666
0.285155
0.283661
0.282189
0.280765
0.279358
0.277952
0.276552
0.275162
0.273784
0.272421
0.271073
0.269742
0.26843
0.267139
0.265867
0.264611
0.263374
0.26215
0.260944
0.25975
0.258577
0.257428
0.256302
0.255193
0.254101
0.253027
0.251969
0.250932
0.24992
0.248932
0.247954
0.246999
0.246078
0.245182
0.244308
0.243459
0.242626
0.241797
0.241002
0.240235
0.239463
0.238713
0.237994
0.237271
0.236568
0.235892
0.235226
0.234582
0.23396
0.233359
0.232781
0.232224
0.231689
0.231175
0.230681
0.230206
0.229752
0.229316
0.2289
0.228502
0.228122
0.227761
0.227417
0.22709
0.22678
0.226486
0.226208
0.225945
0.225695
0.225461
0.225239
0.225032
0.224837
0.224654
0.224486
0.224333
0.224194
0.22405
0.223978
0.223812
0.223829
0.223647
0.223726
0.223599
0.223578
0.223892
0.223492
0.223437
0.222762
0.221471
0.227385
0.205157
0.362422
0.36104
0.359654
0.35822
0.356729
0.355242
0.353738
0.352158
0.350569
0.34897
0.347382
0.345772
0.344101
0.342363
0.340599
0.338864
0.33717
0.33544
0.333665
0.331861
0.330037
0.328278
0.326547
0.324747
0.322928
0.321115
0.319309
0.317495
0.315658
0.313813
0.312003
0.310199
0.308372
0.306553
0.304756
0.302974
0.3012
0.299439
0.29769
0.295948
0.294218
0.292505
0.290812
0.28914
0.287495
0.285832
0.284163
0.282517
0.280895
0.279275
0.27765
0.276054
0.274488
0.272946
0.271426
0.269929
0.268452
0.266995
0.265559
0.264142
0.262745
0.261368
0.260014
0.25868
0.257371
0.256085
0.254824
0.253582
0.252354
0.251143
0.249957
0.248792
0.247644
0.246528
0.245429
0.244345
0.243281
0.242247
0.24123
0.240219
0.239231
0.238282
0.237346
0.236426
0.235551
0.234696
0.233849
0.233033
0.232245
0.231462
0.230706
0.229976
0.229251
0.228548
0.227867
0.227201
0.226554
0.225926
0.225318
0.224728
0.224159
0.223608
0.223079
0.222569
0.22208
0.221608
0.221157
0.220724
0.220307
0.219909
0.219526
0.21916
0.218808
0.218472
0.218149
0.217841
0.217546
0.217266
0.216998
0.216746
0.216507
0.216284
0.216079
0.215905
0.215711
0.215608
0.215424
0.215392
0.215233
0.215239
0.215158
0.214991
0.215075
0.214539
0.214144
0.213559
0.212562
0.217595
0.198125
0.369312
0.367738
0.366113
0.364465
0.362809
0.361077
0.359307
0.357533
0.355735
0.353867
0.351944