/*--------------------------------*- C++ -*----------------------------------*\
| =========                 |                                                 |
| \\      /  F ield         | OpenFOAM: The Open Source CFD Toolbox           |
|  \\    /   O peration     | Version:  5.x                                   |
|   \\  /    A nd           | Web:      www.OpenFOAM.org                      |
|    \\/     M anipulation  |                                                 |
\*---------------------------------------------------------------------------*/
/*   Windows 32 and 64 bit porting by blueCAPE: http://www.bluecape.com.pt   *\
|  Based on Windows porting (2.0.x v4) by Symscape: http://www.symscape.com   |
\*---------------------------------------------------------------------------*/
FoamFile
{
    version     2.0;
    format      ascii;
    class       surfaceScalarField;
    location    "290";
    object      phi;
}
// * * * * * * * * * * * * * * * * * * * * * * * * * * * * * * * * * * * * * //

dimensions      [0 3 -1 0 0 0 0];

internalField   nonuniform List<scalar> 
87341
(
0.365257
39.5578
0.528586
39.7597
0.494791
39.9568
0.600633
39.8172
0.636018
39.8877
0.679417
39.8796
0.71454
39.8879
0.750424
39.8872
0.78605
39.8874
0.817639
39.8914
0.852402
39.8883
0.884463
39.891
0.911944
39.8956
0.935061
39.8999
0.957399
39.9007
0.980315
39.9001
0.997907
39.9054
1.01326
39.9077
1.02942
39.9069
1.04383
39.9086
1.05973
39.9071
1.07494
39.9078
1.08669
39.9113
1.09946
39.9103
1.11147
39.911
1.12227
39.9122
1.13499
39.9103
1.14618
39.9119
39.9142
1.15498
0.971174
38.5866
1.36367
39.3672
1.4757
39.8448
1.61386
39.679
1.65523
39.8463
1.81489
39.72
1.9185
39.7843
2.05109
39.7546
2.14653
39.792
2.24789
39.7901
2.3374
39.7988
2.42705
39.8013
2.5152
39.8074
2.59863
39.8165
2.67733
39.822
2.74531
39.8321
2.81142
39.8393
2.88002
39.8391
2.94044
39.8465
2.99809
39.851
3.05038
39.8548
3.09635
39.8619
3.14459
39.863
3.19027
39.8646
3.23171
39.8696
3.27359
39.8704
3.31047
39.8734
3.34414
39.8782
39.877
3.38133
2.03665
36.55
3.35473
38.0491
4.13521
39.0643
4.22009
39.5942
4.38058
39.6858
4.31788
39.7827
4.3524
39.7498
4.33166
39.7753
4.35703
39.7666
4.37556
39.7715
4.3975
39.7768
4.42166
39.7772
4.45213
39.7769
4.48983
39.7788
4.52576
39.7861
4.56672
39.7912
4.6166
39.7895
4.66035
39.7953
4.70488
39.8019
4.7518
39.8041
4.79675
39.8099
4.84539
39.8132
4.89247
39.816
4.93555
39.8215
4.98053
39.8246
5.02193
39.829
5.06092
39.8344
5.10424
39.8349
39.8365
5.14479
1.69759
34.8524
3.49939
36.2473
4.95115
37.6126
5.83891
38.7064
6.13983
39.3849
6.22819
39.6943
6.24383
39.7341
6.27515
39.744
6.29479
39.747
6.30915
39.7572
6.32041
39.7656
6.32635
39.7712
6.33127
39.772
6.33557
39.7745
6.35177
39.7699
6.37431
39.7686
6.38921
39.7746
6.40766
39.7769
6.43551
39.7741
6.4626
39.777
6.49447
39.778
6.52809
39.7796
6.56043
39.7836
6.59314
39.7888
6.62628
39.7915
6.66471
39.7905
6.71163
39.7875
6.75567
39.7908
39.7979
6.79424
1.09009
33.7623
2.45885
34.8786
4.03404
36.0374
5.50125
37.2392
6.57403
38.3121
7.16465
39.1037
7.37604
39.5228
7.4242
39.6958
7.47128
39.6999
7.5237
39.7048
7.57547
39.7138
7.6302
39.7165
7.6849
39.7173
7.73805
39.7214
7.78485
39.7231
7.82718
39.7263
7.87998
39.7218
7.93656
39.7203
7.98126
39.7294
8.0273
39.7309
8.07162
39.7337
8.11338
39.7379
8.16294
39.7341
8.22284
39.7289
8.28673
39.7276
8.34803
39.7292
8.39401
39.7415
8.43831
39.7465
39.7409
8.49536
0.857622
32.9047
1.87377
33.8624
3.04708
34.8641
4.38183
35.9044
5.74069
36.9532
6.88227
37.9621
7.61388
38.7911
7.97138
39.3383
8.10581
39.5654
8.19442
39.6162
8.29242
39.6158
8.38849
39.6204
8.47439
39.6314
8.561
39.6347
8.64993
39.6341
8.73508
39.6411
8.81289
39.644
8.88993
39.6433
8.97648
39.6428
9.06157
39.6458
9.14492
39.6503
9.2377
39.6451
9.32663
39.6451
9.39516
39.6604
9.45841
39.6643
9.52123
39.6664
9.59964
39.6631
9.6919
39.6543
39.6546
9.77815
0.750926
32.1537
1.60354
33.0098
2.55944
33.9082
3.62265
34.8412
4.78282
35.793
6.00043
36.7445
7.11664
37.6749
7.94871
38.5062
8.40996
39.1042
8.61239
39.4137
8.7309
39.4973
8.8543
39.497
8.98543
39.5003
9.10512
39.5151
9.22281
39.5165
9.34833
39.5156
9.47012
39.5222
9.58444
39.5289
9.69195
39.5353
9.80659
39.5312
9.92587
39.5311
10.0285
39.5424
10.124
39.5496
10.2309
39.5534
10.3459
39.5494
10.4665
39.5458
10.583
39.5466
10.6772
39.5601
39.5711
10.7606
0.697367
31.4564
1.46413
32.2431
2.30395
33.0683
3.21905
33.9261
4.20689
34.8052
5.25854
35.6929
6.35899
36.5745
7.43615
37.4291
8.31211
38.2282
8.87063
38.8552
9.13747
39.2305
9.28274
39.3518
9.42752
39.3555
9.58027
39.3623
9.72392
39.3728
9.86426
39.3753
10.0142
39.3722
10.1694
39.3738
10.3216
39.3831
10.4639
39.3889
10.5949
39.4
10.7358
39.4016
10.8883
39.3971
11.0467
39.395
11.1871
39.409
11.3185
39.4144
11.4333
39.4318
11.5606
39.4329
39.4297
11.702
0.669636
30.7867
1.38958
31.5231
2.16448
32.2934
2.99635
33.0943
3.88469
33.9169
4.82596
34.7516
5.81259
35.5878
6.82837
36.4133
7.84342
37.2132
8.73076
37.9679
9.35587
38.6053
9.68023
39.0274
9.85839
39.1773
10.031
39.1896
10.2078
39.1961
10.3796
39.2035
10.536
39.2158
10.6984
39.2114
10.8687
39.2128
11.0439
39.2137
11.2233
39.2206
11.3973
39.2276
11.5541
39.2403
11.6942
39.255
11.8428
39.2604
11.9937
39.2635
12.1508
39.2747
12.2958
39.2879
39.2878
12.4377
0.652374
30.1344
1.34768
30.8278
2.08494
31.5562
2.86584
32.3133
3.69059
33.0921
4.55759
33.8846
5.46299
34.6825
6.39958
35.4767
7.3554
36.2574
8.31103
37.0122
9.19292
37.7235
9.86438
38.3559
10.2464
38.7953
10.4617
38.9743
10.6632
38.9946
10.8616
39.005
11.0733
39.0041
11.2647
39.0201
11.4416
39.0359
11.6245
39.0308
11.8075
39.0375
11.99
39.0451
12.1785
39.0517
12.3739
39.0596
12.5632
39.0711
12.7403
39.0864
12.9228
39.0921
13.1129
39.0978
39.1063
13.2944
0.649961
29.4844
1.33384
30.1439
2.05249
30.8375
2.80654
31.5593
3.59587
32.3028
4.41932
33.0611
5.27455
33.8272
6.15761
34.5937
7.06235
35.3526
7.97922
36.0954
8.89171
36.811
9.76438
37.4833
10.461
38.0987
10.8865
38.5488
11.1389
38.7422
11.3756
38.7683
11.6046
38.7751
11.8445
38.7802
12.0816
38.7988
12.2958
38.8167
12.5098
38.8235
12.7347
38.8202
12.9525
38.834
13.1678
38.8442
13.3753
38.8636
13.5806
38.8811
13.7749
38.8979
13.9518
38.9209
38.9299
14.1282
0.654121
28.8303
1.33662
29.4614
2.04913
30.125
2.7919
30.8165
3.5646
31.5301
4.36615
32.2596
5.19469
32.9987
6.04742
33.7409
6.92029
34.4798
7.8074
35.2083
8.6996
35.9188
9.58104
36.6018
10.435
37.2448
11.1483
37.8355
11.6061
38.2845
11.8983
38.476
12.1661
38.5074
12.4209
38.5253
12.6875
38.5323
12.9637
38.5404
13.2328
38.5545
13.4744
38.5786
13.7078
38.6006
13.9394
38.6126
14.1688
38.6342
14.4043
38.6456
14.6534
38.6488
14.8968
38.6775
38.7036
15.1231
0.659137
28.1711
1.34476
28.7758
2.05693
29.4129
2.79555
30.0779
3.5602
30.7654
4.34998
31.4698
5.16327
32.1854
5.9978
32.9064
6.85052
33.627
7.71728
34.3415
8.59239
35.0437
9.46757
35.7267
10.3302
36.3821
11.1671
36.9986
11.8855
37.5661
12.3538
38.0077
12.665
38.1962
12.9618
38.2285
13.2414
38.2527
13.5212
38.2606
13.79
38.2857
14.0594
38.3092
14.3294
38.3306
14.5957
38.3463
14.8608
38.369
15.1031
38.4034
15.316
38.4358
15.5286
38.4648
38.4684
15.7638
0.668955
27.5022
1.36196
28.0828
2.07923
28.6956
2.8206
29.3365
3.58531
30.0007
4.3724
30.6827
5.18058
31.3772
6.00791
32.0791
6.85191
32.783
7.70942
33.484
8.57637
34.1767
9.44735
34.8557
10.3148
35.5146
11.1676
36.1459
11.9948
36.7389
12.7164
37.2861
13.1944
37.7181
13.5282
37.8947
13.8558
37.9251
14.1338
37.9826
14.4272
37.9923
14.7307
38.0058
15.0374
38.0239
15.333
38.0507
15.6255
38.0765
15.9328
38.0962
16.25
38.1186
16.554
38.1608
38.2025
16.8199
0.682555
26.8196
1.38737
27.378
2.1146
27.9684
2.86424
28.5869
3.63566
29.2293
4.42765
29.8907
5.23901
30.5659
6.06821
31.2499
6.91317
31.9381
7.77136
32.6258
8.63964
33.3084
9.51408
33.9812
10.3895
34.6392
11.2586
35.2767
12.1107
35.8867
12.9373
36.4595
13.665
36.9904
14.1532
37.4065
14.5075
37.5708
14.8741
37.6159
15.2098
37.6565
15.5407
37.6749
15.868
37.6965
16.1978
37.7209
16.5027
37.7717
16.7732
37.8256
17.0218
37.87
17.3022
37.8804
37.8767
17.628
0.696356
26.1233
1.41382
26.6605
2.15227
27.2299
2.91149
27.8277
3.69109
28.4497
4.49002
29.0918
5.30676
29.7491
6.13984
30.4168
6.98752
31.0904
7.84761
31.7657
8.71751
32.4385
9.59402
33.1047
10.4732
33.7601
11.3498
34.4001
12.2169
35.0196
13.0641
35.6123
13.8844
36.1702
14.6027
36.6882
15.0843
37.0893
15.4582
37.242
15.8314
37.2834
16.184
37.3223
16.5082
37.3723
16.8163
37.4128
17.1324
37.4556
17.4846
37.4734
17.8323
37.5223
18.1144
37.5983
37.6558
18.3353
0.710906
25.4124
1.44206
25.9294
2.19318
26.4788
2.96383
27.057
3.75344
27.6601
4.56126
28.284
5.38595
28.9244
6.22579
29.577
7.07907
30.2371
7.94381
30.901
8.8177
31.5646
9.69807
32.2243
10.5817
32.8764
11.4647
33.5171
12.342
34.1423
13.2069
34.7474
14.0504
35.3267
14.8648
35.8737
15.5718
36.3823
16.0587
36.7551
16.4511
36.891
16.8198
36.9537
17.1874
37.0046
17.5528
37.0475
17.8918
37.1166
18.2054
37.1598
18.5314
37.1964
18.9153
37.2144
37.2602
19.3109
0.727068
24.6853
1.47372
25.1827
2.23967
25.7128
3.0244
26.2723
3.82717
26.8574
4.64715
27.464
5.48333
28.0883
6.33415
28.7261
7.19792
29.3734
8.07286
30.026
8.95687
30.6806
9.8476
31.3336
10.7424
31.9816
11.6382
32.6213
12.5313
33.2493
13.417
33.8616
14.2895
34.4542
15.1412
35.022
15.9634
35.5601
16.6598
36.0587
17.1391
36.4116
17.5402
36.5526
17.91
36.6349
18.2968
36.6606
18.6996
36.7137
19.0992
36.7602
19.4327
36.8629
19.6949
36.9522
36.9965
19.9586
0.743291
23.942
1.50576
24.4202
2.28705
24.9315
3.08658
25.4728
3.90361
26.0403
4.73715
26.6304
5.58617
27.2392
6.44933
27.863
7.32491
28.4978
8.21125
29.1397
9.10651
29.7854
10.0086
30.4315
10.9152
31.0751
11.8236
31.7129
12.7308
32.3421
13.6331
32.9594
14.5259
33.5614
15.4036
34.1444
16.2591
34.7046
17.0774
35.2403
17.7454
35.7437
18.2199
36.0781
18.6452
36.2095
19.0279
36.278
19.3903
36.3513
19.7391
36.4114
20.1493
36.4527
20.574
36.5274
36.6609
20.9096
0.759004
23.183
1.53691
23.6423
2.33328
24.1352
3.1475
24.6585
3.97879
25.209
4.82617
25.7831
5.68852
26.3769
6.56463
26.9869
7.4529
27.6095
8.35148
28.2411
9.25863
28.8782
10.1724
29.5177
11.0907
30.1567
12.0112
30.7924
12.9314
31.422
13.848
32.0427
14.7577
32.6517
15.6562
33.246
16.5383
33.8224
17.4002
34.3785
18.2273
34.9166
18.8875
35.4178
19.3648
35.7323
19.8111
35.8317
20.2328
35.9296
20.6237
36.0205
20.9382
36.1383
21.2724
36.1932
36.2445
21.6888
0.773956
22.409
1.56657
22.8497
2.37742
23.3243
3.20586
23.8301
4.0511
24.3638
4.91214
24.922
5.7878
25.5012
6.67686
26.0978
7.57793
26.7084
8.48929
27.3298
9.40915
27.9584
10.3357
28.5912
11.2669
29.2255
12.2008
29.8586
13.1349
30.4878
14.0669
31.1107
14.9938
31.7247
15.9126
32.3272
16.8196
32.9154
17.7116
33.4865
18.59
34.0381
19.4318
34.5761
20.0786
35.0855
20.519
35.3913
20.9287
35.5199
21.3143
35.6349
21.7314
35.7211
22.0911
35.8335
35.9286
22.407
0.78718
21.6219
1.59289
22.044
2.41664
22.5006
3.2578
22.9889
4.11554
23.5061
4.98887
24.0487
5.87663
24.6135
6.77749
25.1969
7.69009
25.7958
8.61282
26.407
9.54383
27.0273
10.4814
27.6537
11.4235
28.2833
12.3683
28.9138
13.3135
29.5426
14.2568
30.1674
15.1958
30.7858
16.1275
31.3955
17.0489
31.9941
17.9562
32.5792
18.8455
33.1488
19.7203
33.7013
20.5535
34.2523
21.1687
34.776
21.6194
35.0693
22.0344
35.2199
22.4237
35.3317
22.8217
35.4355
35.5546
23.1958
0.79856
20.8233
1.61551
21.2271
2.45035
21.6657
3.30246
22.1368
4.171
22.6375
5.05498
23.1647
5.95325
23.7152
6.86447
24.2857
7.78724
24.8731
8.72007
25.4742
9.66115
26.0863
10.6086
26.7062
11.5606
27.3314
12.5151
27.9593
13.4702
28.5876
14.4235
29.214
15.3728
29.8364
16.3156
30.4527
17.249
31.0606
18.17
31.6582
19.0754
32.2435
19.9616
32.8151
20.84
33.3739
21.6708
33.9451
22.2768
34.4634
22.7411
34.7556
23.186
34.8868
23.5794
35.0421
35.1524
23.9816
0.807789
20.0155
1.63384
20.401
2.47768
20.8219
3.33867
21.2758
4.216
21.7602
5.1087
22.272
6.01561
22.8083
6.93541
23.3659
7.86665
23.9418
8.80784
24.533
9.75731
25.1368
10.7132
25.7504
11.6735
26.371
12.6365
26.9963
13.6001
27.624
14.5622
28.2519
15.5207
28.878
16.4731
29.5002
17.4171
30.1167
18.3499
30.7254
19.2688
31.3246
20.1709
31.9129
21.0548
32.49
21.9369
33.063
22.7499
33.6504
23.3321
34.1734
23.7601
34.4588
24.1816
34.6206
34.7708
24.5632
0.814665
19.2008
1.64748
19.5682
2.49797
19.9714
3.36553
20.4083
4.24938
20.8763
5.14855
21.3728
6.06192
21.8949
6.98818
22.4397
7.9259
23.0041
8.87356
23.5853
9.82957
24.1808
10.7921
24.7879
11.7591
25.4039
12.7288
26.0266
13.6992
26.6536
14.6681
27.283
15.6335
27.9126
16.5932
28.5406
17.5448
29.165
18.486
29.7842
19.4142
30.3964
20.327
31.0001
21.2226
31.5945
22.1047
32.181
22.9868
32.7682
23.7903
33.3699
24.3581
33.891
24.7866
34.1921
34.3896
25.1678
0.819245
18.3816
1.65649
18.7309
2.51131
19.1166
3.38313
19.5365
4.27121
19.9883
5.17464
20.4694
6.09229
20.9773
7.0229
21.509
7.96504
22.0619
8.91713
22.6333
9.87757
23.2203
10.8446
23.8208
11.8163
24.4322
12.7907
25.0521
13.766
25.6784
14.74
26.309
15.7106
26.942
16.6758
27.5754
17.6333
28.2075
18.5809
28.8366
19.5164
29.4609
20.4376
30.0789
21.3427
30.6894
22.2317
31.2919
23.1113
31.8887
23.992
32.4892
24.7648
33.1182
25.3142
33.6428
33.977
25.7268
0.82145
17.5602
1.66075
17.8916
2.5175
18.2598
3.39118
18.6628
4.28111
19.0983
5.1864
19.5641
6.10599
20.0577
7.03865
20.5764
7.98298
21.1176
8.93744
21.6788
9.90041
22.2574
10.8702
22.8511
11.8448
23.4576
12.8224
24.0746
13.8008
24.7
14.7781
25.3317
15.7521
25.9679
16.7208
26.6067
17.6819
27.2463
18.6334
27.8851
19.5731
28.5212
20.4987
29.1533
21.4084
29.7797
22.3007
30.3996
23.1764
31.013
24.0447
31.6209
24.9128
32.2501
25.6565
32.899
33.4588
26.1748
0.82147
16.7387
1.66059
17.0525
2.51703
17.4034
3.39035
17.7895
4.27991
18.2088
5.18491
18.6591
6.10433
19.1383
7.03697
19.6437
7.98148
20.1731
8.93633
20.7239
9.89986
21.2939
10.8704
21.8805
11.846
22.4819
12.8248
23.0958
13.8047
23.7201
14.7835
24.3529
15.7592
24.9922
16.7297
25.6363
17.6926
26.2834
18.6458
26.9319
19.587
27.58
20.5141
28.2262
21.4249
28.8689
22.3174
29.5071
23.1906
30.1398
24.0446
30.7669
24.8984
31.3962
25.7461
32.0514
32.7454
26.4594
0.819357
15.9193
1.65614
16.2157
2.5101
16.5494
3.38086
16.9187
4.26789
17.3217
5.17045
17.7566
6.08757
18.2211
7.01814
18.7132
7.96083
19.2304
8.91416
19.7706
9.87648
20.3315
10.846
20.911
11.821
21.507
12.7994
22.1175
13.7791
22.7404
14.7581
23.3739
15.7341
24.0161
16.705
24.6654
17.6685
25.32
18.6222
25.9782
19.5639
26.6383
20.4912
27.2988
21.402
27.9581
22.2941
28.615
23.1658
29.2681
24.0157
29.917
24.848
30.5639
25.6829
31.2166
31.9124
26.5159
0.815233
15.1041
1.64763
15.3833
2.49702
15.7
3.36314
16.0526
4.24556
16.4393
5.14361
16.8585
6.05642
17.3083
6.98292
17.7867
7.92188
18.2915
8.87185
18.8206
9.83125
19.3721
10.7984
19.9439
11.7714
20.534
12.7482
21.1406
13.7268
21.7618
14.7048
22.3958
15.6801
23.0408
16.6504
23.6951
17.6134
24.357
18.5667
25.0249
19.5078
25.6971
20.4346
26.372
21.3446
27.0482
22.2356
27.7239
23.1056
28.3981
23.9531
29.0696
24.7783
29.7387
25.5863
30.4086
31.0912
26.4075
0.80923
14.2949
1.63532
14.5573
2.47819
14.8572
3.33774
15.193
4.21361
15.5634
5.10527
15.9669
6.01194
16.4017
6.93264
16.866
7.8662
17.3579
8.81125
17.8756
9.76622
18.4172
10.7294
18.9807
11.6989
19.5645
12.6728
20.1667
13.6489
20.7857
14.6251
21.4197
15.5988
22.0671
16.5678
22.7262
17.5295
23.3953
18.4815
24.0729
19.4213
24.7573
20.3464
25.4469
21.2543
26.1402
22.1428
26.8355
23.0095
27.5313
23.8526
28.2265
24.671
28.9203
25.4658
29.6137
30.307
26.25
0.801432
13.4934
1.61936
13.7393
2.45386
14.0227
3.30494
14.342
4.17241
14.696
5.05584
15.0835
5.95456
15.5029
6.86771
15.9528
7.79419
16.4314
8.73271
16.9371
9.68177
17.4681
10.6397
18.0228
11.6046
18.5996
12.5744
19.1969
13.547
19.813
14.5202
20.4465
15.4916
21.0957
16.4586
21.7592
17.4185
22.4353
18.3688
23.1226
19.3068
23.8194
20.2296
24.5241
21.1348
25.235
22.0198
25.9506
22.882
26.6691
23.7193
27.3892
24.5301
28.1095
25.3142
28.8297
29.5478
26.0733
0.791909
12.7015
1.59991
12.9313
2.42422
13.1984
3.26503
13.5011
4.12228
13.8387
4.99568
14.2101
5.8847
14.6139
6.78858
15.0489
7.70634
15.5137
8.63678
16.0066
9.57847
16.5264
10.5298
17.0715
11.489
17.6404
12.4539
18.2319
13.4224
18.8445
14.3922
19.4768
15.3606
20.1273
16.3251
20.7947
17.283
21.4775
18.2313
22.1743
19.1672
22.8835
20.0878
23.6035
20.99
24.3328
21.8711
25.0695
22.7283
25.8119
23.5591
26.5584
24.3613
27.3073
25.1338
28.0572
28.806
25.8756
0.780718
11.9208
1.57708
12.135
2.38947
12.386
3.21825
12.6724
4.06354
12.9934
4.92521
13.3484
5.80286
13.7363
6.69588
14.1559
7.6034
14.6061
8.52434
15.0857
9.45737
15.5934
10.4009
16.1279
11.3533
16.6881
12.3124
17.2728
13.2761
17.8808
14.2418
18.511
15.2071
19.1621
16.169
19.8327
17.1247
20.5218
18.0711
21.2278
19.0052
21.9494
19.9236
22.6851
20.8231
23.4332
21.7005
24.192
22.5528
24.9597
23.377
25.7342
24.1705
26.5137
24.9314
27.2962
28.0792
25.6583
0.767893
11.1529
1.55094
11.3519
2.3497
11.5872
3.16475
11.8573
3.9964
12.1618
4.84467
12.5001
5.70933
12.8716
6.58993
13.2753
7.48575
13.7103
8.39581
14.1756
9.31891
14.6703
10.2536
15.1932
11.1981
15.7436
12.1504
16.3204
13.1084
16.9228
14.0697
17.5498
15.0315
18.2003
15.9908
18.8734
16.9446
19.568
17.8895
20.2829
18.8222
21.0168
19.7391
21.7683
20.6365
22.5358
21.5108
23.3177
22.3587
24.1119
23.1766
24.9163
23.9616
25.7288
24.711
26.5468
27.3674
25.4228
0.753436
10.3995
1.5215
10.5838
2.30495
10.8038
3.10459
11.0577
3.92092
11.3454
4.75414
11.6669
5.60422
12.0215
6.47083
12.4087
7.35343
12.8277
8.2512
13.2779
9.16305
13.7584
10.0876
14.2687
11.0233
14.8079
11.9681
15.3756
12.9199
15.971
13.8762
16.5935
14.8343
17.2422
15.7911
17.9166
16.7433
18.6158
17.6874
19.3388
18.6195
20.0847
19.5357
20.852
20.432
21.6395
21.3043
22.4454
22.1486
23.2676
22.9609
24.104
23.7377
24.952
24.4757
25.8088
26.6709
25.1722
0.737321
9.66215
1.48873
9.83243
2.25519
10.0373
3.03775
10.2751
3.83711
10.5461
4.65366
10.8503
5.48754
11.1876
6.33861
11.5576
7.2065
11.9598
8.09055
12.3938
8.98982
12.8591
9.9031
13.3554
10.8289
13.8822
11.7654
14.4391
12.7105
15.0259
13.6616
15.6424
14.6159
16.2879
15.5704
16.9621
16.5215
17.6647
17.4654
18.3949
18.3979
19.1521
19.3148
19.9352
20.2114
20.7429
21.083
21.5737
21.925
22.4256
22.7328
23.2962
23.5021
24.1826
24.2292
25.0817
25.9897
24.9104
0.719498
8.94266
1.45256
9.09937
2.20035
9.28952
2.96415
9.51131
3.74489
9.76535
4.54315
10.0521
5.35924
10.3716
6.19324
10.7236
7.04493
11.1082
7.91384
11.5249
8.79922
11.9738
9.70001
12.4546
10.6149
12.9673
11.5421
13.5119
12.4797
14.0883
13.4253
14.6968
14.3759
15.3373
15.3283
16.0097
16.2789
16.714
17.2237
17.4502
18.158
18.2177
19.0771
19.0161
19.9758
19.8443
20.8486
20.7009
21.6902
21.5841
22.4951
22.4913
23.2583
23.4194
23.9752
24.3649
25.3233
24.6416
0.699895
8.24276
1.41287
8.3864
2.14029
8.5621
2.88367
8.76793
3.64414
9.00488
4.42247
9.27375
5.21917
9.57485
6.0345
9.90831
6.86845
10.2742
7.72073
10.6726
8.59078
11.1037
9.47777
11.5676
10.3805
12.0646
11.2975
12.5949
12.2268
13.159
13.1662
13.7574
14.1129
14.3906
15.0636
15.059
16.0146
15.7631
16.9614
16.5033
17.8993
17.2799
18.8227
18.0927
19.7259
18.9411
20.6025
19.8243
21.4462
20.7403
22.2506
21.6869
23.0095
22.6605
23.7174
23.657
24.6713
24.3694
0.678444
7.56432
1.36958
7.69526
2.07491
7.85677
2.79619
8.04665
3.53472
8.26634
4.29147
8.517
5.06713
8.79919
5.86213
9.1133
6.67667
9.45966
7.51067
9.83864
8.36378
10.2506
9.23538
10.696
10.1245
11.1754
11.03
11.6894
11.9501
12.2389
12.8828
12.8247
13.8252
13.4481
14.7744
14.1098
15.7263
14.8111
16.6766
15.5531
17.62
16.3366
18.5503
17.1623
19.4611
18.0304
20.3449
18.9404
21.1942
19.891
22.0013
20.8798
22.7587
21.9031
23.4595
22.9562
24.0328
24.0979
0.655106
6.90921
1.32265
7.02771
2.0042
7.17523
2.7017
7.34916
3.41662
7.55142
4.15008
7.78354
4.90296
8.04632
5.67588
8.34038
6.46921
8.66633
7.28308
9.02476
8.11739
9.41629
8.97177
9.84163
9.84557
10.3016
10.7378
10.7972
11.6472
11.3295
12.5719
11.9
13.5096
12.5104
14.4571
13.1623
15.4107
13.8575
16.3657
14.598
17.3167
15.3856
18.2569
16.222
19.179
17.1084
20.0743
18.0451
20.9339
19.0315
21.7482
20.0655
22.508
21.1434
23.2047
22.2595
23.4064
23.8311
0.629914
6.2793
1.27218
6.38545
1.92829
6.51912
2.60033
6.67711
3.28993
6.86183
3.99834
7.07512
4.7266
7.31806
5.4755
7.59149
6.24558
7.89625
7.0372
8.23314
7.8505
8.603
8.68539
9.00674
9.54158
9.44542
10.4185
9.9203
11.3151
10.4329
12.2301
10.985
13.1617
11.5789
14.1068
12.2172
15.062
12.9023
16.0228
13.6373
16.9833
14.4251
17.9366
15.2688
18.8741
16.1708
19.7862
17.133
20.6619
18.1557
21.4896
19.2378
22.2576
20.3754
22.9547
21.5623
22.7894
23.5718
0.602993
5.6763
1.21839
5.77005
1.84745
5.89006
2.49239
6.03218
3.15491
6.1993
3.83642
6.39362
4.53806
6.61642
5.26077
6.86878
6.00528
7.15174
6.77214
7.46628
7.56175
7.81338
8.37437
8.19412
9.21007
8.60972
10.0687
9.06167
10.9498
9.55177
11.8526
10.0822
12.7756
10.6558
13.7168
11.276
14.6728
11.9463
15.6394
12.6707
16.6109
13.4536
17.5798
14.2998
18.5371
15.2135
19.4716
16.1985
20.3704
17.257
21.2191
18.389
22.0028
19.5917
22.7071
20.858
22.177
23.3196
0.57458
5.10172
1.16167
5.18296
1.76214
5.28958
2.3783
5.41602
3.01194
5.56566
3.66454
5.74102
4.33737
5.94359
5.03147
6.17468
5.74774
6.43547
6.48694
6.72708
7.24974
7.05058
8.03675
7.40711
8.84848
7.79799
9.6853
8.22484
10.5474
8.68972
11.4344
9.1952
12.3457
9.74449
13.2801
10.3416
14.2348
10.9916
15.2061
11.6994
16.1885
12.4712
17.1748
13.3135
18.1552
14.2332
19.1173
15.2364
20.0462
16.328
20.9246
17.5107
21.7334
18.7829
22.4535
20.1379
21.5624
23.0681
0.544997
4.55673
1.10248
4.62548
1.67286
4.7192
2.25858
4.8303
2.86146
4.96278
3.48303
5.11944
4.12465
5.30198
4.78747
5.51185
5.47254
5.7504
6.18082
6.0188
6.9133
6.3181
7.67097
6.64944
8.4548
7.01415
9.26573
7.41391
10.1045
7.85091
10.9717
8.32802
11.8673
8.84893
12.7908
9.41817
13.7406
10.0417
14.7138
10.7262
15.7055
11.4794
16.7088
12.3103
17.7138
13.2282
18.7074
14.2427
19.6728
15.3626
20.5893
16.5942
21.4332
17.939
22.1792
19.3918
20.9373
22.8044
0.514601
4.04213
1.0413
4.09878
1.58017
4.18033
2.13379
4.27668
2.70399
4.39258
3.29235
4.53109
3.90026
4.69406
4.529
4.88312
5.17976
5.09965
5.85376
5.3448
6.55231
5.61955
7.2768
5.92495
8.02869
6.26226
8.80949
6.63312
9.62062
7.03977
10.4633
7.48533
11.3384
7.97383
12.2463
8.51027
13.1866
9.10143
14.1572
9.75568
15.1542
10.4824
16.1717
11.2928
17.2004
12.1995
18.2269
13.2162
19.2331
14.3565
20.1949
15.6323
21.0835
17.0504
21.8659
18.6094
20.2923
22.5109
0.483713
3.55841
0.978589
3.6039
1.48462
3.6743
2.0046
3.7567
2.54031
3.85687
3.09333
3.97807
3.66513
4.12226
4.25709
4.29115
4.87061
4.48612
5.5072
4.70821
6.16851
4.95824
6.85635
5.23711
7.57266
5.54595
8.31944
5.88634
9.09874
6.26047
9.91247
6.6716
10.7623
7.12398
11.6494
7.62315
12.5743
8.17661
13.5361
8.79384
14.5326
9.48591
15.5591
10.2662
16.6077
11.1509
17.6656
12.1583
18.714
13.3082
19.726
14.6203
20.6676
16.1088
21.4961
17.7809
19.6184
22.17
0.452563
3.10585
0.91475
3.14172
1.38687
3.20218
1.87195
3.27162
2.37164
3.35719
2.88753
3.46218
3.42119
3.5886
3.97416
3.73818
4.5481
3.91218
5.14481
4.1115
5.76632
4.33673
6.41486
4.58857
7.09277
4.86804
7.80249
5.17662
8.54648
5.51648
9.32723
5.89085
10.147
6.30418
11.0076
6.76254
11.9106
7.27368
12.8567
7.84774
13.8453
8.49723
14.8738
9.23778
15.9359
10.0887
17.0204
11.0738
18.1092
12.2194
19.1735
13.556
20.1744
15.1079
21.0574
16.8979
18.9066
21.7692
0.421293
2.68456
0.850241
2.71277
1.28782
2.76459
1.73722
2.82222
2.1999
2.89451
2.67753
2.98455
3.17177
3.09436
3.68437
3.22558
4.2173
3.37926
4.77271
3.55609
5.35296
3.75648
5.96058
3.98095
6.59826
4.23036
7.2687
4.50619
7.97453
4.81064
8.7186
5.14678
9.5037
5.51908
10.3325
5.93376
11.2075
6.39866
12.1309
6.92433
13.1039
7.52427
14.1257
8.21599
15.1927
9.02167
16.2962
9.97035
17.4203
11.0953
18.5355
12.4408
19.6002
14.0431
20.545
15.9531
18.1484
21.3032
0.390038
2.29452
0.785689
2.31712
1.18873
2.36155
1.60237
2.40859
2.02787
2.469
2.46698
2.54545
2.92152
2.63983
3.39348
2.75361
3.88512
2.88762
4.39892
3.04229
4.93747
3.21793
5.50346
3.41496
6.09968
3.63413
6.7291
3.87678
7.39463
4.14511
8.09933
4.44208
8.84635
4.77207
9.63899
5.14111
10.4807
5.55698
11.3747
6.03031
12.3238
6.57511
13.3297
7.21014
14.3918
7.95956
15.5044
8.85772
16.656
9.94378
17.8176
11.2792
18.9486
12.912
19.9614
14.9404
17.3338
20.7759
0.359037
1.93548
0.721976
1.95418
1.09124
1.99229
1.46985
2.02997
1.85893
2.07993
2.2603
2.14408
2.67595
2.22417
3.10812
2.32144
3.55924
2.43649
4.03196
2.56957
4.52903
2.72086
5.05336
2.89064
5.60788
3.07961
6.19561
3.28905
6.81965
3.52108
7.48315
3.77858
8.18951
4.06571
8.94246
4.38816
9.74605
4.75339
10.6046
5.17181
11.5224
5.65727
12.5032
6.22932
13.5501
6.91273
14.6608
7.74701
15.8301
8.77449
17.0308
10.0785
18.2293
11.7135
19.3157
13.854
16.449
20.2005
0.328716
1.60677
0.660203
1.62269
0.9972
1.65529
1.34234
1.68482
1.69663
1.72564
2.062
1.77871
2.44054
1.84563
2.8346
1.92738
3.24675
2.02434
3.6798
2.13652
4.13665
2.26401
4.62023
2.40705
5.13351
2.56633
5.67949
2.74307
6.26131
2.93925
6.88225
3.15763
7.54589
3.40207
8.25621
3.67784
9.01771
3.99188
9.83553
4.354
10.7155
4.77729
11.6632
5.28159
12.6852
5.89075
13.783
6.64923
14.9597
7.59776
16.191
8.84723
17.4577
10.4467
18.6259
12.6859
15.472
19.6029
0.299648
1.30712
0.601514
1.32082
0.908394
1.34841
1.22226
1.37096
1.54409
1.40381
1.8759
1.4469
2.2198
1.50173
2.57826
1.56893
2.95392
1.64868
3.34959
1.74085
3.7681
1.84549
4.21234
1.96282
4.68521
2.09346
5.18969
2.23859
5.72893
2.40001
6.30631
2.58026
6.92554
2.78284
7.59085
3.01253
8.30711
3.27563
9.08014
3.58096
9.91702
3.94041
10.8251
4.37356
11.8142
4.90159
12.8896
5.57385
14.0645
6.42282
15.3186
7.59312
16.6568
9.10854
17.9264
11.4163
14.3631
19.0353
0.272416
1.0347
0.546875
1.04637
0.826199
1.06909
1.11136
1.0858
1.40352
1.11165
1.70466
1.14577
2.01695
1.18943
2.34285
1.24303
2.68493
1.3066
3.04585
1.37993
3.42833
1.46301
3.8351
1.55605
4.26893
1.65963
4.73273
1.77479
5.2296
1.90314
5.76297
2.04689
6.33671
2.2091
6.9553
2.39394
7.62398
2.60694
8.34914
2.8558
9.13886
3.15069
10.0021
3.51028
10.9522
3.95158
11.9981
4.52796
13.1641
5.25678
14.4386
6.31865
15.854
7.69306
17.2696
10.0008
13.0493
18.5834
0.247473
0.78723
0.496903
0.796936
0.751389
0.814602
1.01058
0.826608
1.27599
0.846243
1.54955
0.872202
1.83339
0.905588
2.12985
0.946577
2.44137
0.995081
2.77041
1.05088
3.11947
1.11395
3.49107
1.18446
3.8878
1.2629
4.31241
1.35018
4.76794
1.44761
5.25777
1.55706
5.78587
1.681
6.35689
1.82292
6.9765
1.98733
7.65159
2.18071
8.39101
2.41128
9.20566
2.69562
10.1111
3.04613
11.1226
3.51647
12.2726
4.10678
13.5711
5.0201
15.0699
6.19433
16.725
8.34565
11.4132
18.3611
0.225141
0.562089
0.451804
0.570274
0.684104
0.582301
0.919964
0.590748
1.16148
0.604724
1.41042
0.62327
1.6688
0.647206
1.93882
0.676558
2.22271
0.711183
2.52272
0.750878
2.84107
0.7956
3.18004
0.845492
3.54198
0.900952
3.92948
0.962679
4.3454
1.03169
4.79306
1.1094
5.27637
1.19769
5.8001
1.29919
6.37013
1.4173
6.99379
1.55704
7.68043
1.72465
8.44285
1.9332
9.29791
2.19107
10.2689
2.54543
11.3908
2.98493
12.7114
3.69954
14.2901
4.61559
16.3171
6.31869
9.29472
18.4355
0.205638
0.356451
0.411361
0.364551
0.623927
0.369735
0.838862
0.375813
1.05906
0.384529
1.286
0.39633
1.52161
0.411589
1.76791
0.430263
2.02689
0.452201
2.30053
0.477241
2.59078
0.505348
2.89965
0.536622
3.22926
0.571345
3.58195
0.609992
3.96039
0.65325
4.36774
0.702051
4.80778
0.757651
5.2852
0.821774
5.80585
0.896651
6.37725
0.985635
7.00905
1.09285
7.71508
1.22717
8.51272
1.39343
9.43139
1.62676
10.5057
1.91061
11.813
2.3923
13.4445
2.98401
15.823
3.94019
6.6349
18.4828
0.188777
0.167674
0.374975
0.178353
0.570078
0.174632
0.766097
0.179793
0.967156
0.183471
1.17435
0.189139
1.38951
0.196427
1.61444
0.205331
1.8509
0.215744
2.10057
0.227571
2.36512
0.240793
2.64628
0.255462
2.9459
0.271722
3.26608
0.289813
3.60926
0.310076
3.97834
0.332965
4.3769
0.359098
4.80936
0.389306
5.28134
0.424679
5.80016
0.466814
6.37525
0.517759
7.02055
0.581876
7.75315
0.660827
8.60518
0.774731
9.60841
0.907379
10.8507
1.15006
12.42
1.41468
14.8356
1.52454
3.66901
17.8015
0.167674
0.346026
0.520659
0.700452
0.883923
1.07306
1.26949
1.47482
1.69056
1.91813
2.15893
2.41439
2.68611
2.97593
3.286
3.61897
3.97806
4.36737
4.79205
5.25886
5.77662
6.3585
7.01932
7.79406
8.70143
9.85149
11.2662
12.7907
16.4597
1.16798
54.1272
1.17695
54.1313
1.18219
54.135
1.19359
54.1288
1.21191
54.1219
1.2237
54.1284
1.22158
54.1424
1.21444
54.1474
1.21649
54.1382
1.23178
54.125
1.24638
54.1256
1.24494
54.1417
1.2313
54.1539
1.22502
54.1465
1.23738
54.1279
1.25894
54.1187
1.2725
54.1267
1.27694
54.1358
1.283
54.1342
1.29593
54.1273
1.31149
54.1247
1.32311
54.1286
1.32903
54.1343
1.33277
54.1365
1.33439
54.1386
1.33282
54.1418
1.33255
54.1405
1.34394
54.1288
1.36148
54.1227
1.37818
54.1235
1.38656
54.1319
1.38519
54.1416
1.38284
54.1426
1.38044
54.1426
1.37795
54.1427
1.37535
54.1428
1.37267
54.1429
1.36974
54.1432
1.36654
54.1434
1.36318
54.1436
1.35966
54.1438
1.3564
54.1435
1.35439
54.1422
1.35368
54.1409
1.35333
54.1406
1.3524
54.1412
1.35082
54.1418
1.34804
54.143
1.3448
54.1435
1.34084
54.1442
1.33644
54.1446
1.33144
54.1452
1.32597
54.1457
1.32007
54.1461
1.31356
54.1467
1.30626
54.1475
1.29878
54.1477
1.2904
54.1486
1.28173
54.1489
1.27216
54.1498
1.26211
54.1503
1.25161
54.1507
1.24009
54.1518
1.22862
54.1517
1.21616
54.1527
1.20367
54.1527
1.19003
54.1539
1.17715
54.1531
1.1623
54.1551
1.14826
54.1543
1.13411
54.1544
1.1177
54.1566
1.10436
54.1536
1.0881
54.1565
1.07366
54.1547
1.05754
54.1564
1.04316
54.1546
1.02962
54.1538
1.01478
54.1551
1.00356
54.1515
0.9889
54.1549
0.976708
54.1524
0.961652
54.1553
0.942989
54.1589
0.923487
54.1597
0.905086
54.1586
0.889862
54.1555
0.872217
54.1579
0.855192
54.1573
0.835338
54.1601
0.813801
54.1618
0.79131
54.1627
0.768155
54.1634
0.744856
54.1635
0.721679
54.1634
0.698188
54.1637
0.675448
54.163
0.65222
54.1635
0.629366
54.1631
0.606593
54.163
0.583907
54.1629
0.561461
54.1627
0.539129
54.1626
0.517118
54.1622
0.495183
54.1622
0.473611
54.1618
0.452046
54.1618
0.43091
54.1614
0.409974
54.1612
0.38936
54.1608
0.369068
54.1605
0.349203
54.1601
0.329665
54.1598
0.31058
54.1593
0.292032
54.1588
0.274128
54.1581
0.256865
54.1575
0.240014
54.1571
0.223258
54.157
0.206236
54.1573
0.189026
54.1574
0.171657
54.1576
0.153651