/*--------------------------------*- C++ -*----------------------------------*\
| =========                 |                                                 |
| \\      /  F ield         | OpenFOAM: The Open Source CFD Toolbox           |
|  \\    /   O peration     | Version:  5.x                                   |
|   \\  /    A nd           | Web:      www.OpenFOAM.org                      |
|    \\/     M anipulation  |                                                 |
\*---------------------------------------------------------------------------*/
/*   Windows 32 and 64 bit porting by blueCAPE: http://www.bluecape.com.pt   *\
|  Based on Windows porting (2.0.x v4) by Symscape: http://www.symscape.com   |
\*---------------------------------------------------------------------------*/
FoamFile
{
    version     2.0;
    format      ascii;
    class       volVectorField;
    location    "290";
    object      U;
}
// * * * * * * * * * * * * * * * * * * * * * * * * * * * * * * * * * * * * * //

dimensions      [0 1 -1 0 0 0 0];

internalField   nonuniform List<vector> 
43900
(
(1.16163 -0.000738618 -1.63148e-027)
(1.16715 0.00217827 -4.37213e-027)
(1.16973 0.000360625 1.42976e-030)
(1.16839 0.0018241 2.79815e-030)
(1.16976 0.000798909 3.65389e-030)
(1.16993 0.00197557 3.6613e-030)
(1.17014 0.00118878 5.83694e-027)
(1.17053 0.00184653 -1.16542e-026)
(1.17042 0.00164782 9.69033e-030)
(1.17001 0.00176773 -1.1625e-026)
(1.16982 0.00190988 1.1647e-026)
(1.17002 0.00193453 1.15746e-029)
(1.17006 0.0019973 -1.15897e-026)
(1.17004 0.0020596 2.49877e-029)
(1.17019 0.00212008 2.56219e-029)
(1.17006 0.00215865 2.62923e-029)
(1.16991 0.00221394 -2.30709e-026)
(1.16995 0.00224135 5.50396e-029)
(1.16992 0.00228168 2.30965e-026)
(1.16999 0.0023154 2.85793e-029)
(1.17007 0.00234248 2.90672e-029)
(1.16998 0.00239373 2.95051e-029)
(1.16999 0.00240517 2.99444e-029)
(1.17002 0.00244335 3.03294e-029)
(1.16997 0.00247727 3.0687e-029)
(1.17005 0.00248093 -2.28018e-026)
(1.17007 0.00252963 6.27663e-029)
(1.16998 0.00255246 6.34048e-029)
(1.17002 0.00255684 9.10063e-026)
(1.15869 0.0114588 0)
(1.16551 -0.00496987 0)
(1.17144 0.00906582 0)
(1.16656 -0.000165075 0)
(1.16845 0.00620219 0)
(1.16803 0.00277386 0)
(1.1684 0.00491997 0)
(1.16779 0.00469528 0)
(1.16822 0.00465212 0)
(1.16865 0.00540469 0)
(1.16869 0.00534357 0)
(1.16856 0.00555744 0)
(1.16872 0.00585711 0)
(1.16894 0.00606032 0)
(1.1688 0.0061993 0)
(1.16885 0.00640685 0)
(1.16927 0.00654356 0)
(1.16933 0.00671396 0)
(1.1693 0.00687271 0)
(1.16931 0.00698088 0)
(1.16913 0.00715265 0)
(1.16925 0.00722757 0)
(1.16941 0.00735667 0)
(1.16932 0.00748227 0)
(1.1694 0.00753645 0)
(1.16938 0.0076917 0)
(1.16925 0.00775677 0)
(1.1694 0.00781574 0)
(1.16949 0.00795786 0)
(1.102 0.0321219 0)
(1.14469 -0.0175664 0)
(1.16303 0.0288059 0)
(1.16316 -0.00367891 0)
(1.16626 0.0208897 0)
(1.16423 0.00401624 0)
(1.16565 0.015034 0)
(1.16637 0.00839816 0)
(1.16656 0.0118651 0)
(1.16661 0.0106048 0)
(1.16688 0.0107551 0)
(1.16705 0.0110764 0)
(1.16704 0.0110462 0)
(1.16708 0.0110695 0)
(1.16731 0.0112443 0)
(1.16764 0.0112982 0)
(1.16749 0.0114272 0)
(1.1673 0.011559 0)
(1.16759 0.0116119 0)
(1.16768 0.0118088 0)
(1.16789 0.0118576 0)
(1.16801 0.0119888 0)
(1.1678 0.0121428 0)
(1.16788 0.0121719 0)
(1.168 0.0123719 0)
(1.16798 0.0124365 0)
(1.1682 0.0124971 0)
(1.16828 0.0126869 0)
(1.1681 0.0127198 1.59983e-027)
(1.04074 0.0199867 0)
(1.08662 -0.0067285 0)
(1.12955 0.0201091 0)
(1.15554 0.00817397 0)
(1.16321 0.0222431 0)
(1.1659 0.0107149 0)
(1.16467 0.0205789 0)
(1.16343 0.0136174 0)
(1.16452 0.0181282 0)
(1.16488 0.0157297 0)
(1.16511 0.016839 0)
(1.1654 0.016561 0)
(1.16561 0.0165498 0)
(1.16565 0.0166581 0)
(1.16573 0.0165962 0)
(1.16569 0.0166982 0)
(1.16577 0.0167444 0)
(1.16625 0.0167386 0)
(1.16622 0.0169006 0)
(1.16614 0.0168852 0)
(1.1662 0.016983 0)
(1.16619 0.0171183 0)
(1.16644 0.0171098 0)
(1.16659 0.0173032 0)
(1.16655 0.0173316 0)
(1.16671 0.0173773 0)
(1.16673 0.0176113 0)
(1.1666 0.0176192 0)
(1.16678 0.0177608 1.70671e-027)
(1.00351 0.0101916 3.42045e-027)
(1.03902 -0.000910737 0)
(1.07588 0.0108237 0)
(1.11415 0.0128923 0)
(1.14445 0.0183109 0)
(1.16003 0.0173418 0)
(1.16333 0.0228333 0)
(1.16437 0.0185478 0)
(1.16342 0.0216914 0)
(1.16371 0.0203547 0)
(1.16397 0.0208479 0)
(1.16391 0.0212025 0)
(1.16397 0.0211778 0)
(1.1642 0.0212659 0)
(1.16403 0.0215263 0)
(1.16412 0.0215655 0)
(1.16443 0.0216925 0)
(1.16423 0.0219457 0)
(1.16422 0.0219591 0)
(1.16451 0.0221499 0)
(1.16456 0.0223201 0)
(1.16473 0.0223204 0)
(1.16481 0.022561 0)
(1.16499 0.0226484 0)
(1.16518 0.0227982 0)
(1.16504 0.0231029 0)
(1.16489 0.0231089 0)
(1.16518 0.0232909 0)
(1.16548 0.0234539 -7.1924e-027)
(0.976198 0.00684923 -3.56969e-027)
(1.00608 0.000666886 0)
(1.03732 0.00759795 0)
(1.06972 0.0110393 0)
(1.10218 0.0149103 0)
(1.13249 0.0182132 0)
(1.15283 0.0221645 0)
(1.16106 0.0222771 0)
(1.16227 0.0245694 0)
(1.1619 0.0230139 0)
(1.16192 0.0244233 0)
(1.1622 0.0242784 0)
(1.16212 0.024596 0)
(1.16194 0.0249081 0)
(1.16233 0.0250591 0)
(1.1624 0.0254033 0)
(1.162 0.0256704 0)
(1.16227 0.0257662 0)
(1.16268 0.0261118 0)
(1.16255 0.0263966 0)
(1.16275 0.0264573 0)
(1.1629 0.0269265 0)
(1.16278 0.0270886 0)
(1.16229 0.0273048 0)
(1.16219 0.0276088 0)
(1.16255 0.027635 0)
(1.1634 0.0279112 0)
(1.16352 0.0282061 0)
(1.16304 0.0284193 3.80388e-027)
(0.953102 0.0052568 0)
(0.979423 0.00142337 0)
(1.007 0.00642702 0)
(1.03564 0.00964206 0)
(1.06476 0.0129659 0)
(1.09367 0.0165872 0)
(1.12171 0.0203421 0)
(1.145 0.0232211 0)
(1.15652 0.02589 0)
(1.15958 0.0264192 0)
(1.15931 0.0263593 0)
(1.15902 0.0273253 0)
(1.15931 0.0273827 0)
(1.1594 0.027904 0)
(1.15914 0.0282803 0)
(1.15942 0.0285917 0)
(1.16001 0.028985 0)
(1.15981 0.0294425 0)
(1.15936 0.0297103 0)
(1.15964 0.02993 0)
(1.1596 0.0305526 0)
(1.15924 0.0307419 0)
(1.15941 0.0309851 0)
(1.16058 0.0314256 0)
(1.16111 0.0316987 0)
(1.161 0.0320233 0)
(1.15993 0.0325539 0)
(1.15941 0.0327067 0)
(1.15992 0.0330168 0)
(0.93204 0.00444307 0)
(0.956017 0.00187619 0)
(0.981153 0.00599574 0)
(1.00727 0.00903941 0)
(1.034 0.0120765 0)
(1.06089 0.0153644 0)
(1.08745 0.0189032 0)
(1.11288 0.0224625 0)
(1.13606 0.0257754 0)
(1.15062 0.0281519 0)
(1.15555 0.0299502 0)
(1.15573 0.0296556 0)
(1.15532 0.0305237 0)
(1.15572 0.0308611 0)
(1.15601 0.0314698 0)
(1.15565 0.031848 0)
(1.1556 0.0324065 0)
(1.15616 0.0327598 0)
(1.15681 0.033319 0)
(1.15642 0.0339891 0)
(1.15637 0.0341484 0)
(1.15723 0.0346308 0)
(1.15754 0.035348 0)
(1.15664 0.0355998 0)
(1.15588 0.0361652 0)
(1.15587 0.0367137 0)
(1.1569 0.0368583 0)
(1.15827 0.0375279 0)
(1.15864 0.0378646 0)
(0.912206 0.00387109 0)
(0.934419 0.00229142 0)
(0.957704 0.00590153 0)
(0.981913 0.0088806 0)
(1.00676 0.0118176 0)
(1.03194 0.0149283 0)
(1.05708 0.0182466 0)
(1.08175 0.0217174 0)
(1.10543 0.0252448 0)
(1.12741 0.028508 0)
(1.14398 0.031305 0)
(1.15063 0.0333403 0)
(1.15123 0.0333144 0)
(1.15091 0.0342521 0)
(1.15108 0.0346955 0)
(1.15169 0.0354076 0)
(1.15164 0.0359692 0)
(1.15118 0.0364297 0)
(1.15107 0.0371744 0)
(1.15179 0.0374151 0)
(1.15243 0.038367 0)
(1.15174 0.0389978 0)
(1.15117 0.0392799 0)
(1.15176 0.0398845 0)
(1.15326 0.0405803 0)
(1.15381 0.0409853 0)
(1.15392 0.0414603 0)
(1.15269 0.0419877 0)
(1.1522 0.0424306 0)
(0.892888 0.00334927 0)
(0.913791 0.00271123 0)
(0.935696 0.00600514 0)
(0.958465 0.00897416 0)
(0.981868 0.0118924 0)
(1.00566 0.0149362 0)
(1.02956 0.0181478 0)
(1.05329 0.0215013 0)
(1.0765 0.0249604 0)
(1.09877 0.0284561 0)
(1.11947 0.0317798 0)
(1.13711 0.0347173 0)
(1.14497 0.0371479 0)
(1.14581 0.0373931 0)
(1.14569 0.0384603 0)
(1.14549 0.0389828 0)
(1.14633 0.0398472 0)
(1.14642 0.0404809 0)
(1.1467 0.0411286 0)
(1.1463 0.042026 0)
(1.14613 0.0425145 0)
(1.14704 0.0429156 0)
(1.14832 0.0441434 0)
(1.14867 0.0445495 0)
(1.1474 0.045124 0)
(1.14694 0.0458455 0)
(1.14735 0.0465891 0)
(1.1493 0.0471579 0)
(1.15013 0.0481489 -1.00374e-026)
(0.873845 0.00320106 0)
(0.893668 0.00301995 0)
(0.91448 0.00626602 0)
(0.936121 0.00929719 0)
(0.958395 0.0122687 0)
(0.981087 0.0153374 0)
(1.00397 0.0185488 0)
(1.02682 0.0218849 0)
(1.04938 0.0253209 0)
(1.07135 0.0288311 0)
(1.09235 0.0323637 0)
(1.11177 0.0357615 0)
(1.12927 0.0388473 0)
(1.13845 0.0415654 0)
(1.1393 0.042096 0)
(1.13971 0.0433145 0)
(1.13895 0.0440617 0)
(1.13981 0.0448715 0)
(1.14043 0.0460106 0)
(1.1406 0.0464756 0)
(1.14134 0.0476658 0)
(1.1411 0.0484607 0)
(1.14023 0.0491404 0)
(1.14027 0.0499842 0)
(1.14228 0.0509067 0)
(1.14382 0.0518515 0)
(1.14387 0.0523322 0)
(1.14243 0.0531031 0)
(1.14214 0.0537876 1.05883e-026)
(0.854797 0.0031609 0)
(0.873695 0.00333056 0)
(0.893562 0.00663195 0)
(0.914249 0.00978297 0)
(0.935579 0.0128697 0)
(0.957361 0.0160373 0)
(0.979399 0.0193317 0)
(1.00149 0.0227391 0)
(1.02343 0.0262385 0)
(1.045 0.0298101 0)
(1.06594 0.0334288 0)
(1.08591 0.0370443 0)
(1.10447 0.0405291 0)
(1.12132 0.0437609 0)
(1.13114 0.0466578 0)
(1.13173 0.0475631 0)
(1.13272 0.0489453 0)
(1.13212 0.049602 0)
(1.13245 0.0508504 0)
(1.13356 0.0520787 0)
(1.13341 0.0529806 0)
(1.13334 0.0539776 0)
(1.13515 0.0551801 0)
(1.13589 0.0560847 0)
(1.13491 0.0567224 0)
(1.13425 0.0578362 0)
(1.1351 0.0587303 0)
(1.13787 0.059917 0)
(1.13926 0.0610274 1.16136e-026)
(0.835566 0.00307698 0)
(0.853666 0.00368166 0)
(0.872716 0.00706255 0)
(0.892583 0.010359 0)
(0.913099 0.0135968 0)
(0.934096 0.0169054 0)
(0.955398 0.0203293 0)
(0.976828 0.0238574 0)
(0.998206 0.0274717 0)
(1.01935 0.0311554 0)
(1.04006 0.0348899 0)
(1.06012 0.0386495 0)
(1.07922 0.0423863 0)
(1.09698 0.0459856 0)
(1.11318 0.049372 0)
(1.12312 0.0524185 0)
(1.12351 0.0536229 0)
(1.12488 0.0548773 0)
(1.12479 0.0560716 0)
(1.12426 0.0571791 0)
(1.12541 0.0585408 0)
(1.12709 0.0596691 0)
(1.12665 0.0605849 0)
(1.12662 0.061924 0)
(1.12882 0.0629178 0)
(1.13043 0.064355 0)
(1.12997 0.0651753 0)
(1.12867 0.0657425 0)
(1.12882 0.0668499 -1.22748e-026)
(0.816151 0.00305839 0)
(0.833517 0.0040549 0)
(0.851825 0.00757303 0)
(0.870959 0.0110535 0)
(0.890761 0.014483 0)
(0.911067 0.0179768 0)
(0.931724 0.0215784 0)
(0.95257 0.0252787 0)
(0.973443 0.0290617 0)
(0.994186 0.032913 0)
(1.01463 0.0368171 0)
(1.03461 0.0407548 0)
(1.05391 0.0447004 0)
(1.07226 0.0486055 0)
(1.08929 0.0523479 0)
(1.10491 0.0559279 0)
(1.11482 0.0591578 0)
(1.11486 0.0605553 0)
(1.1162 0.0618412 0)
(1.11732 0.0636029 0)
(1.11775 0.0643126 0)
(1.11762 0.0659959 0)
(1.11951 0.0673081 0)
(1.12044 0.0688535 0)
(1.11942 0.0697403 0)
(1.11965 0.0714259 0)
(1.12175 0.0724658 0)
(1.12494 0.074287 0)
(1.12582 0.0759383 -1.35138e-026)
(0.796366 0.00310007 0)
(0.813057 0.00445581 0)
(0.830684 0.0081683 0)
(0.849135 0.0118723 0)
(0.868282 0.0155336 0)
(0.887965 0.0192575 0)
(0.90803 0.0230841 0)
(0.928336 0.0270073 0)
(0.948736 0.0310123 0)
(0.969087 0.0350867 0)
(0.989246 0.0392172 0)
(1.00907 0.0433877 0)
(1.02839 0.0475782 0)
(1.04702 0.0517618 0)
(1.06472 0.0558883 0)
(1.08116 0.0598361 0)
(1.09635 0.0636587 0)
(1.1059 0.0670251 0)
(1.10591 0.0686696 0)
(1.10798 0.0700557 0)
(1.10846 0.0722426 0)
(1.10975 0.0734575 0)
(1.10904 0.0749308 0)
(1.10988 0.0766655 0)
(1.11275 0.0781604 0)
(1.11386 0.0799407 0)
(1.11327 0.0805525 0)
(1.11259 0.0818354 0)
(1.11377 0.0833978 1.42958e-026)
(0.776164 0.00318243 0)
(0.79222 0.00487025 0)
(0.809214 0.008814 0)
(0.827034 0.0127678 0)
(0.845559 0.0166825 0)
(0.86466 0.0206601 0)
(0.884181 0.0247385 0)
(0.903982 0.0289092 0)
(0.923932 0.0331601 0)
(0.943902 0.0374792 0)
(0.963761 0.0418546 0)
(0.983384 0.0462722 0)
(1.00264 0.0507146 0)
(1.02137 0.0551606 0)
(1.03942 0.0595808 0)
(1.05656 0.0639176 0)
(1.07251 0.0680598 0)
(1.08718 0.0721272 0)
(1.09589 0.0754672 0)
(1.0961 0.0774511 0)
(1.09786 0.0788392 0)
(1.09782 0.0811157 0)
(1.10022 0.0827037 0)
(1.10087 0.0842502 0)
(1.10066 0.08559 0)
(1.10242 0.0874131 0)
(1.10523 0.0890249 0)
(1.10755 0.0914005 0)
(1.10693 0.0922048 0)
(0.755564 0.00330269 0)
(0.771017 0.00530846 0)
(0.787413 0.00951862 0)
(0.804646 0.0137528 0)
(0.822597 0.017949 0)
(0.841146 0.0222066 0)
(0.860166 0.0265657 0)
(0.879512 0.0310163 0)
(0.899055 0.0355441 0)
(0.918677 0.0401389 0)
(0.938261 0.0447888 0)
(0.957691 0.049481 0)
(0.976855 0.0541999 0)
(0.995632 0.0589273 0)
(1.01389 0.0636411 0)
(1.03147 0.0683093 0)
(1.04819 0.0728702 0)
(1.06382 0.0772465 0)
(1.07812 0.0814618 0)
(1.08563 0.0850438 0)
(1.08611 0.0871326 0)
(1.08832 0.088648 0)
(1.08902 0.0912115 0)
(1.09082 0.0925865 0)
(1.09367 0.0948364 0)
(1.09329 0.0968718 0)
(1.09336 0.0978597 0)
(1.09524 0.0997905 0)
(1.09881 0.10183 0)
(0.734509 0.00346067 0)
(0.74938 0.00578356 0)
(0.765202 0.0102998 0)
(0.781876 0.0148506 0)
(0.799289 0.0193661 0)
(0.81732 0.0239422 0)
(0.835853 0.0286195 0)
(0.854764 0.0333909 0)
(0.873924 0.0382413 0)
(0.893221 0.0431596 0)
(0.912542 0.0481353 0)
(0.931783 0.0531559 0)
(0.95084 0.0582076 0)
(0.969612 0.0632742 0)
(0.987989 0.0683376 0)
(1.00585 0.0733758 0)
(1.02306 0.078356 0)
(1.03945 0.0832162 0)
(1.05486 0.0878819 0)
(1.06876 0.092425 0)
(1.0753 0.09602 0)
(1.07706 0.0982917 0)
(1.0795 0.100147 0)
(1.08009 0.102493 0)
(1.08126 0.104351 0)
(1.08366 0.10662 0)
(1.08631 0.109121 0)
(1.08691 0.11114 0)
(1.08635 0.111874 0)
(0.712969 0.00364666 4.11989e-026)
(0.727271 0.00628964 0)
(0.742536 0.0111436 0)
(0.758669 0.0160407 0)
(0.775562 0.0209043 0)
(0.793102 0.0258301 0)
(0.811172 0.030858 0)
(0.829661 0.0359816 0)
(0.848446 0.0411857 0)
(0.867415 0.0464581 0)
(0.886468 0.0517901 0)
(0.905507 0.0571695 0)
(0.924436 0.062583 0)
(0.943162 0.0680159 0)
(0.961589 0.0734514 0)
(0.979619 0.0788704 0)
(0.99714 0.0842498 0)
(1.01403 0.0895531 0)
(1.03017 0.0947072 0)
(1.0455 0.0996603 0)
(1.05928 0.104572 0)
(1.06487 0.107587 0)
(1.06739 0.110986 0)
(1.06866 0.112134 0)
(1.07077 0.115271 0)
(1.07138 0.117539 0)
(1.07387 0.118238 0)
(1.07737 0.121844 0)
(1.08131 0.124766 0)
(0.690961 0.00385667 1.36542e-027)
(0.704705 0.00682558 0)
(0.719425 0.0120453 0)
(0.735029 0.0173152 0)
(0.751417 0.0225532 0)
(0.76848 0.0278561 0)
(0.786105 0.0332629 0)
(0.804186 0.0387677 0)
(0.822618 0.0443565 0)
(0.841284 0.050016 0)
(0.860082 0.0557343 0)
(0.878923 0.0615015 0)
(0.897717 0.0673043 0)
(0.916381 0.0731288 0)
(0.93483 0.0789593 0)
(0.95298 0.0847785 0)
(0.970739 0.090567 0)
(0.988012 0.0963012 0)
(1.0047 0.101941 0)
(1.02074 0.1074 0)
(1.03633 0.11279 0)
(1.04984 0.117891 0)
(1.0544 0.121197 0)
(1.05709 0.124332 0)
(1.05916 0.126599 0)
(1.06201 0.12887 0)
(1.06346 0.132679 0)
(1.0653 0.133303 0)
(1.06864 0.135485 0)
(0.668497 0.00408946 -4.75693e-026)
(0.681691 0.00739165 0)
(0.695874 0.0130042 0)
(0.710959 0.0186729 0)
(0.726852 0.0243109 0)
(0.743448 0.0300172 0)
(0.760641 0.035832 0)
(0.778323 0.0417465 0)
(0.796396 0.0477481 0)
(0.814759 0.0538246 0)
(0.833308 0.0599633 0)
(0.851957 0.0661532 0)
(0.87062 0.0723815 0)
(0.889215 0.0786345 0)
(0.907665 0.0848974 0)
(0.925894 0.0911543 0)
(0.943823 0.0973878 0)
(0.961371 0.10358 0)
(0.978454 0.109708 0)
(0.994991 0.115736 0)
(1.01093 0.121567 0)
(1.02667 0.127402 0)
(1.04029 0.133028 0)
(1.04379 0.136212 0)
(1.04762 0.138665 0)
(1.05008 0.142575 0)
(1.05411 0.142874 0)
(1.05572 0.147596 0)
(1.05667 0.149413 0)
(0.645615 0.00434025 0)
(0.658264 0.00798055 0)
(0.671916 0.0140073 0)
(0.686489 0.020095 0)
(0.701893 0.0261531 0)
(0.718029 0.0322835 0)
(0.734797 0.0385269 0)
(0.752094 0.0448743 0)
(0.769821 0.0513114 0)
(0.787885 0.0578264 0)
(0.806187 0.0644065 0)
(0.824637 0.0710382 0)
(0.843158 0.0777104 0)
(0.861673 0.0844085 0)
(0.880107 0.0911175 0)
(0.89839 0.0978218 0)
(0.916451 0.104504 0)
(0.934215 0.111146 0)
(0.95161 0.117728 0)
(0.968557 0.124226 0)
(0.984994 0.130601 0)
(1.00087 0.136701 0)
(1.01701 0.143083 0)
(1.03062 0.148489 0)
(1.03418 0.152179 0)
(1.03856 0.154299 0)
(1.04095 0.15906 0)
(1.04572 0.159218 0)
(1.04871 0.163452 0)
(0.622372 0.00460931 -5.81844e-026)
(0.63448 0.00859092 0)
(0.647604 0.0150517 0)
(0.66167 0.0215775 0)
(0.67659 0.0280743 0)
(0.692272 0.0346478 0)
(0.708619 0.0413399 0)
(0.725533 0.0481414 0)
(0.742918 0.0550352 0)
(0.760685 0.0620109 0)
(0.778748 0.0690558 0)
(0.797014 0.0761553 0)
(0.815405 0.0832957 0)
(0.833847 0.0904629 0)
(0.852269 0.0976418 0)
(0.870604 0.104816 0)
(0.888786 0.11197 0)
(0.906751 0.119084 0)
(0.924434 0.126139 0)
(0.941769 0.133115 0)
(0.958698 0.139988 0)
(0.975187 0.146691 0)
(0.991293 0.153243 0)
(1.00821 0.15984 0)
(1.02144 0.165597 0)
(1.0256 0.169665 0)
(1.02962 0.171628 0)
(1.03228 0.17691 0)
(1.03664 0.178155 5.47932e-026)
(0.598823 0.00489517 -1.67946e-027)
(0.610393 0.00921929 0)
(0.622995 0.0161319 0)
(0.636557 0.0231123 0)
(0.650998 0.030064 0)
(0.666229 0.0370977 0)
(0.68216 0.0442565 0)
(0.698696 0.0515301 0)
(0.715747 0.0589019 0)
(0.733223 0.0663584 0)
(0.751043 0.0738879 0)
(0.76912 0.0814759 0)
(0.787375 0.0891064 0)
(0.80574 0.0967665 0)
(0.824145 0.104439 0)
(0.842527 0.112109 0)
(0.860823 0.119758 0)
(0.878972 0.127369 0)
(0.896916 0.134922 0)
(0.914596 0.142398 0)
(0.931961 0.149777 0)
(0.948971 0.15703 0)
(0.965634 0.16411 0)
(0.982288 0.17105 0)
(0.999623 0.178 0)
(1.01252 0.184103 0)
(1.01671 0.187798 0)
(1.02179 0.189946 0)
(1.02388 0.194921 1.0678e-027)
(0.575037 0.00519651 6.70622e-026)
(0.586073 0.00986228 0)
(0.598156 0.017242 0)
(0.611216 0.0246911 0)
(0.625179 0.0321116 0)
(0.63996 0.0396199 0)
(0.655475 0.0472606 0)
(0.671633 0.0550229 0)
(0.688347 0.0628893 0)
(0.705531 0.0708446 0)
(0.723107 0.0788781 0)
(0.740999 0.0869748 0)
(0.759124 0.0951177 0)
(0.777414 0.103291 0)
(0.795802 0.111478 0)
(0.814226 0.119662 0)
(0.832626 0.127826 0)
(0.850946 0.135951 0)
(0.869128 0.144017 0)
(0.887122 0.152006 0)
(0.904876 0.159897 0)
(0.922348 0.16767 0)
(0.939519 0.175297 0)
(0.956481 0.182749 0)
(0.973633 0.190112 0)
(0.991425 0.19759 0)
(1.00393 0.203401 0)
(1.00911 0.207784 0)
(1.01503 0.20999 -6.2626e-026)
(0.551081 0.00551325 0)
(0.561588 0.0105189 0)
(0.573154 0.0183802 0)
(0.585715 0.0263112 0)
(0.599201 0.0342134 0)
(0.613534 0.04221 0)
(0.628633 0.0503473 0)
(0.644413 0.0586137 0)
(0.660792 0.0669909 0)
(0.677687 0.0754638 0)
(0.695019 0.0840183 0)
(0.712717 0.0926401 0)
(0.730705 0.101313 0)
(0.748913 0.110017 0)
(0.76728 0.118739 0)
(0.785743 0.127459 0)
(0.804245 0.136158 0)
(0.822729 0.144817 0)
(0.841143 0.153418 0)
(0.859434 0.161941 0)
(0.877553 0.170365 0)
(0.895458 0.178672 0)
(0.913114 0.186842 0)
(0.930529 0.194857 0)
(0.94783 0.202694 0)
(0.965525 0.210566 0)
(0.983981 0.218296 0)
(0.996542 0.22414 0)
(1.0025 0.228852 0)
(0.527026 0.00584347 0)
(0.537007 0.0111865 0)
(0.54806 0.0195423 0)
(0.560124 0.0279662 0)
(0.573133 0.0363608 0)
(0.587016 0.0448572 0)
(0.601697 0.0535033 0)
(0.617097 0.0622869 0)
(0.633136 0.0711893 0)
(0.649736 0.0801948 0)
(0.666822 0.0892877 0)
(0.684325 0.0984543 0)
(0.702178 0.107677 0)
(0.720306 0.116936 0)
(0.738648 0.126213 0)
(0.757146 0.135489 0)
(0.775743 0.144744 0)
(0.794384 0.153958 0)
(0.813018 0.163112 0)
(0.831592 0.172184 0)
(0.85006 0.181153 0)
(0.868375 0.190001 0)
(0.886496 0.198706 0)
(0.904403 0.207252 0)
(0.922116 0.215623 0)
(0.939717 0.223807 0)
(0.958461 0.232079 0)
(0.977393 0.240102 0)
(0.990174 0.245905 7.36451e-026)
(0.502939 0.00618693 0)
(0.512399 0.0118655 0)
(0.522942 0.0207284 0)
(0.534511 0.0296563 0)
(0.547044 0.0385543 0)
(0.560477 0.0475623 0)
(0.574737 0.0567303 0)
(0.589752 0.0660455 0)
(0.605446 0.0754882 0)
(0.621747 0.0850423 0)
(0.638581 0.0946919 0)
(0.655881 0.10442 0)
(0.673585 0.11421 0)
(0.691625 0.124043 0)
(0.70994 0.133895 0)
(0.728471 0.143749 0)
(0.747163 0.153581 0)
(0.765961 0.163372 0)
(0.784814 0.173098 0)
(0.803672 0.182737 0)
(0.822486 0.192267 0)
(0.841211 0.201666 0)
(0.859803 0.210912 0)
(0.878229 0.219983 0)
(0.896471 0.228864 0)
(0.914542 0.237542 0)
(0.9328 0.24597 0)
(0.952402 0.254822 0)
(0.972433 0.262671 9.77181e-028)
(0.478881 0.00654168 0)
(0.487827 0.0125546 0)
(0.497865 0.0219365 0)
(0.50894 0.0313781 0)
(0.520997 0.0407893 0)
(0.533976 0.0503197 0)
(0.547812 0.0600215 0)
(0.562436 0.0698812 0)
(0.57778 0.0798786 0)
(0.593775 0.0899973 0)
(0.610352 0.100221 0)
(0.627447 0.110531 0)
(0.644997 0.120909 0)
(0.662941 0.131334 0)
(0.681219 0.141785 0)
(0.699775 0.152239 0)
(0.718556 0.162674 0)
(0.737508 0.173066 0)
(0.756581 0.18339 0)
(0.775724 0.193623 0)
(0.79489 0.203739 0)
(0.814033 0.213715 0)
(0.833108 0.223526 0)
(0.852076 0.233148 0)
(0.870909 0.242561 0)
(0.889595 0.251749 0)
(0.908252 0.260668 0)
(0.92722 0.269549 0)
(0.948176 0.278442 -1.67352e-025)
(0.454915 0.00690601 0)
(0.463354 0.0132536 0)
(0.472891 0.0231654 0)
(0.483475 0.0331294 0)
(0.495055 0.0430628 0)
(0.507577 0.0531257 0)
(0.520984 0.0633726 0)
(0.535211 0.0737893 0)
(0.550195 0.0843554 0)
(0.565873 0.0950542 0)
(0.58218 0.105869 0)
(0.599056 0.11678 0)
(0.616443 0.12777 0)
(0.634285 0.138815 0)
(0.652521 0.149892 0)
(0.671096 0.160975 0)
(0.68996 0.17204 0)
(0.709061 0.183062 0)
(0.728349 0.194013 0)
(0.747777 0.204868 0)
(0.767296 0.2156 0)
(0.786859 0.226181 0)
(0.806422 0.236585 0)
(0.825943 0.246787 0)
(0.845385 0.256762 0)
(0.864726 0.26649 0)
(0.883996 0.275946 0)
(0.903332 0.285156 0)
(0.923409 0.294287 -7.25695e-028)
(0.431098 0.00727797 0)
(0.439038 0.0139624 0)
(0.44808 0.0244143 0)
(0.458174 0.034909 0)
(0.469276 0.0453732 0)
(0.481339 0.0559789 0)
(0.494309 0.0667827 0)
(0.508131 0.07777 0)
(0.522745 0.0889203 0)
(0.538094 0.100217 0)
(0.554119 0.111642 0)
(0.570762 0.123177 0)
(0.587969 0.134799 0)
(0.605688 0.146487 0)
(0.623867 0.158215 0)
(0.642453 0.169956 0)
(0.661394 0.181683 0)
(0.68064 0.193367 0)
(0.700143 0.204979 0)
(0.719856 0.216489 0)
(0.73973 0.227867 0)
(0.759719 0.239083 0)
(0.779777 0.250107 0)
(0.799858 0.26091 0)
(0.819923 0.271465 0)
(0.839939 0.281746 0)
(0.859897 0.291733 0)
(0.879861 0.301421 0)
(0.899888 0.310817 9.4284e-026)
(0.407483 0.00765487 0)
(0.414934 0.01468 0)
(0.423486 0.0256812 0)
(0.433093 0.036713 0)
(0.443716 0.0477156 0)
(0.455314 0.058873 0)
(0.46784 0.0702441 0)
(0.481246 0.0818142 0)
(0.495477 0.0935628 0)
(0.510482 0.105473 0)
(0.526208 0.117528 0)
(0.542604 0.129708 0)
(0.559619 0.141988 0)
(0.577203 0.154346 0)
(0.595307 0.166753 0)
(0.613884 0.179182 0)
(0.632887 0.191603 0)
(0.652269 0.203985 0)
(0.671982 0.216294 0)
(0.69198 0.228497 0)
(0.712214 0.240558 0)
(0.732638 0.252445 0)
(0.753205 0.264123 0)
(0.773867 0.275557 0)
(0.79458 0.286716 0)
(0.815303 0.29757 0)
(0.836007 0.308092 0)
(0.856698 0.318285 0)
(0.877336 0.328029 1.00407e-025)
(0.384121 0.00803368 0)
(0.391094 0.0154052 0)
(0.399164 0.026963 0)
(0.408286 0.0385367 0)
(0.418428 0.0500835 0)
(0.429556 0.0618003 0)
(0.44163 0.0737481 0)
(0.454607 0.0859119 0)
(0.46844 0.0982719 0)
(0.483084 0.110812 0)
(0.498492 0.123515 0)
(0.514618 0.13636 0)
(0.531417 0.149324 0)
(0.548846 0.162382 0)
(0.56686 0.175503 0)
(0.585413 0.188657 0)
(0.604463 0.201811 0)
(0.623966 0.21493 0)
(0.64388 0.227978 0)
(0.664159 0.240916 0)
(0.684757 0.253705 0)
(0.705627 0.266305 0)
(0.726721 0.278676 0)
(0.747989 0.29078 0)
(0.769383 0.302577 0)
(0.790855 0.314032 0)
(0.812363 0.325111 0)
(0.833879 0.335802 0)
(0.855354 0.346012 -1.06007e-025)
(0.361062 0.00841108 0)
(0.367569 0.0161364 0)
(0.375166 0.0282559 0)
(0.383806 0.0403744 0)
(0.393465 0.0524696 0)
(0.404116 0.0647522 0)
(0.415728 0.0772847 0)
(0.428263 0.0900527 0)
(0.441681 0.103037 0)
(0.455943 0.116223 0)
(0.47101 0.129593 0)
(0.486842 0.143127 0)
(0.503399 0.156801 0)
(0.520644 0.170588 0)
(0.538541 0.184458 0)
(0.557049 0.198376 0)
(0.576127 0.212306 0)
(0.595739 0.226208 0)
(0.615843 0.240042 0)
(0.636398 0.253765 0)
(0.657361 0.267332 0)
(0.678685 0.280696 0)
(0.700323 0.293812 0)
(0.722224 0.306631 0)
(0.744336 0.319109 0)
(0.766604 0.331202 0)
(0.788978 0.342871 0)
(0.811407 0.354083 0)
(0.833826 0.364801 1.1184e-025)
(0.338354 0.00878338 0)
(0.34441 0.0168707 0)
(0.351541 0.0295546 0)
(0.359702 0.0422179 0)
(0.368876 0.0548638 0)
(0.379045 0.0677164 0)
(0.390182 0.0808402 0)
(0.402259 0.0942212 0)
(0.415243 0.107842 0)
(0.429101 0.121689 0)
(0.443801 0.135746 0)
(0.45931 0.149992 0)
(0.475597 0.164403 0)
(0.492628 0.178951 0)
(0.510375 0.193603 0)
(0.528807 0.208324 0)
(0.547889 0.223075 0)
(0.567587 0.237812 0)
(0.587866 0.252488 0)
(0.608688 0.267054 0)
(0.630014 0.281459 0)
(0.6518 0.295648 0)
(0.674 0.309567 0)
(0.696561 0.32316 0)
(0.719429 0.336372 0)
(0.742545 0.34915 0)
(0.765848 0.361445 0)
(0.789273 0.373213 0)
(0.81274 0.384426 -2.35769e-025)
(0.316045 0.00914657 0)
(0.321665 0.0176042 0)
(0.32834 0.0308518 0)
(0.336025 0.0440565 0)
(0.344711 0.0572523 0)
(0.354389 0.0706767 0)
(0.36504 0.0843956 0)
(0.376642 0.098396 0)
(0.389169 0.112663 0)
(0.402597 0.127184 0)
(0.416901 0.141944 0)
(0.432056 0.156924 0)
(0.448038 0.172099 0)
(0.464823 0.187441 0)
(0.482389 0.202915 0)
(0.500708 0.218484 0)
(0.519757 0.234104 0)
(0.539511 0.24973 0)
(0.559941 0.265309 0)
(0.581015 0.280785 0)
(0.602697 0.296097 0)
(0.62495 0.311183 0)
(0.647726 0.325977 0)
(0.670976 0.340413 0)
(0.694643 0.354423 0)
(0.718663 0.367942 0)
(0.742966 0.380911 0)
(0.767476 0.39327 0)
(0.7921 0.40498 9.19592e-028)
(0.294184 0.00949645 0)
(0.299382 0.0183313 0)
(0.305611 0.0321377 0)
(0.312823 0.0458766 0)
(0.321019 0.0596179 0)
(0.330198 0.0736126 0)
(0.340348 0.0879273 0)
(0.351456 0.102551 0)
(0.363504 0.11747 0)
(0.376474 0.132676 0)
(0.39035 0.148155 0)
(0.405114 0.163889 0)
(0.420752 0.179855 0)
(0.437248 0.196023 0)
(0.454589 0.21236 0)
(0.472758 0.228826 0)
(0.491736 0.245372 0)
(0.511509 0.261949 0)
(0.532058 0.2785 0)
(0.553359 0.294959 0)
(0.575385 0.311259 0)
(0.598101 0.327325 0)
(0.621468 0.343078 0)
(0.645436 0.358439 0)
(0.669947 0.373326 0)
(0.694934 0.387658 0)
(0.720317 0.401358 0)
(0.74601 0.414354 0)
(0.771909 0.426584 1.34993e-027)
(0.272818 0.00982863 0)
(0.277611 0.0190443 0)
(0.283404 0.0333997 0)
(0.290146 0.0476608 0)
(0.297847 0.0619392 0)
(0.306518 0.0764986 0)
(0.316154 0.0914064 0)
(0.326748 0.106653 0)
(0.338291 0.122229 0)
(0.350773 0.138129 0)
(0.364185 0.15434 0)
(0.37852 0.170848 0)
(0.39377 0.187629 0)
(0.409929 0.204656 0)
(0.426993 0.221896 0)
(0.44496 0.239306 0)
(0.463822 0.256838 0)
(0.483571 0.274434 0)
(0.504199 0.292033 0)
(0.525695 0.309563 0)
(0.548042 0.326943 0)
(0.571215 0.344088 0)
(0.595181 0.360903 0)
(0.619893 0.377292 0)
(0.645296 0.393152 0)
(0.671317 0.408384 0)
(0.697872 0.42289 0)
(0.724858 0.436579 0)
(0.752163 0.449369 1.36291e-025)
(0.252 0.0101387 0)
(0.256402 0.0197334 0)
(0.261768 0.0346223 0)
(0.268041 0.0493879 0)
(0.275245 0.0641898 0)
(0.283397 0.0793037 0)
(0.292503 0.0947967 0)
(0.302562 0.110662 0)
(0.313573 0.126894 0)
(0.325535 0.143491 0)
(0.338447 0.160444 0)
(0.352309 0.177741 0)
(0.367124 0.19536 0)
(0.382896 0.213277 0)
(0.39963 0.231457 0)
(0.417336 0.249859 0)
(0.436018 0.268436 0)
(0.455686 0.287125 0)
(0.476342 0.305858 0)
(0.49799 0.324556 0)
(0.520626 0.343127 0)
(0.544237 0.36147 0)
(0.568802 0.379472 0)
(0.594283 0.397015 0)
(0.620626 0.413973 0)
(0.647758 0.430218 0)
(0.675585 0.445627 0)
(0.703992 0.460082 0)
(0.732847 0.473479 -1.39629e-025)
(0.231782 0.0104227 0)
(0.235807 0.0203866 0)
(0.240754 0.0357875 0)
(0.246559 0.0510334 0)
(0.25326 0.0663392 0)
(0.260883 0.0819912 0)
(0.269443 0.0980557 0)
(0.278946 0.114529 0)
(0.289399 0.131411 0)
(0.300808 0.148702 0)
(0.31318 0.166399 0)
(0.326524 0.184492 0)
(0.340852 0.202965 0)
(0.356178 0.221794 0)
(0.37252 0.240949 0)
(0.389898 0.260395 0)
(0.408336 0.280077 0)
(0.427849 0.299933 0)
(0.448466 0.319893 0)
(0.470204 0.339869 0)
(0.49308 0.359756 0)
(0.517098 0.379438 0)
(0.542252 0.398781 0)
(0.568518 0.417637 0)
(0.59585 0.43585 0)
(0.624176 0.453257 0)
(0.653392 0.469697 0)
(0.683367 0.485017 0)
(0.713943 0.499082 1.47432e-025)
(0.212219 0.0106777 0)
(0.215876 0.0209906 0)
(0.22041 0.0368755 0)
(0.225749 0.0525708 0)
(0.231941 0.0683539 0)
(0.239026 0.0845202 0)
(0.247024 0.101135 0)
(0.25595 0.118197 0)
(0.265818 0.135712 0)
(0.27664 0.153686 0)
(0.288433 0.17212 0)
(0.301213 0.191008 0)
(0.315001 0.210339 0)
(0.329819 0.230096 0)
(0.345697 0.250253 0)
(0.362669 0.270777 0)
(0.38078 0.291618 0)
(0.400058 0.31272 0)
(0.420549 0.334002 0)
(0.442298 0.355374 0)
(0.465343 0.376721 0)
(0.489715 0.397907 0)
(0.515431 0.418774 0)
(0.542487 0.439143 0)
(0.570852 0.458815 0)
(0.600459 0.47758 0)
(0.631198 0.495228 0)
(0.662917 0.511553 0)
(0.695423 0.526375 0)
(0.193367 0.0109027 0)
(0.196662 0.0215314 0)
(0.200788 0.0378668 0)
(0.205659 0.0539727 0)
(0.211339 0.0701984 0)
(0.217876 0.0868465 0)
(0.225298 0.10398 0)
(0.233628 0.121602 0)
(0.242885 0.139723 0)
(0.253091 0.158354 0)
(0.264266 0.177503 0)
(0.276436 0.197169 0)
(0.289627 0.217348 0)
(0.303873 0.23803 0)
(0.319213 0.259198 0)
(0.335694 0.28082 0)
(0.353375 0.302866 0)
(0.372316 0.325278 0)
(0.392578 0.347973 0)
(0.414234 0.370862 0)
(0.437352 0.39382 0)
(0.461997 0.416697 0)
(0.48822 0.439306 0)
(0.516049 0.46143 0)
(0.545478 0.482821 0)
(0.576452 0.503207 0)
(0.608863 0.522304 0)
(0.642533 0.539837 0)
(0.677227 0.555554 1.52138e-025)
(0.175279 0.0110993 0)
(0.178212 0.0219962 0)
(0.181935 0.038743 0)
(0.186339 0.0552121 0)
(0.191503 0.0718359 0)
(0.197486 0.088922 0)
(0.204321 0.10653 0)
(0.212038 0.124667 0)
(0.220664 0.14335 0)
(0.230226 0.162597 0)
(0.240749 0.182418 0)
(0.252265 0.202824 0)
(0.264806 0.223818 0)
(0.278413 0.245399 0)
(0.293136 0.267562 0)
(0.309033 0.290288 0)
(0.326177 0.313555 0)
(0.344661 0.337312 0)
(0.364565 0.361498 0)
(0.385992 0.386015 0)
(0.409052 0.410738 0)
(0.433852 0.435501 0)
(0.46049 0.460094 0)
(0.489039 0.484257 0)
(0.519535 0.507684 0)
(0.551953 0.530024 0)
(0.586191 0.550899 0)
(0.622054 0.569927 0)
(0.65925 0.586752 -5.48983e-027)
(0.158003 0.0112721 0)
(0.16057 0.0223737 0)
(0.163896 0.0394879 0)
(0.167837 0.0562627 0)
(0.172486 0.0732283 0)
(0.177911 0.0906947 0)
(0.184154 0.108717 0)
(0.191248 0.127308 0)
(0.199228 0.146489 0)
(0.208124 0.166284 0)
(0.217967 0.186712 0)
(0.22879 0.207792 0)
(0.24063 0.229539 0)
(0.253533 0.251964 0)
(0.267557 0.275076 0)
(0.282772 0.298874 0)
(0.299265 0.323344 0)
(0.317149 0.348465 0)
(0.336546 0.374187 0)
(0.357584 0.400417 0)
(0.380419 0.427035 0)
(0.405212 0.453871 0)
(0.432124 0.480694 0)
(0.461291 0.507203 0)
(0.492811 0.533029 0)