/*--------------------------------*- C++ -*----------------------------------*\
| =========                 |                                                 |
| \\      /  F ield         | OpenFOAM: The Open Source CFD Toolbox           |
|  \\    /   O peration     | Version:  5.x                                   |
|   \\  /    A nd           | Web:      www.OpenFOAM.org                      |
|    \\/     M anipulation  |                                                 |
\*---------------------------------------------------------------------------*/
/*   Windows 32 and 64 bit porting by blueCAPE: http://www.bluecape.com.pt   *\
|  Based on Windows porting (2.0.x v4) by Symscape: http://www.symscape.com   |
\*---------------------------------------------------------------------------*/
FoamFile
{
    version     2.0;
    format      ascii;
    class       volScalarField;
    location    "10";
    object      epsilon;
}
// * * * * * * * * * * * * * * * * * * * * * * * * * * * * * * * * * * * * * //

dimensions      [0 2 -3 0 0 0 0];

internalField   nonuniform List<scalar> 
43900
(
0.00153403
0.00150231
0.00150241
0.00150241
0.00150241
0.00150241
0.00150241
0.00150241
0.00150241
0.00150241
0.00150241
0.00150241
0.00150241
0.00150241
0.00150241
0.00150241
0.00150241
0.00150241
0.00150241
0.00150241
0.00150241
0.00150241
0.00150241
0.00150241
0.00150241
0.00150241
0.00150241
0.00150241
0.00150241
0.000823464
0.0001596
0.000158613
0.000158612
0.000158612
0.000158611
0.000158611
0.00015861
0.00015861
0.00015861
0.000158609
0.000158609
0.000158609
0.000158609
0.000158609
0.000158609
0.000158609
0.000158608
0.000158608
0.000158608
0.000158608
0.000158608
0.000158608
0.000158608
0.000158608
0.000158608
0.000158608
0.000158608
0.000158608
0.00118486
0.000121924
0.000119851
0.000119849
0.000119849
0.000119849
0.000119849
0.000119849
0.000119849
0.000119849
0.000119849
0.000119849
0.000119849
0.000119849
0.000119849
0.000119849
0.000119849
0.000119849
0.000119849
0.000119849
0.000119849
0.000119848
0.000119848
0.000119848
0.000119848
0.000119848
0.000119848
0.000119848
0.000119848
0.00123944
0.000122778
0.000120587
0.000120585
0.000120585
0.000120585
0.000120585
0.000120585
0.000120585
0.000120585
0.000120585
0.000120585
0.000120585
0.000120585
0.000120585
0.000120585
0.000120585
0.000120585
0.000120585
0.000120585
0.000120585
0.000120585
0.000120585
0.000120585
0.000120585
0.000120585
0.000120585
0.000120585
0.000120585
0.00126686
0.000123151
0.000120859
0.000120856
0.000120856
0.000120856
0.000120856
0.000120856
0.000120856
0.000120856
0.000120856
0.000120856
0.000120856
0.000120856
0.000120856
0.000120856
0.000120856
0.000120856
0.000120856
0.000120856
0.000120856
0.000120856
0.000120856
0.000120856
0.000120856
0.000120856
0.000120856
0.000120856
0.000120856
0.00126532
0.000123225
0.000120888
0.000120885
0.000120885
0.000120885
0.000120885
0.000120885
0.000120885
0.000120885
0.000120885
0.000120885
0.000120885
0.000120885
0.000120885
0.000120885
0.000120885
0.000120885
0.000120885
0.000120885
0.000120885
0.000120885
0.000120885
0.000120885
0.000120885
0.000120885
0.000120885
0.000120885
0.000120885
0.00125361
0.000123281
0.000120891
0.000120888
0.000120888
0.000120888
0.000120888
0.000120888
0.000120888
0.000120888
0.000120888
0.000120888
0.000120888
0.000120888
0.000120888
0.000120888
0.000120888
0.000120888
0.000120888
0.000120888
0.000120888
0.000120888
0.000120888
0.000120888
0.000120888
0.000120888
0.000120888
0.000120888
0.000120888
0.00124112
0.000123354
0.000120891
0.000120888
0.000120888
0.000120888
0.000120888
0.000120888
0.000120888
0.000120888
0.000120888
0.000120888
0.000120888
0.000120888
0.000120888
0.000120888
0.000120888
0.000120888
0.000120888
0.000120888
0.000120888
0.000120888
0.000120888
0.000120888
0.000120888
0.000120888
0.000120888
0.000120888
0.000120888
0.00122871
0.00012344
0.000120892
0.000120888
0.000120888
0.000120888
0.000120888
0.000120888
0.000120888
0.000120888
0.000120888
0.000120888
0.000120888
0.000120888
0.000120888
0.000120888
0.000120888
0.000120888
0.000120888
0.000120888
0.000120888
0.000120888
0.000120888
0.000120888
0.000120888
0.000120888
0.000120888
0.000120888
0.000120888
0.00121493
0.000123541
0.000120893
0.000120889
0.000120889
0.000120888
0.000120888
0.000120888
0.000120888
0.000120888
0.000120889
0.000120889
0.000120889
0.000120888
0.000120889
0.000120889
0.000120888
0.000120889
0.000120889
0.000120888
0.000120889
0.000120888
0.000120889
0.000120889
0.000120888
0.000120888
0.000120888
0.000120888
0.000120888
0.00119972
0.000123662
0.000120894
0.000120889
0.000120889
0.000120889
0.000120889
0.000120889
0.000120889
0.000120889
0.000120889
0.000120889
0.000120889
0.000120889
0.000120889
0.000120889
0.000120889
0.000120889
0.000120889
0.000120889
0.000120889
0.000120889
0.000120889
0.000120889
0.000120889
0.000120888
0.000120889
0.000120889
0.000120889
0.00118296
0.000123804
0.000120895
0.000120889
0.000120889
0.000120889
0.000120889
0.000120889
0.000120889
0.000120889
0.000120889
0.000120889
0.000120889
0.000120889
0.000120889
0.000120889
0.000120889
0.000120889
0.000120889
0.000120889
0.000120889
0.000120889
0.000120889
0.000120889
0.000120889
0.000120888
0.000120889
0.000120889
0.000120889
0.00116451
0.000123969
0.000120896
0.00012089
0.00012089
0.00012089
0.00012089
0.00012089
0.00012089
0.00012089
0.00012089
0.00012089
0.00012089
0.00012089
0.00012089
0.00012089
0.00012089
0.00012089
0.00012089
0.00012089
0.00012089
0.00012089
0.00012089
0.00012089
0.00012089
0.000120889
0.00012089
0.00012089
0.000120889
0.00114424
0.000124159
0.000120898
0.000120891
0.000120891
0.000120891
0.00012089
0.00012089
0.00012089
0.00012089
0.00012089
0.00012089
0.00012089
0.00012089
0.000120891
0.000120891
0.000120891
0.00012089
0.000120891
0.000120891
0.000120891
0.00012089
0.000120891
0.000120891
0.000120891
0.00012089
0.00012089
0.00012089
0.000120889
0.00112204
0.000124378
0.0001209
0.000120891
0.000120891
0.000120891
0.000120891
0.000120891
0.000120891
0.000120891
0.000120891
0.000120891
0.000120891
0.000120891
0.000120891
0.000120891
0.000120891
0.000120891
0.000120891
0.000120891
0.000120891
0.000120891
0.000120891
0.000120891
0.000120891
0.000120891
0.000120891
0.000120891
0.000120891
0.0010978
0.000124627
0.000120903
0.000120893
0.000120893
0.000120893
0.000120892
0.000120892
0.000120892
0.000120892
0.000120892
0.000120892
0.000120892
0.000120892
0.000120892
0.000120892
0.000120892
0.000120892
0.000120893
0.000120893
0.000120893
0.000120892
0.000120892
0.000120892
0.000120892
0.000120892
0.000120892
0.000120892
0.000120892
0.00107144
0.000124908
0.000120906
0.000120894
0.000120894
0.000120894
0.000120894
0.000120894
0.000120894
0.000120894
0.000120894
0.000120894
0.000120894
0.000120894
0.000120894
0.000120894
0.000120894
0.000120894
0.000120894
0.000120894
0.000120894
0.000120894
0.000120894
0.000120893
0.000120893
0.000120893
0.000120894
0.000120894
0.000120894
0.00104287
0.000125223
0.000120911
0.000120896
0.000120896
0.000120896
0.000120895
0.000120896
0.000120896
0.000120896
0.000120896
0.000120896
0.000120896
0.000120896
0.000120895
0.000120895
0.000120895
0.000120895
0.000120896
0.000120896
0.000120896
0.000120895
0.000120895
0.000120895
0.000120895
0.000120895
0.000120896
0.000120896
0.000120896
0.00101208
0.000125571
0.000120917
0.000120898
0.000120898
0.000120898
0.000120898
0.000120898
0.000120898
0.000120898
0.000120898
0.000120898
0.000120898
0.000120898
0.000120897
0.000120898
0.000120898
0.000120897
0.000120898
0.000120898
0.000120898
0.000120898
0.000120897
0.000120897
0.000120897
0.000120897
0.000120898
0.000120898
0.000120897
0.00097905
0.000125953
0.000120924
0.000120901
0.000120901
0.000120901
0.000120901
0.000120901
0.000120901
0.000120901
0.000120901
0.000120901
0.000120901
0.0001209
0.0001209
0.0001209
0.0001209
0.000120901
0.000120901
0.000120901
0.000120901
0.000120901
0.0001209
0.0001209
0.0001209
0.0001209
0.0001209
0.0001209
0.0001209
0.000943827
0.000126367
0.000120934
0.000120905
0.000120905
0.000120905
0.000120905
0.000120905
0.000120905
0.000120905
0.000120905
0.000120905
0.000120904
0.000120905
0.000120904
0.000120904
0.000120904
0.000120905
0.000120905
0.000120904
0.000120904
0.000120904
0.000120903
0.000120903
0.000120903
0.000120903
0.000120904
0.000120904
0.000120904
0.000906498
0.000126808
0.000120945
0.000120911
0.00012091
0.00012091
0.00012091
0.00012091
0.00012091
0.00012091
0.00012091
0.00012091
0.000120909
0.00012091
0.00012091
0.00012091
0.000120909
0.000120909
0.000120909
0.000120909
0.000120909
0.000120909
0.000120908
0.000120908
0.000120908
0.000120908
0.000120908
0.000120908
0.000120908
0.000867212
0.000127271
0.00012096
0.000120917
0.000120917
0.000120917
0.000120917
0.000120917
0.000120916
0.000120916
0.000120916
0.000120916
0.000120916
0.000120916
0.000120916
0.000120916
0.000120915
0.000120916
0.000120916
0.000120916
0.000120916
0.000120916
0.000120916
0.000120915
0.000120914
0.000120914
0.000120914
0.000120914
0.000120914
0.000826172
0.000127748
0.000120979
0.000120926
0.000120926
0.000120926
0.000120925
0.000120925
0.000120924
0.000120924
0.000120924
0.000120924
0.000120924
0.000120924
0.000120924
0.000120924
0.000120923
0.000120924
0.000120924
0.000120924
0.000120924
0.000120924
0.000120924
0.000120923
0.000120921
0.000120922
0.000120921
0.000120922
0.000120921
0.000783639
0.000128228
0.000121002
0.000120938
0.000120937
0.000120937
0.000120937
0.000120935
0.000120936
0.000120935
0.000120935
0.000120935
0.000120935
0.000120935
0.000120934
0.000120934
0.000120934
0.000120934
0.000120934
0.000120935
0.000120935
0.000120935
0.000120934
0.000120933
0.000120931
0.000120931
0.000120931
0.000120931
0.000120931
0.000739946
0.0001287
0.00012103
0.000120952
0.000120951
0.00012095
0.00012095
0.000120949
0.000120949
0.000120949
0.000120949
0.000120949
0.000120948
0.000120949
0.000120948
0.000120947
0.000120947
0.000120947
0.000120947
0.000120947
0.000120947
0.000120946
0.000120945
0.000120944
0.000120943
0.000120944
0.000120943
0.000120944
0.000120944
0.000695468
0.000129148
0.000121064
0.00012097
0.000120969
0.000120968
0.000120968
0.000120967
0.000120967
0.000120967
0.000120967
0.000120966
0.000120965
0.000120966
0.000120966
0.000120965
0.000120965
0.000120965
0.000120962
0.000120963
0.000120961
0.000120962
0.000120961
0.00012096
0.000120958
0.000120959
0.000120959
0.000120959
0.000120959
0.000650636
0.000129558
0.000121104
0.000120993
0.000120991
0.000120991
0.000120991
0.000120991
0.00012099
0.000120988
0.000120988
0.000120988
0.000120987
0.000120988
0.000120989
0.000120989
0.000120988
0.000120987
0.000120982
0.000120984
0.000120984
0.000120983
0.000120983
0.000120982
0.000120978
0.000120979
0.000120979
0.000120979
0.000120978
0.000605909
0.000129911
0.000121152
0.000121021
0.000121019
0.000121019
0.000121018
0.000121018
0.000121018
0.000121015
0.000121016
0.000121015
0.000121016
0.000121016
0.000121016
0.000121016
0.000121014
0.000121013
0.00012101
0.00012101
0.000121009
0.000121006
0.000121007
0.000121007
0.000121006
0.000121006
0.000121006
0.000121006
0.000121004
0.000561765
0.000130193
0.000121207
0.000121055
0.000121053
0.000121052
0.00012105
0.00012105
0.00012105
0.00012105
0.00012105
0.000121049
0.000121049
0.000121048
0.000121045
0.000121047
0.000121047
0.000121046
0.000121045
0.000121043
0.000121039
0.000121041
0.00012104
0.000121042
0.000121042
0.000121041
0.000121041
0.000121039
0.000121035
0.00051868
0.000130389
0.00012127
0.000121097
0.000121094
0.000121093
0.000121091
0.00012109
0.00012109
0.00012109
0.000121088
0.000121089
0.000121088
0.000121088
0.000121085
0.000121087
0.000121087
0.000121087
0.000121086
0.000121084
0.000121084
0.000121084
0.000121083
0.000121082
0.000121081
0.00012108
0.000121079
0.000121077
0.000121072
0.000477107
0.000130484
0.000121341
0.000121146
0.00012114
0.00012114
0.000121139
0.000121136
0.000121138
0.000121138
0.000121136
0.000121139
0.000121139
0.000121139
0.000121136
0.000121136
0.000121136
0.000121137
0.000121136
0.000121135
0.000121133
0.000121129
0.000121129
0.000121129
0.000121128
0.000121128
0.000121126
0.000121123
0.000121118
0.000437455
0.000130464
0.000121418
0.000121203
0.000121193
0.000121195
0.000121195
0.000121194
0.000121195
0.000121195
0.000121194
0.000121197
0.000121197
0.000121198
0.000121198
0.000121197
0.000121193
0.000121195
0.000121195
0.000121195
0.000121191
0.000121191
0.000121189
0.000121188
0.00012118
0.000121181
0.000121181
0.00012118
0.000121177
0.000400074
0.000130363
0.000121502
0.000121268
0.000121257
0.000121263
0.000121265
0.000121265
0.000121265
0.000121265
0.000121266
0.000121266
0.000121264
0.000121269
0.000121269
0.000121268
0.000121264
0.000121269
0.000121269
0.000121268
0.000121267
0.000121266
0.000121265
0.000121262
0.000121252
0.000121253
0.000121253
0.000121251
0.000121248
0.000365241
0.000130155
0.00012159
0.000121342
0.000121329
0.000121336
0.000121341
0.000121344
0.000121347
0.00012135
0.000121352
0.000121352
0.000121352
0.000121356
0.000121355
0.000121355
0.000121351
0.000121356
0.000121357
0.000121354
0.000121356
0.000121356
0.000121355
0.000121353
0.000121346
0.000121347
0.000121347
0.000121345
0.000121341
0.000333151
0.000129841
0.000121682
0.000121422
0.000121408
0.000121418
0.000121424
0.000121429
0.000121435
0.00012144
0.000121446
0.000121452
0.000121457
0.000121463
0.000121465
0.000121465
0.000121465
0.000121462
0.000121466
0.000121466
0.000121467
0.000121466
0.000121464
0.000121464
0.000121465
0.000121463
0.000121462
0.00012146
0.000121454
0.000303912
0.00012944
0.000121775
0.000121507
0.000121497
0.000121507
0.000121515
0.000121522
0.00012153
0.000121538
0.000121547
0.000121557
0.000121566
0.000121577
0.000121587
0.000121595
0.0001216
0.0001216
0.0001216
0.0001216
0.000121601
0.000121596
0.000121604
0.000121604
0.000121603
0.00012159
0.00012159
0.00012159
0.000121586
0.000277554
0.000128968
0.000121867
0.000121597
0.000121593
0.000121603
0.000121612
0.000121622
0.000121633
0.000121644
0.000121657
0.000121671
0.000121685
0.000121701
0.000121716
0.000121732
0.000121747
0.00012176
0.000121765
0.000121765
0.000121764
0.00012176
0.000121772
0.000121772
0.00012177
0.000121757
0.000121763
0.000121761
0.000121758
0.000254035
0.000128444
0.000121957
0.000121692
0.000121692
0.000121702
0.000121714
0.000121727
0.000121742
0.000121758
0.000121775
0.000121794
0.000121815
0.000121837
0.000121859
0.000121882
0.000121905
0.000121929
0.000121951
0.000121966
0.000121973
0.000121971
0.000121978
0.00012198
0.000121979
0.000121968
0.000121975
0.000121975
0.000121969
0.000233249
0.000127886
0.000122044
0.00012179
0.000121792
0.000121805
0.00012182
0.000121836
0.000121855
0.000121876
0.0001219
0.000121925
0.000121953
0.000121983
0.000122015
0.000122047
0.000122081
0.000122116
0.00012215
0.000122184
0.000122211
0.00012223
0.000122228
0.000122236
0.000122236
0.000122228
0.00012224
0.00012224
0.000122238
0.000215043
0.000127314
0.000122125
0.000121887
0.000121892
0.000121908
0.000121926
0.000121947
0.000121971
0.000121998
0.000122028
0.000122062
0.000122098
0.000122138
0.000122181
0.000122226
0.000122274
0.000122323
0.000122375
0.000122424
0.000122474
0.000122514
0.000122545
0.000122544
0.000122554
0.000122549
0.000122573
0.000122574
0.000122559
0.000199234
0.000126744
0.000122201
0.000121983
0.00012199
0.000122009
0.000122032
0.000122057
0.000122087
0.000122121
0.000122159
0.000122201
0.000122248
0.0001223
0.000122355
0.000122416
0.000122481
0.000122548
0.000122622
0.000122692
0.000122767
0.000122839
0.000122893
0.00012294
0.000122935
0.000122969
0.000122968
0.000122975
0.000122988
0.000185614
0.00012619
0.000122269
0.000122074
0.000122085
0.000122107
0.000122134
0.000122165
0.000122201
0.000122241
0.000122288
0.00012234
0.000122399
0.000122464
0.000122535
0.000122613
0.000122698
0.00012279
0.000122886
0.000122993
0.000123088
0.000123207
0.0001233
0.000123374
0.000123451
0.000123425
0.000123495
0.000123515
0.000123422
0.000173971
0.000125666
0.000122331
0.000122161
0.000122174
0.0001222
0.000122231
0.000122267
0.000122309
0.000122358
0.000122414
0.000122477
0.000122548
0.000122627
0.000122716
0.000122814
0.000122923
0.000123042
0.000123172
0.000123309
0.000123466
0.000123589
0.000123771
0.000123919
0.000123947
0.000124097
0.0001241
0.000124087
0.000124222
0.000164091
0.000125179
0.000122385
0.00012224
0.000122257
0.000122287
0.000122322
0.000122364
0.000122412
0.000122468
0.000122533
0.000122607
0.000122691
0.000122786
0.000122893
0.000123014
0.000123149
0.000123301
0.000123466
0.000123656
0.000123835
0.000124079
0.000124253
0.000124444
0.000124732
0.000124712
0.000124882
0.000125042
0.000124859
0.000155768
0.000124736
0.000122432
0.000122313
0.000122333
0.000122366
0.000122406
0.000122452
0.000122507
0.000122571
0.000122645
0.00012273
0.000122826
0.000122938
0.000123064
0.000123209
0.000123372
0.000123559
0.000123769
0.000123999
0.000124274
0.000124527
0.000124836
0.000125197
0.00012532
0.000125758
0.000125728
0.000125869
0.000126237
0.00014881
0.000124341
0.000122472
0.000122378
0.0001224
0.000122437
0.000122481
0.000122532
0.000122592
0.000122664
0.000122746
0.000122842
0.000122952
0.000123079
0.000123226
0.000123393
0.000123588
0.000123808
0.000124071
0.000124351
0.000124701
0.000125035
0.000125516
0.000125816
0.000126436
0.000126515
0.000127196
0.000127068
0.000127155
0.000143038
0.000123995
0.000122507
0.000122434
0.000122459
0.0001225
0.000122547
0.000122602
0.000122668
0.000122746
0.000122837
0.000122943
0.000123066
0.000123208
0.000123373
0.000123566
0.000123785
0.00012406
0.000124329
0.000124754
0.000125045
0.000125673
0.000126088
0.000126677
0.000127225
0.000128286
0.000128169
0.000129005
0.000129036
0.000138292
0.000123696
0.000122535
0.000122483
0.00012251
0.000122554
0.000122604
0.000122663
0.000122734
0.000122818
0.000122917
0.000123032
0.000123166
0.000123322
0.000123506
0.000123717
0.000123982
0.000124248
0.000124671
0.000124962
0.000125634
0.000126065
0.000126669
0.000127887
0.000128407
0.000128962
0.000130654
0.000130586
0.000131306
0.000134427
0.000123443
0.000122557
0.000122524
0.000122553
0.000122599
0.000122652
0.000122715
0.000122791
0.00012288
0.000122985
0.000123108
0.000123252
0.000123422
0.00012362
0.000123861
0.000124123
0.000124506
0.000124798
0.000125442
0.000125848
0.000126572
0.000127794
0.000128308
0.000129729
0.000131019
0.000131919
0.000133998
0.000133852
0.000131314
0.000123233
0.000122574
0.000122559
0.000122589
0.000122637
0.000122692
0.000122758
0.000122837
0.000122931
0.000123042
0.000123172
0.000123325
0.000123506
0.000123722
0.000123967
0.0001243
0.00012459
0.000125158
0.000125528
0.000126325
0.000127219
0.000127875
0.000129574
0.000130979
0.000132557
0.000134821
0.000135954
0.000138889
0.000128841
0.000123061
0.000122589
0.000122587
0.000122619
0.000122668
0.000122725
0.000122793
0.000122875
0.000122973
0.000123088
0.000123225
0.000123386
0.000123576
0.000123801
0.000124077
0.000124379
0.000124823
0.000125194
0.000125913
0.000126607
0.000127254
0.000129022
0.000130017
0.000132315
0.000134913
0.000136864
0.000140967
0.000142242
0.000126909
0.000122923
0.000122601
0.000122609
0.000122644
0.000122692
0.00012275
0.000122821
0.000122905
0.000123006
0.000123125
0.000123266
0.000123434
0.000123631
0.000123871
0.000124141
0.000124519
0.000124855
0.00012547
0.000125974
0.000126764
0.000128014
0.000128938
0.000131318
0.000133019
0.000137227
0.000140239
0.000143808
0.000150818
0.000125432
0.000122817
0.000122611
0.000122625
0.000122662
0.000122711
0.00012277
0.000122842
0.000122928
0.000123031
0.000123153
0.000123298
0.00012347
0.000123674
0.000123922
0.000124201
0.000124599
0.000124928
0.000125642
0.000126056
0.00012728
0.000127908
0.000130037
0.000131255
0.000134987
0.000137772
0.000146805
0.000149932
0.000156944
0.000124336
0.000122736
0.000122618
0.000122637
0.000122676
0.000122724
0.000122784
0.000122857
0.000122945
0.00012305
0.000123174
0.000123322
0.000123497
0.000123707
0.000123954
0.000124262
0.000124609
0.000125088
0.000125535
0.000126458
0.000127141
0.000128149
0.000130471
0.000131835
0.000135263
0.000139356
0.00014645
0.000162429
0.000172883
0.000123554
0.000122678
0.000122622
0.000122644
0.000122683
0.000122732
0.000122792
0.000122866
0.000122954
0.000123059
0.000123183
0.000123332
0.000123507
0.000123718
0.000123973
0.000124257
0.000124701
0.000125007
0.000125802
0.000126296
0.000127348
0.00012833
0.00013056
0.00013203
0.000136219
0.000140001
0.000149216
0.000161726
0.000198126
0.000123038
0.000122641
0.000122628
0.000122651
0.000122692
0.000122742
0.000122804
0.00012288
0.000122972
0.000123082
0.000123214
0.000123372
0.000123559
0.000123789
0.000124058
0.000124395
0.000124831
0.000125301
0.000126006
0.000126917
0.000128101
0.000129279
0.000132135
0.00013463
0.000141048
0.000147145
0.000168053
0.000187314
0.000287934
0.000122711
0.000122656
0.000122741
0.000122909
0.000123148
0.000123481
0.00012394
0.000124569
0.000125433
0.000126629
0.000128299
0.000130659
0.000134028
0.000138878
0.00014614
0.000156016
0.000174443
0.000192611
0.000244694
0.000285266
0.000406207
0.000514091
0.000876511
0.00116204
0.00222749
0.00318891
0.00734551
0.0102709
0.0200919
0.000123097
0.000128128
0.000139138
0.000156902
0.000183092
0.00022028
0.000272079
0.000343546
0.000441709
0.000576268
0.000760687
0.00101351
0.00136123
0.00183691
0.00250863
0.00337709
0.00482421
0.00620495
0.00968955
0.0121984
0.0190768
0.0248085
0.0409643
0.0538348
0.0930661
0.129129
0.25168
0.354546
0.707472
0.00150241
0.00150241
0.00150241
0.00150241
0.00150241
0.00150241
0.00150241
0.00150241
0.00150241
0.00150241
0.00150241
0.00150241
0.00150241
0.00150241
0.00150241
0.00150242
0.00150242
0.00150242
0.00150242
0.00150242
0.00150242
0.00150242
0.00150242
0.00150242
0.00150242
0.00150242
0.00150242
0.00150242
0.00150242
0.00150242
0.00150242
0.00150242
0.00150242
0.00150242
0.00150242
0.00150242
0.00150242
0.00150242
0.00150242
0.00150242
0.00150242
0.00150242
0.00150242
0.00150242
0.00150242
0.00150242
0.00150242
0.00150242
0.00150242
0.00150242
0.00150243
0.00150243
0.00150243
0.00150243
0.00150243
0.00150243
0.00150243
0.00150243
0.00150243
0.00150243
0.00150243
0.00150243
0.00150243
0.00150243
0.00150243
0.00150243
0.00150243
0.00150243
0.00150243
0.00150243
0.00150243
0.00150243
0.00150243
0.00150243
0.00150243
0.00150243
0.00150243
0.00150243
0.00150243
0.00150243
0.00150243
0.00150243
0.00150243
0.00150243
0.00150243
0.00150243
0.00150243
0.00150243
0.00150243
0.00150243
0.00150243
0.00150243
0.00150243
0.00150243
0.00150243
0.00150243
0.00150243
0.00150244
0.00150244
0.00150244
0.00150244
0.00150244
0.00150244
0.00150244
0.00150244
0.00150244
0.00150244
0.00150244
0.00150244
0.00150244
0.00150244
0.00150244
0.00150244
0.00150244
0.00150244
0.00150244
0.00150244
0.00150244
0.00150244
0.00150244
0.00150244
0.00150244
0.00150244
0.00150244
0.00150244
0.00150244
0.00150244
0.00150244
0.00150244
0.00150244
0.00150244
0.00150244
0.00150244
0.00150244
0.00150244
0.00150244
0.00150244
0.00150243
0.00151778
0.000158608
0.000158608
0.000158608
0.000158608
0.000158609
0.000158609
0.000158609
0.000158609
0.000158609
0.000158609
0.00015861
0.00015861
0.00015861
0.00015861
0.000158611
0.000158611
0.000158611
0.000158611
0.000158612
0.000158612
0.000158613
0.000158613
0.000158613
0.000158613
0.000158614
0.000158614
0.000158614
0.000158615
0.000158615
0.000158615
0.000158616
0.000158616
0.000158616
0.000158617
0.000158617
0.000158617
0.000158618
0.000158618
0.000158619
0.000158619
0.000158619
0.000158619
0.00015862
0.00015862
0.00015862
0.00015862
0.000158621
0.000158621
0.000158622
0.000158622
0.000158622
0.000158623
0.000158623
0.000158623
0.000158624
0.000158624
0.000158624
0.000158625
0.000158625
0.000158625
0.000158625
0.000158626
0.000158626
0.000158626
0.000158627
0.000158627
0.000158627
0.000158627
0.000158628
0.000158628
0.000158628
0.000158629
0.000158629
0.000158629
0.000158629
0.00015863
0.00015863
0.00015863
0.00015863
0.00015863
0.000158631
0.000158631
0.000158631
0.000158631
0.000158632
0.000158632
0.000158632
0.000158632
0.000158632
0.000158633
0.000158633
0.000158633
0.000158633
0.000158633
0.000158633
0.000158634
0.000158634
0.000158634
0.000158634
0.000158634
0.000158634
0.000158634
0.000158635
0.000158635
0.000158635
0.000158635
0.000158635
0.000158635
0.000158636
0.000158636
0.000158636
0.000158636
0.000158636
0.000158636
0.000158637
0.000158637
0.000158637
0.000158637
0.000158637
0.000158637
0.000158638
0.000158638
0.000158638
0.000158638
0.000158638
0.000158639
0.000158639
0.000158639
0.000158639
0.00015864
0.00015864
0.000158641
0.000158641
0.000158642
0.000158642
0.000158643
0.000158643
0.00015876
0.000400048
0.000119848
0.000119848
0.000119848
0.000119847
0.000119847
0.000119847
0.000119847
0.000119847
0.000119847
0.000119847
0.000119847
0.000119847
0.000119846
0.000119846
0.000119846
0.000119846
0.000119846
0.000119845
0.000119845
0.000119845
0.000119845
0.000119845
0.000119845
0.000119845
0.000119844
0.000119844
0.000119844
0.000119844
0.000119844
0.000119844
0.000119843
0.000119843
0.000119843
0.000119843
0.000119843
0.000119843
0.000119842
0.000119842
0.000119842
0.000119842
0.000119842
0.000119841
0.000119841
0.000119841
0.000119841
0.000119841
0.000119841
0.00011984
0.00011984
0.00011984
0.00011984
0.00011984
0.00011984
0.000119839
0.000119839
0.000119839
0.000119839
0.000119839
0.000119838
0.000119838
0.000119838
0.000119838
0.000119838
0.000119838
0.000119838
0.000119838
0.000119837
0.000119837
0.000119837
0.000119837
0.000119837
0.000119837
0.000119837
0.000119836
0.000119836
0.000119836
0.000119836
0.000119836
0.000119836
0.000119836
0.000119836
0.000119835
0.000119835
0.000119835
0.000119835
0.000119835
0.000119835
0.000119835
0.000119835
0.000119835
0.000119834
0.000119834
0.000119834
0.000119834
0.000119834
0.000119834
0.000119834
0.000119834
0.000119834
0.000119834
0.000119834
0.000119834
0.000119834
0.000119833
0.000119833
0.000119833
0.000119833
0.000119833
0.000119833
0.000119833
0.000119833
0.000119833
0.000119833
0.000119833
0.000119833
0.000119833
0.000119833
0.000119833
0.000119833
0.000119832
0.000119833
0.000119832
0.000119832
0.000119832
0.000119832
0.000119832
0.000119832
0.000119832
0.000119832
0.000119832
0.000119832
0.000119832
0.000119832
0.000119832
0.000119832
0.000119832
0.000119832
0.000120131
0.000519711
0.000120585
0.000120584
0.000120584
0.000120584
0.000120584
0.000120584
0.000120584
0.000120584
0.000120584
0.000120584
0.000120584
0.000120584
0.000120584
0.000120584
0.000120584
0.000120584
0.000120584
0.000120584
0.000120584
0.000120584
0.000120584
0.000120583
0.000120583
0.000120583
0.000120583
0.000120583
0.000120583
0.000120583
0.000120583
0.000120583
0.000120583
0.000120583
0.000120583
0.000120583
0.000120583
0.000120583
0.000120583
0.000120582
0.000120582
0.000120582
0.000120582
0.000120582
0.000120582
0.000120582
0.000120582
0.000120582
0.000120582
0.000120582
0.000120582
0.000120582
0.000120582
0.000120582
0.000120581
0.000120581
0.000120581
0.000120581
0.000120581
0.000120581
0.000120581
0.000120581
0.000120581
0.000120581
0.000120581
0.000120581
0.000120581
0.000120581
0.000120581
0.000120581
0.000120581
0.000120581
0.00012058
0.00012058
0.00012058
0.00012058
0.00012058
0.00012058
0.00012058
0.00012058
0.00012058
0.00012058
0.00012058
0.00012058
0.00012058
0.00012058
0.00012058
0.00012058
0.00012058
0.00012058
0.00012058
0.00012058
0.00012058
0.00012058
0.00012058
0.000120579
0.000120579
0.000120579
0.000120579
0.000120579
0.000120579
0.000120579
0.000120579
0.000120579
0.000120579
0.000120579
0.000120579
0.000120579
0.000120579
0.000120579
0.000120579
0.000120579
0.000120579
0.000120579
0.000120579
0.000120579
0.000120579
0.000120579
0.000120579
0.000120579
0.000120579
0.000120579
0.000120579
0.000120579
0.000120579
0.000120579
0.000120579
0.000120579
0.000120579
0.000120579
0.000120579
0.000120579
0.000120579
0.000120579
0.000120579
0.000120579
0.000120579
0.000120579
0.000120579
0.00012092
0.00054844
0.000120856
0.000120856
0.000120856
0.000120856
0.000120856
0.000120856
0.000120856
0.000120856
0.000120856
0.000120856
0.000120856
0.000120856
0.000120856
0.000120856
0.000120856
0.000120856
0.000120856
0.000120856
0.000120856
0.000120856
0.000120856
0.000120856
0.000120856
0.000120856
0.000120856
0.000120856
0.000120856
0.000120856
0.000120856
0.000120856
0.000120856
0.000120856
0.000120856
0.000120856
0.000120856
0.000120856
0.000120856
0.000120856
0.000120856
0.000120856
0.000120856
0.000120856
0.000120856
0.000120856
0.000120856
0.000120856
0.000120855
0.000120856
0.000120856
0.000120856
0.000120855
0.000120855
0.000120855
0.000120855
0.000120855
0.000120855
0.000120855
0.000120855
0.000120856
0.000120856
0.000120855
0.000120855
0.000120855
0.000120855
0.000120855
0.000120855
0.000120855
0.000120855
0.000120855
0.000120855
0.000120855
0.000120855
0.000120855
0.000120855
0.000120855
0.000120855
0.000120855
0.000120855
0.000120855
0.000120855
0.000120855
0.000120855
0.000120855
0.000120855
0.000120855
0.000120855
0.000120855
0.000120855
0.000120855
0.000120855
0.000120855
0.000120855
0.000120855
0.000120855
0.000120855
0.000120855
0.000120855
0.000120855
0.000120855
0.000120855
0.000120855
0.000120855
0.000120855
0.000120855
0.000120855
0.000120855
0.000120855
0.000120855
0.000120855
0.000120855
0.000120855
0.000120855
0.000120855
0.000120855
0.000120855
0.000120855
0.000120855
0.000120855
0.000120855
0.000120855
0.000120855
0.000120855
0.000120855
0.000120855
0.000120855
0.000120855
0.000120855
0.000120855
0.000120855
0.000120855
0.000120855
0.000120855
0.000120855
0.000120855
0.000120855
0.000120855
0.000120855
0.000121212
0.000563401
0.000120885
0.000120885
0.000120885
0.000120885
0.000120885
0.000120885
0.000120885
0.000120885
0.000120885
0.000120885
0.000120885
0.000120885
0.000120885
0.000120885
0.000120885
0.000120885
0.000120885
0.000120885
0.000120885
0.000120885
0.000120885
0.000120885
0.000120885
0.000120885
0.000120885
0.000120885
0.000120885
0.000120885
0.000120885
0.000120885
0.000120885
0.000120885
0.000120885
0.000120885
0.000120884
0.000120885
0.000120885
0.000120884
0.000120885