/*--------------------------------*- C++ -*----------------------------------*\
| =========                 |                                                 |
| \\      /  F ield         | OpenFOAM: The Open Source CFD Toolbox           |
|  \\    /   O peration     | Version:  5.x                                   |
|   \\  /    A nd           | Web:      www.OpenFOAM.org                      |
|    \\/     M anipulation  |                                                 |
\*---------------------------------------------------------------------------*/
/*   Windows 32 and 64 bit porting by blueCAPE: http://www.bluecape.com.pt   *\
|  Based on Windows porting (2.0.x v4) by Symscape: http://www.symscape.com   |
\*---------------------------------------------------------------------------*/
FoamFile
{
    version     2.0;
    format      ascii;
    class       volScalarField;
    location    "10";
    object      k;
}
// * * * * * * * * * * * * * * * * * * * * * * * * * * * * * * * * * * * * * //

dimensions      [0 2 -2 0 0 0 0];

internalField   nonuniform List<scalar> 
43900
(
0.000995521
0.000967492
0.000967638
0.000967638
0.000967638
0.000967638
0.000967638
0.000967638
0.000967638
0.000967638
0.000967638
0.000967638
0.000967638
0.000967637
0.000967638
0.000967638
0.000967637
0.000967638
0.000967638
0.000967638
0.000967638
0.000967638
0.000967638
0.000967638
0.000967638
0.000967638
0.000967638
0.000967638
0.000967638
0.00333084
0.000702339
0.000696518
0.000696514
0.000696518
0.000696522
0.000696523
0.000696527
0.000696532
0.000696532
0.000696533
0.000696535
0.000696535
0.000696538
0.000696537
0.000696536
0.000696538
0.000696537
0.000696537
0.000696535
0.000696535
0.000696525
0.000696523
0.000696519
0.000696518
0.000696515
0.000696515
0.000696511
0.00069651
0.00633745
0.00109165
0.00107782
0.00107781
0.00107781
0.00107781
0.00107781
0.00107781
0.00107781
0.00107781
0.00107781
0.00107781
0.00107781
0.00107781
0.00107781
0.00107781
0.00107781
0.00107781
0.00107781
0.00107781
0.0010778
0.0010778
0.0010778
0.00107779
0.00107779
0.00107779
0.00107779
0.00107778
0.00107778
0.00667757
0.00119441
0.00117943
0.0011794
0.0011794
0.0011794
0.0011794
0.0011794
0.0011794
0.0011794
0.0011794
0.0011794
0.0011794
0.0011794
0.0011794
0.0011794
0.0011794
0.0011794
0.0011794
0.0011794
0.0011794
0.0011794
0.0011794
0.0011794
0.0011794
0.0011794
0.0011794
0.0011794
0.0011794
0.00680411
0.00120383
0.00118824
0.00118822
0.00118822
0.00118822
0.00118822
0.00118822
0.00118822
0.00118822
0.00118822
0.00118822
0.00118822
0.00118822
0.00118822
0.00118822
0.00118822
0.00118822
0.00118822
0.00118822
0.00118822
0.00118822
0.00118822
0.00118822
0.00118822
0.00118822
0.00118822
0.00118822
0.00118822
0.00679829
0.0012047
0.00118888
0.00118885
0.00118885
0.00118885
0.00118885
0.00118885
0.00118885
0.00118886
0.00118886
0.00118885
0.00118885
0.00118885
0.00118885
0.00118885
0.00118885
0.00118885
0.00118886
0.00118885
0.00118886
0.00118885
0.00118885
0.00118885
0.00118885
0.00118885
0.00118885
0.00118885
0.00118885
0.00675063
0.00120503
0.00118892
0.0011889
0.00118889
0.0011889
0.00118889
0.0011889
0.00118889
0.0011889
0.00118889
0.00118889
0.00118889
0.0011889
0.00118889
0.0011889
0.00118889
0.00118889
0.00118889
0.0011889
0.00118889
0.00118889
0.00118889
0.0011889
0.00118889
0.00118889
0.00118889
0.0011889
0.00118889
0.00669979
0.00120541
0.00118893
0.0011889
0.00118889
0.0011889
0.0011889
0.0011889
0.00118889
0.0011889
0.00118889
0.00118889
0.00118889
0.0011889
0.00118889
0.0011889
0.00118889
0.00118889
0.00118889
0.0011889
0.00118889
0.00118889
0.00118889
0.0011889
0.00118889
0.00118889
0.00118889
0.0011889
0.00118889
0.0066491
0.00120587
0.00118893
0.0011889
0.00118889
0.0011889
0.0011889
0.0011889
0.0011889
0.0011889
0.00118889
0.0011889
0.00118889
0.0011889
0.00118889
0.0011889
0.00118889
0.00118889
0.00118889
0.0011889
0.00118889
0.00118889
0.00118889
0.0011889
0.00118889
0.00118889
0.00118889
0.0011889
0.00118889
0.00659264
0.00120642
0.00118893
0.0011889
0.0011889
0.0011889
0.0011889
0.0011889
0.0011889
0.0011889
0.0011889
0.0011889
0.0011889
0.0011889
0.0011889
0.0011889
0.0011889
0.0011889
0.0011889
0.0011889
0.0011889
0.0011889
0.0011889
0.0011889
0.0011889
0.0011889
0.00118889
0.0011889
0.00118889
0.0065302
0.00120708
0.00118894
0.0011889
0.0011889
0.0011889
0.0011889
0.0011889
0.0011889
0.0011889
0.0011889
0.0011889
0.0011889
0.0011889
0.0011889
0.0011889
0.0011889
0.0011889
0.0011889
0.0011889
0.0011889
0.0011889
0.0011889
0.0011889
0.0011889
0.0011889
0.0011889
0.0011889
0.00118889
0.00646115
0.00120785
0.00118895
0.0011889
0.0011889
0.0011889
0.0011889
0.0011889
0.0011889
0.0011889
0.0011889
0.0011889
0.0011889
0.0011889
0.0011889
0.0011889
0.0011889
0.0011889
0.0011889
0.0011889
0.0011889
0.0011889
0.0011889
0.0011889
0.0011889
0.0011889
0.0011889
0.0011889
0.0011889
0.00638491
0.00120876
0.00118895
0.00118891
0.00118891
0.00118891
0.00118891
0.00118891
0.00118891
0.00118891
0.00118891
0.00118891
0.00118891
0.00118891
0.0011889
0.00118891
0.00118891
0.00118891
0.00118891
0.00118891
0.0011889
0.00118891
0.00118891
0.00118891
0.0011889
0.00118891
0.00118891
0.0011889
0.00118891
0.00630087
0.00120981
0.00118896
0.00118891
0.00118891
0.00118891
0.00118891
0.00118891
0.00118891
0.00118891
0.00118891
0.00118891
0.00118891
0.00118891
0.00118891
0.00118891
0.00118891
0.00118891
0.00118891
0.00118891
0.00118891
0.00118891
0.00118891
0.00118891
0.00118891
0.00118891
0.00118891
0.0011889
0.00118891
0.00620842
0.00121103
0.00118898
0.00118891
0.00118891
0.00118891
0.00118891
0.00118891
0.00118891
0.00118891
0.00118891
0.00118891
0.00118891
0.00118891
0.00118891
0.00118891
0.00118891
0.00118891
0.00118891
0.00118891
0.00118891
0.00118891
0.00118891
0.00118891
0.00118891
0.00118891
0.00118891
0.00118891
0.00118891
0.00610699
0.00121243
0.00118899
0.00118892
0.00118892
0.00118892
0.00118892
0.00118892
0.00118892
0.00118892
0.00118892
0.00118892
0.00118892
0.00118892
0.00118892
0.00118892
0.00118892
0.00118892
0.00118892
0.00118892
0.00118891
0.00118892
0.00118892
0.00118892
0.00118891
0.00118891
0.00118891
0.00118891
0.00118891
0.00599609
0.00121402
0.00118902
0.00118892
0.00118892
0.00118892
0.00118892
0.00118892
0.00118892
0.00118892
0.00118892
0.00118892
0.00118892
0.00118892
0.00118892
0.00118892
0.00118892
0.00118892
0.00118892
0.00118892
0.00118892
0.00118892
0.00118892
0.00118892
0.00118892
0.00118892
0.00118892
0.00118892
0.00118892
0.00587525
0.00121582
0.00118904
0.00118894
0.00118893
0.00118893
0.00118893
0.00118893
0.00118893
0.00118893
0.00118893
0.00118893
0.00118893
0.00118893
0.00118893
0.00118893
0.00118893
0.00118893
0.00118893
0.00118893
0.00118893
0.00118893
0.00118893
0.00118893
0.00118893
0.00118893
0.00118893
0.00118892
0.00118893
0.00574412
0.00121784
0.00118908
0.00118895
0.00118895
0.00118895
0.00118895
0.00118895
0.00118895
0.00118895
0.00118895
0.00118895
0.00118895
0.00118894
0.00118895
0.00118895
0.00118894
0.00118895
0.00118895
0.00118895
0.00118895
0.00118894
0.00118894
0.00118894
0.00118894
0.00118894
0.00118894
0.00118894
0.00118894
0.00560245
0.00122007
0.00118913
0.00118897
0.00118896
0.00118897
0.00118897
0.00118897
0.00118897
0.00118896
0.00118897
0.00118897
0.00118897
0.00118896
0.00118896
0.00118896
0.00118896
0.00118896
0.00118896
0.00118896
0.00118896
0.00118896
0.00118896
0.00118896
0.00118895
0.00118896
0.00118896
0.00118896
0.00118896
0.00545016
0.00122253
0.00118919
0.00118899
0.00118899
0.00118899
0.00118899
0.00118899
0.00118899
0.00118899
0.00118899
0.00118899
0.00118899
0.00118899
0.00118899
0.00118899
0.00118899
0.00118899
0.00118899
0.00118899
0.00118898
0.00118897
0.00118898
0.00118898
0.00118898
0.00118898
0.00118898
0.00118898
0.00118898
0.00528733
0.00122519
0.00118927
0.00118902
0.00118902
0.00118902
0.00118902
0.00118902
0.00118902
0.00118902
0.00118902
0.00118902
0.00118902
0.00118902
0.00118902
0.00118902
0.00118902
0.00118902
0.00118902
0.00118902
0.00118901
0.00118901
0.00118901
0.00118901
0.00118901
0.00118901
0.00118901
0.00118901
0.001189
0.00511427
0.00122802
0.00118936
0.00118907
0.00118907
0.00118906
0.00118906
0.00118906
0.00118906
0.00118907
0.00118906
0.00118906
0.00118906
0.00118906
0.00118906
0.00118906
0.00118906
0.00118906
0.00118906
0.00118905
0.00118905
0.00118905
0.00118905
0.00118905
0.00118905
0.00118904
0.00118904
0.00118904
0.00118903
0.00493153
0.001231
0.00118949
0.00118913
0.00118912
0.00118912
0.00118912
0.00118912
0.00118912
0.00118912
0.00118912
0.00118912
0.00118912
0.00118912
0.00118912
0.00118911
0.00118911
0.00118911
0.00118911
0.0011891
0.0011891
0.0011891
0.0011891
0.00118909
0.00118909
0.00118909
0.00118908
0.00118908
0.00118907
0.00473988
0.00123408
0.00118964
0.0011892
0.0011892
0.00118919
0.00118919
0.00118919
0.00118919
0.00118919
0.00118919
0.00118919
0.00118919
0.00118919
0.00118919
0.00118918
0.00118918
0.00118918
0.00118917
0.00118917
0.00118917
0.00118916
0.00118916
0.00118916
0.00118915
0.00118914
0.00118914
0.00118913
0.00118913
0.00454045
0.00123718
0.00118983
0.0011893
0.00118929
0.00118929
0.00118929
0.00118929
0.00118929
0.00118929
0.00118929
0.00118928
0.00118928
0.00118928
0.00118927
0.00118927
0.00118927
0.00118926
0.00118926
0.00118925
0.00118925
0.00118925
0.00118924
0.00118924
0.00118923
0.00118922
0.00118921
0.0011892
0.00118919
0.00433455
0.00124022
0.00119006
0.00118942
0.00118941
0.00118941
0.00118941
0.00118941
0.00118941
0.0011894
0.0011894
0.0011894
0.0011894
0.0011894
0.00118939
0.00118939
0.00118938
0.00118937
0.00118937
0.00118937
0.00118936
0.00118935
0.00118935
0.00118933
0.00118933
0.00118932
0.00118931
0.0011893
0.00118928
0.00412384
0.00124311
0.00119034
0.00118958
0.00118956
0.00118956
0.00118956
0.00118956
0.00118956
0.00118956
0.00118956
0.00118955
0.00118955
0.00118954
0.00118954
0.00118953
0.00118952
0.00118952
0.00118952
0.00118951
0.00118949
0.00118948
0.00118948
0.00118946
0.00118946
0.00118944
0.00118943
0.00118942
0.0011894
0.00391015
0.00124575
0.00119067
0.00118977
0.00118975
0.00118975
0.00118975
0.00118975
0.00118975
0.00118975
0.00118974
0.00118974
0.00118974
0.00118973
0.00118972
0.00118971
0.00118971
0.0011897
0.0011897
0.00118969
0.00118967
0.00118966
0.00118965
0.00118963
0.00118961
0.0011896
0.00118958
0.00118956
0.00118954
0.00369551
0.00124802
0.00119105
0.00119001
0.00118998
0.00118998
0.00118998
0.00118998
0.00118998
0.00118997
0.00118997
0.00118997
0.00118997
0.00118996
0.00118996
0.00118995
0.00118994
0.00118993
0.00118992
0.00118992
0.0011899
0.00118987
0.00118985
0.00118984
0.00118981
0.00118979
0.00118978
0.00118975
0.00118972
0.00348208
0.00124982
0.0011915
0.0011903
0.00119026
0.00119026
0.00119026
0.00119026
0.00119025
0.00119025
0.00119025
0.00119025
0.00119025
0.00119025
0.00119024
0.00119023
0.00119022
0.00119021
0.0011902
0.00119019
0.00119017
0.00119014
0.00119011
0.0011901
0.00119008
0.00119005
0.00119003
0.00119
0.00118996
0.00327205
0.00125106
0.001192
0.00119064
0.0011906
0.0011906
0.00119059
0.00119059
0.00119058
0.00119059
0.00119059
0.00119059
0.00119059
0.00119059
0.00119059
0.00119059
0.00119058
0.00119056
0.00119054
0.00119054
0.00119053
0.0011905
0.00119046
0.00119044
0.00119041
0.00119037
0.00119035
0.0011903
0.00119025
0.00306755
0.00125168
0.00119255
0.00119104
0.00119101
0.001191
0.00119098
0.00119099
0.00119099
0.00119101
0.00119101
0.001191
0.00119101
0.001191
0.001191
0.001191
0.001191
0.00119099
0.00119098
0.00119098
0.00119096
0.00119094
0.0011909
0.00119086
0.00119083
0.00119077
0.00119074
0.00119068
0.00119062
0.00287059
0.0012515
0.00119315
0.0011915
0.00119147
0.00119144
0.00119143
0.00119146
0.00119147
0.00119149
0.00119149
0.00119149
0.00119149
0.00119149
0.00119147
0.00119148
0.00119148
0.00119148
0.00119148
0.00119148
0.00119147
0.00119146
0.00119144
0.0011914
0.00119136
0.0011913
0.00119125
0.00119118
0.00119109
0.00268298
0.00125082
0.00119378
0.00119202
0.00119198
0.00119194
0.00119197
0.00119199
0.001192
0.00119201
0.00119203
0.00119205
0.00119207
0.00119209
0.00119209
0.00119208
0.00119209
0.00119209
0.00119209
0.00119209
0.00119209
0.00119208
0.00119207
0.00119205
0.00119201
0.00119194
0.00119189
0.0011918
0.00119169
0.00250621
0.00124939
0.00119444
0.00119259
0.00119254
0.00119252
0.00119255
0.00119258
0.0011926
0.00119262
0.00119265
0.00119268
0.0011927
0.00119274
0.00119277
0.0011928
0.00119283
0.00119284
0.00119284
0.00119284
0.00119283
0.00119283
0.00119283
0.00119282
0.00119278
0.00119272
0.00119266
0.00119257
0.00119244
0.00234147
0.00124723
0.00119512
0.00119322
0.00119314
0.00119316
0.00119319
0.00119323
0.00119326
0.0011933
0.00119334
0.00119339
0.00119344
0.00119349
0.00119354
0.00119359
0.00119364
0.00119369
0.00119375
0.00119377
0.00119377
0.00119376
0.00119373
0.00119374
0.00119374
0.00119372
0.00119367
0.00119358
0.0011934
0.00218958
0.00124454
0.00119579
0.00119389
0.00119379
0.00119383
0.00119388
0.00119393
0.00119398
0.00119404
0.00119411
0.00119418
0.00119426
0.00119434
0.00119442
0.0011945
0.00119459
0.00119466
0.00119474
0.00119483
0.00119489
0.0011949
0.00119489
0.0011949
0.00119489
0.00119488
0.00119485
0.00119478
0.0011946
0.002051
0.00124141
0.00119645
0.00119458
0.00119447
0.00119453
0.0011946
0.00119467
0.00119475
0.00119484
0.00119494
0.00119504
0.00119516
0.00119528
0.00119541
0.00119554
0.00119566
0.00119579
0.00119591
0.00119604
0.00119615
0.00119628
0.00119632
0.00119632
0.0011963
0.0011963
0.0011963
0.00119626
0.00119606
0.00192585
0.00123794
0.00119708
0.00119528
0.00119518
0.00119526
0.00119535
0.00119544
0.00119555
0.00119567
0.00119581
0.00119596
0.00119612
0.0011963
0.00119648
0.00119667
0.00119687
0.00119707
0.00119726
0.00119746
0.00119765
0.00119783
0.00119799
0.00119814
0.00119811
0.00119812
0.00119813
0.00119809
0.001198
0.00181392
0.00123427
0.00119767
0.00119598
0.00119589
0.00119599
0.0011961
0.00119623
0.00119637
0.00119653
0.00119671
0.00119692
0.00119714
0.00119738
0.00119764
0.00119791
0.0011982
0.00119849
0.0011988
0.00119909
0.00119938
0.0011997
0.00119992
0.00120014
0.00120035
0.00120027
0.0012003
0.00120029
0.00120012
0.00171479
0.00123051
0.00119822
0.00119665
0.0011966
0.00119671
0.00119685
0.00119701
0.00119719
0.0011974
0.00119763
0.00119789
0.00119819
0.00119851
0.00119885
0.00119923
0.00119963
0.00120004
0.0012005
0.00120093
0.00120139
0.0012018
0.00120227
0.00120264
0.00120274
0.00120311
0.00120304
0.00120303
0.00120313
0.0016278
0.00122678
0.00119871
0.0011973
0.00119728
0.00119741
0.00119758
0.00119778
0.001198
0.00119825
0.00119855
0.00119888
0.00119925
0.00119966
0.00120011
0.00120061
0.00120114
0.00120173
0.00120233
0.001203
0.00120358
0.00120433
0.00120487
0.00120549
0.00120614
0.00120603
0.00120662
0.00120683
0.00120616
0.00155215
0.00122318
0.00119915
0.00119792
0.00119793
0.00119808
0.00119828
0.00119851
0.00119877
0.00119908
0.00119944
0.00119984
0.0012003
0.00120081
0.00120138
0.00120201
0.0012027
0.00120347
0.0012043
0.00120518
0.00120619
0.00120693
0.00120812
0.00120899
0.00120935
0.00121063
0.00121065
0.00121057
0.00121159
0.00148695
0.00121979
0.00119954
0.00119849
0.00119853
0.0011987
0.00119893
0.0011992
0.00119951
0.00119987
0.00120029
0.00120077
0.00120131
0.00120193
0.00120263
0.00120341
0.00120429
0.00120528
0.00120634
0.00120758
0.00120874
0.0012103
0.00121138
0.00121273
0.00121461
0.00121456
0.00121591
0.00121716
0.00121597
0.00143125
0.00121666
0.00119988
0.00119901
0.00119908
0.00119928
0.00119953
0.00119984
0.00120019
0.00120061
0.00120109
0.00120165
0.00120228
0.00120301
0.00120384
0.00120479
0.00120586
0.00120709
0.00120846
0.00120997
0.00121176
0.0012134
0.0012154
0.00121771
0.00121858
0.00122175
0.00122166
0.00122266
0.00122528
0.0013841
0.00121384
0.00120017
0.00119948
0.00119957
0.00119979
0.00120008
0.00120041
0.00120081
0.00120127
0.00120182
0.00120245
0.00120318
0.00120402
0.00120498
0.00120609
0.00120738
0.00120883
0.00121057
0.00121242
0.00121472
0.0012169
0.00122007
0.001222
0.00122599
0.00122675
0.00123174
0.00123079
0.00123144
0.00134457
0.00121135
0.00120041
0.00119989
0.0012
0.00120025
0.00120056
0.00120092
0.00120136
0.00120187
0.00120247
0.00120318
0.00120399
0.00120494
0.00120604
0.00120732
0.00120878
0.00121061
0.00121238
0.00121524
0.00121713
0.0012213
0.00122403
0.00122783
0.00123158
0.00123859
0.00123812
0.00124397
0.00124426
0.00131175
0.00120918
0.00120062
0.00120025
0.00120038
0.00120065
0.00120097
0.00120137
0.00120184
0.0012024
0.00120305
0.00120382
0.00120471
0.00120576
0.00120699
0.0012084
0.00121018
0.00121195
0.0012148
0.00121672
0.0012212
0.00122408
0.00122801
0.0012362
0.00123947
0.00124317
0.00125462
0.00125464
0.00125963
0.00128481
0.00120733
0.0012008
0.00120055
0.00120069
0.00120098
0.00120133
0.00120175
0.00120225
0.00120285
0.00120355
0.00120438
0.00120534
0.00120648
0.00120782
0.00120944
0.00121119
0.00121379
0.00121572
0.00122007
0.0012228
0.00122762
0.00123583
0.00123923
0.00124859
0.00125691
0.00126304
0.00127759
0.0012768
0.00126298
0.00120579
0.00120094
0.00120079
0.00120096
0.00120126
0.00120163
0.00120207
0.0012026
0.00120323
0.00120397
0.00120485
0.00120588
0.0012071
0.00120856
0.0012102
0.00121246
0.0012144
0.00121828
0.00122078
0.00122616
0.00123221
0.0012366
0.00124798
0.00125719
0.00126758
0.0012821
0.00129011
0.00131071
0.00124554
0.00120452
0.00120104
0.00120099
0.00120117
0.00120149
0.00120187
0.00120233
0.00120289
0.00120354
0.00120432
0.00120524
0.00120633
0.00120762
0.00120914
0.00121101
0.00121304
0.00121609
0.00121856
0.00122349
0.00122821
0.00123261
0.00124465
0.00125127
0.0012667
0.00128355
0.00129612
0.0013222
0.00133165
0.00123185
0.00120351
0.00120113
0.00120114
0.00120135
0.00120168
0.00120207
0.00120255
0.00120312
0.0012038
0.00120461
0.00120556
0.0012067
0.00120804
0.00120967
0.00121149
0.00121407
0.00121631
0.00122054
0.001224
0.00122941
0.00123796
0.00124424
0.00126041
0.00127171
0.00129961
0.00131902
0.00134142
0.00138561
0.00122136
0.00120272
0.0012012
0.00120126
0.00120149
0.00120182
0.00120222
0.00120271
0.0012033
0.001204
0.00120483
0.00120581
0.00120698
0.00120837
0.00121006
0.00121196
0.00121466
0.00121691
0.0012218
0.00122464
0.00123304
0.00123735
0.00125174
0.00126009
0.00128539
0.00130377
0.00136304
0.00138222
0.0014247
0.00121354
0.00120213
0.00120125
0.00120135
0.0012016
0.00120193
0.00120234
0.00120284
0.00120343
0.00120415
0.001205
0.00120601
0.0012072
0.00120864
0.00121033
0.00121243
0.00121481
0.00121813
0.00122116
0.00122752
0.0012322
0.0012391
0.00125483
0.00126404
0.0012869
0.0013149
0.00136097
0.00146364
0.00152866
0.00120796
0.0012017
0.00120129
0.00120141
0.00120167
0.001202
0.00120241
0.00120291
0.00120351
0.00120423
0.00120509
0.0012061
0.00120731
0.00120876
0.00121052
0.00121245
0.00121551
0.00121763
0.00122308
0.00122652
0.00123381
0.00124051
0.00125567
0.00126557
0.00129344
0.00131869
0.00137935
0.00145869
0.00167251
0.00120427
0.00120143
0.00120133
0.00120148
0.00120177
0.00120212
0.00120255
0.00120308
0.00120373
0.0012045
0.00120542
0.00120652
0.00120783
0.00120943
0.0012113
0.00121362
0.00121663
0.0012198
0.00122452
0.00123066
0.00123828
0.00124584
0.00126361
0.0012788
0.00131529
0.00134864
0.00144855
0.00154214
0.00201642
0.00120194
0.00120163
0.00120237
0.00120382
0.00120583
0.00120858
0.00121226
0.00121713
0.00122356
0.00123207
0.00124336
0.00125845
0.00127873
0.00130624
0.00134424
0.00139422
0.00147687
0.00155329
0.00176471
0.00190909
0.00232905
0.00266209
0.0037773
0.00452215
0.00730394
0.00935637
0.0180584
0.0224753
0.0339484
0.00120468
0.00123983
0.00131586
0.00143497
0.00160415
0.0018336
0.00213674
0.00253115
0.00303982
0.0036924
0.00452761
0.00559549
0.00696285
0.00870922
0.0109865
0.0137869
0.0179891
0.0217229
0.0307978
0.0365013
0.0516326
0.0628098
0.0935698
0.114295
0.176083
0.222883
0.375609
0.472992
0.738653
0.000967638
0.000967638
0.000967639
0.000967639
0.000967639
0.000967639
0.000967639
0.000967639
0.000967639
0.00096764
0.00096764
0.00096764
0.00096764
0.00096764
0.00096764
0.00096764
0.000967641
0.000967641
0.000967641
0.000967641
0.000967641
0.000967642
0.000967642
0.000967642
0.000967642
0.000967642
0.000967643
0.000967643
0.000967643
0.000967643
0.000967643
0.000967644
0.000967644
0.000967644
0.000967644
0.000967644
0.000967645
0.000967645
0.000967645
0.000967645
0.000967645
0.000967646
0.000967646
0.000967646
0.000967646
0.000967647
0.000967647
0.000967647
0.000967647
0.000967647
0.000967647
0.000967648
0.000967648
0.000967648
0.000967648
0.000967648
0.000967649
0.000967649
0.000967649
0.000967649
0.000967649
0.000967649
0.00096765
0.00096765
0.00096765
0.00096765
0.00096765
0.00096765
0.000967651
0.000967651
0.000967651
0.000967651
0.000967651
0.000967651
0.000967652
0.000967652
0.000967652
0.000967652
0.000967652
0.000967652
0.000967652
0.000967652
0.000967653
0.000967653
0.000967653
0.000967653
0.000967653
0.000967653
0.000967653
0.000967653
0.000967654
0.000967654
0.000967654
0.000967654
0.000967654
0.000967654
0.000967654
0.000967654
0.000967654
0.000967654
0.000967654
0.000967655
0.000967655
0.000967655
0.000967655
0.000967655
0.000967655
0.000967655
0.000967655
0.000967655
0.000967655
0.000967655
0.000967655
0.000967656
0.000967655
0.000967656
0.000967656
0.000967656
0.000967656
0.000967656
0.000967656
0.000967656
0.000967656
0.000967656
0.000967656
0.000967656
0.000967656
0.000967656
0.000967656
0.000967656
0.000967657
0.000967656
0.000967657
0.000967657
0.000967657
0.000967657
0.000967657
0.00096764
0.000979239
0.000696504
0.000696497
0.00069649
0.000696485
0.000696482
0.000696476
0.00069647
0.000696464
0.000696457
0.00069645
0.000696443
0.000696436
0.000696428
0.000696421
0.000696413
0.000696404
0.000696396
0.000696385
0.000696379
0.00069637
0.000696362
0.000696352
0.000696342
0.000696334
0.000696324
0.000696315
0.000696305
0.000696295
0.000696286
0.000696276
0.000696266
0.000696255
0.000696246
0.000696236
0.000696226
0.000696216
0.000696207
0.000696196
0.000696188
0.000696176
0.000696166
0.000696156
0.000696147
0.000696134
0.000696126
0.000696114
0.000696106
0.000696096
0.000696086
0.000696077
0.000696068
0.000696058
0.000696049
0.00069604
0.000696031
0.000696021
0.000696012
0.000696003
0.000695992
0.000695984
0.000695976
0.000695969
0.00069596
0.000695951
0.000695943
0.000695935
0.000695925
0.000695919
0.00069591
0.000695903
0.000695895
0.000695888
0.000695881
0.000695873
0.000695866
0.000695859
0.000695851
0.000695845
0.000695838
0.000695831
0.000695825
0.000695819
0.000695813
0.000695804
0.0006958
0.000695794
0.00069579
0.000695783
0.000695777
0.000695771
0.000695766
0.000695759
0.000695756
0.000695749
0.000695746
0.000695741
0.000695738
0.000695732
0.000695727
0.000695723
0.000695718
0.000695713
0.00069571
0.000695706
0.000695702
0.000695698
0.000695692
0.00069569
0.000695687
0.000695683
0.00069568
0.000695678
0.000695673
0.000695667
0.000695666
0.000695662
0.00069566
0.000695657
0.000695654
0.000695648
0.000695647
0.000695643
0.000695641
0.000695637
0.000695632
0.00069563
0.000695628
0.000695624
0.000695618
0.000695617
0.000695611
0.000695609
0.000695602
0.000695599
0.000695594
0.000695589
0.000695581
0.000696365
0.00174621
0.00107777
0.00107777
0.00107776
0.00107776
0.00107775
0.00107775
0.00107774
0.00107773
0.00107773
0.00107772
0.00107771
0.0010777
0.0010777
0.00107769
0.00107768
0.00107767
0.00107766
0.00107765
0.00107764
0.00107764
0.00107763
0.00107762
0.00107761
0.0010776
0.00107759
0.00107758
0.00107757
0.00107756
0.00107755
0.00107754
0.00107753
0.00107752
0.00107751
0.0010775
0.00107749
0.00107748
0.00107747
0.00107746
0.00107745
0.00107744
0.00107743
0.00107742
0.00107741
0.0010774
0.00107739
0.00107738
0.00107737
0.00107736
0.00107735
0.00107734
0.00107733
0.00107732
0.00107731
0.0010773
0.00107729
0.00107728
0.00107727
0.00107726
0.00107725
0.00107725
0.00107724
0.00107723
0.00107722
0.00107721
0.0010772
0.0010772
0.00107719
0.00107718
0.00107717
0.00107716
0.00107716
0.00107715
0.00107714
0.00107713
0.00107713
0.00107712
0.00107711
0.00107711
0.0010771
0.00107709
0.00107709
0.00107708
0.00107707
0.00107707
0.00107706
0.00107706
0.00107705
0.00107704
0.00107704
0.00107703
0.00107703
0.00107702
0.00107702
0.00107701
0.00107701
0.001077
0.001077
0.00107699
0.00107699
0.00107699
0.00107698
0.00107698
0.00107697
0.00107697
0.00107696
0.00107696
0.00107696
0.00107695
0.00107695
0.00107695
0.00107694
0.00107694
0.00107694
0.00107693
0.00107693
0.00107693
0.00107692
0.00107692
0.00107692
0.00107691
0.00107691
0.00107691
0.00107691
0.0010769
0.0010769
0.0010769
0.0010769
0.0010769
0.00107689
0.00107689
0.00107689
0.00107688
0.00107688
0.00107688
0.00107687
0.00107687
0.00107687
0.00107921
0.00336326
0.0011794
0.00117939
0.00117939
0.00117939
0.00117939
0.00117939
0.00117939
0.00117939
0.00117939
0.00117939
0.00117938
0.00117938
0.00117938
0.00117938
0.00117938
0.00117938
0.00117937
0.00117937
0.00117937
0.00117937
0.00117937
0.00117937
0.00117936
0.00117936
0.00117936
0.00117936
0.00117936
0.00117936
0.00117935
0.00117935
0.00117935
0.00117935
0.00117935
0.00117934
0.00117934
0.00117934
0.00117934
0.00117934
0.00117933
0.00117933
0.00117933
0.00117933
0.00117933
0.00117933
0.00117932
0.00117932
0.00117932
0.00117932
0.00117932
0.00117931
0.00117931
0.00117931
0.00117931
0.00117931
0.00117931
0.0011793
0.0011793
0.0011793
0.0011793
0.0011793
0.0011793
0.00117929
0.00117929
0.00117929
0.00117929
0.00117929
0.00117929
0.00117929
0.00117928
0.00117928
0.00117928
0.00117928
0.00117928
0.00117928
0.00117928
0.00117927
0.00117927
0.00117927
0.00117927
0.00117927
0.00117927
0.00117927
0.00117927
0.00117926
0.00117926
0.00117926
0.00117926
0.00117926
0.00117926
0.00117926
0.00117926
0.00117926
0.00117926
0.00117925
0.00117925
0.00117925
0.00117925
0.00117925
0.00117925
0.00117925
0.00117925
0.00117925
0.00117925
0.00117925
0.00117925
0.00117925
0.00117924
0.00117924
0.00117924
0.00117924
0.00117924
0.00117924
0.00117924
0.00117924
0.00117924
0.00117924
0.00117924
0.00117924
0.00117924
0.00117924
0.00117924
0.00117924
0.00117924
0.00117924
0.00117923
0.00117923
0.00117923
0.00117923
0.00117923
0.00117923
0.00117923
0.00117923
0.00117923
0.00117923
0.00117923
0.00117923
0.00117923
0.00118198
0.00360844
0.00118822
0.00118822
0.00118821
0.00118821
0.00118821
0.00118821
0.00118821
0.00118821
0.00118821
0.00118821
0.00118821
0.00118821
0.00118821
0.00118821
0.00118821
0.00118821
0.00118821
0.00118821
0.00118821
0.00118821
0.00118821
0.00118821
0.00118821
0.00118821
0.00118821
0.00118821
0.00118821
0.00118821
0.00118821
0.00118821
0.00118821
0.00118821
0.00118821
0.00118821
0.00118821
0.00118821
0.00118821
0.00118821
0.00118821
0.00118821
0.00118821
0.00118821
0.00118821
0.00118821
0.00118821
0.00118821
0.00118821
0.00118821
0.00118821
0.00118821
0.00118821
0.00118821
0.00118821
0.00118821
0.0011882
0.00118821
0.0011882
0.00118821
0.0011882
0.0011882
0.0011882
0.0011882
0.0011882
0.0011882
0.0011882
0.0011882
0.0011882
0.0011882
0.0011882
0.0011882
0.0011882
0.0011882
0.0011882
0.0011882
0.0011882
0.0011882
0.0011882
0.0011882
0.0011882
0.0011882
0.0011882
0.0011882
0.0011882
0.0011882
0.0011882
0.0011882
0.0011882
0.0011882
0.0011882
0.0011882
0.0011882
0.0011882
0.0011882
0.0011882
0.0011882
0.0011882
0.0011882
0.0011882
0.0011882
0.0011882
0.0011882
0.0011882
0.0011882
0.0011882
0.0011882
0.0011882
0.0011882
0.0011882
0.0011882
0.0011882
0.0011882
0.0011882
0.0011882
0.0011882
0.0011882
0.0011882
0.0011882
0.0011882
0.0011882
0.0011882
0.0011882
0.0011882
0.0011882
0.0011882
0.0011882
0.0011882
0.0011882
0.0011882
0.0011882
0.0011882
0.0011882
0.0011882
0.0011882
0.0011882
0.0011882
0.0011882
0.0011882
0.00119106
0.00369331
0.00118885
0.00118886
0.00118885
0.00118885
0.00118885
0.00118886
0.00118885
0.00118886
0.00118885
0.00118886
0.00118885
0.00118886
0.00118885
0.00118885
0.00118885
0.00118885
0.00118885
0.00118885
0.00118885
0.00118886
0.00118885
0.00118885
0.00118885
0.00118885
0.00118886
0.00118886
0.00118885
0.00118885
0.00118886
0.00118885
0.00118886
0.00118885
0.00118886
0.00118885
0.00118886
0.00118886
0.00118886
0.00118885
0.00118885
0.00118886
0.00118885
0.00118885
0.00118886
0.00118886
0.00118886
0.00118886
0.00118885
0.00118886
0.00118885
0.00118885
0.00118886
0.00118886
0.00118885
0.00118886
0.00118885
0.00118886
0.00118886
0.00118886
0.00118885
0.00118886
0.00118885
0.00118886
0.00118885
0.00118886
0.00118885
0.00118886
0.00118885
0.00118886
0.00118885
0.00118886
0.00118885
0.00118886
0.00118885
0.00118885
0.00118885
0.00118885
0.00118885
0.00118886
0.00118885
0.00118885
0.00118885
0.00118886
0.00118885
0.00118886
0.00118885
0.00118885
0.00118885
0.00118885
0.00118885
0.00118885
0.00118885
0.00118886
0.00118885
0.00118886
0.00118886
0.00118886
0.00118885
0.00118885
0.00118885
0.00118885
0.00118885
0.00118886
0.00118885
0.00118886
0.00118885
0.00118886
0.00118885
0.00118885
0.00118885
0.00118885
0.00118885
0.00118886
0.00118885
0.00118886
0.00118885
0.00118885
0.00118885
0.00118885
0.00118886
0.00118885
0.00118885
0.00118885
0.00118885
0.00118886
0.00118885
0.00118886
0.00118885
0.00118885
0.00118885
0.00118885
0.00118885
0.00118885
0.00118885
0.00118885
0.00118885
0.00118886
0.00118886
0.00119174
0.00371532
0.0011889
0.00118889
0.00118889
0.00118889
0.00118889
0.00118889
0.00118889
0.00118889
0.00118889
0.00118889
0.00118889
0.00118889
0.00118889
0.00118889
0.00118889
0.0011889
0.00118889
0.0011889
0.00118889
0.00118889
0.00118889
0.0011889
0.00118889
0.00118889
0.00118889
0.0011889
0.00118889
0.0011889
0.0011889
0.00118889
0.0011889
0.0011889
0.0011889
0.00118889
0.0011889
0.0011889
0.0011889
0.0011889
0.0011889
0.0011889
0.00118889
0.0011889
0.0011889
0.0011889
0.0011889
0.0011889
0.0011889
0.0011889
0.00118889
0.0011889
0.0011889
0.0011889
0.0011889
0.0011889
0.00118889
0.0011889
0.0011889
0.0011889
0.00118889
0.0011889
0.0011889
0.0011889
0.0011889
0.0011889
0.0011889
0.0011889
0.00118889
0.0011889
0.00118889
0.0011889
0.0011889
0.0011889
0.0011889
0.0011889
0.0011889
0.0011889
0.0011889
0.0011889
0.00118889
0.0011889
0.0011889
0.0011889
0.0011889
0.0011889
0.0011889
0.0011889
0.0011889
0.0011889
0.0011889
0.0011889
0.0011889
0.0011889
0.0011889
0.0011889
0.0011889
0.0011889
0.0011889
0.0011889
0.0011889