/*--------------------------------*- C++ -*----------------------------------*\
| =========                 |                                                 |
| \\      /  F ield         | OpenFOAM: The Open Source CFD Toolbox           |
|  \\    /   O peration     | Version:  5.x                                   |
|   \\  /    A nd           | Web:      www.OpenFOAM.org                      |
|    \\/     M anipulation  |                                                 |
\*---------------------------------------------------------------------------*/
/*   Windows 32 and 64 bit porting by blueCAPE: http://www.bluecape.com.pt   *\
|  Based on Windows porting (2.0.x v4) by Symscape: http://www.symscape.com   |
\*---------------------------------------------------------------------------*/
FoamFile
{
    version     2.0;
    format      ascii;
    class       volScalarField;
    location    "10";
    object      nut;
}
// * * * * * * * * * * * * * * * * * * * * * * * * * * * * * * * * * * * * * //

dimensions      [0 2 -1 0 0 0 0];

internalField   nonuniform List<scalar> 
43900
(
5.81446e-005
5.60762e-005
5.60892e-005
5.60892e-005
5.60892e-005
5.60892e-005
5.60892e-005
5.60892e-005
5.60892e-005
5.60892e-005
5.60892e-005
5.60892e-005
5.60892e-005
5.60892e-005
5.60892e-005
5.60892e-005
5.60892e-005
5.60892e-005
5.60892e-005
5.60892e-005
5.60892e-005
5.60892e-005
5.60892e-005
5.60892e-005
5.60892e-005
5.60892e-005
5.60892e-005
5.60892e-005
5.60892e-005
0.00121256
0.000278166
0.000275276
0.000275275
0.000275278
0.000275282
0.000275284
0.000275288
0.000275291
0.000275293
0.000275294
0.000275296
0.000275297
0.000275299
0.000275298
0.000275298
0.000275299
0.000275299
0.000275299
0.000275298
0.000275298
0.000275289
0.000275288
0.000275286
0.000275285
0.000275283
0.000275282
0.000275279
0.000275278
0.00305074
0.000879671
0.000872361
0.000872349
0.000872352
0.000872355
0.000872355
0.000872358
0.000872361
0.000872361
0.000872361
0.000872362
0.000872361
0.000872362
0.00087236
0.000872357
0.000872357
0.000872355
0.000872353
0.00087235
0.000872347
0.000872341
0.000872337
0.000872332
0.000872329
0.000872324
0.00087232
0.000872315
0.000872309
0.00323784
0.00104574
0.0010382
0.00103819
0.00103819
0.00103819
0.00103819
0.00103819
0.00103819
0.00103819
0.00103819
0.00103819
0.00103819
0.00103819
0.00103819
0.00103818
0.00103818
0.00103818
0.00103818
0.00103818
0.00103818
0.00103818
0.00103818
0.00103818
0.00103818
0.00103818
0.00103818
0.00103818
0.00103818
0.00328894
0.00105909
0.00105141
0.00105139
0.00105139
0.00105139
0.00105139
0.00105139
0.00105139
0.00105139
0.00105139
0.00105139
0.00105139
0.00105139
0.00105139
0.00105139
0.00105139
0.00105139
0.00105139
0.00105139
0.00105139
0.00105139
0.00105139
0.00105139
0.00105139
0.00105139
0.00105139
0.00105139
0.00105139
0.00328733
0.00105999
0.00105229
0.00105227
0.00105227
0.00105227
0.00105227
0.00105227
0.00105227
0.00105227
0.00105227
0.00105227
0.00105227
0.00105227
0.00105227
0.00105227
0.00105227
0.00105227
0.00105227
0.00105227
0.00105227
0.00105227
0.00105227
0.00105227
0.00105227
0.00105227
0.00105227
0.00105227
0.00105227
0.00327166
0.00106008
0.00105234
0.00105232
0.00105232
0.00105232
0.00105232
0.00105232
0.00105232
0.00105232
0.00105232
0.00105232
0.00105232
0.00105232
0.00105232
0.00105232
0.00105232
0.00105232
0.00105232
0.00105232
0.00105232
0.00105232
0.00105232
0.00105232
0.00105232
0.00105231
0.00105232
0.00105232
0.00105232
0.00325501
0.00106014
0.00105235
0.00105232
0.00105232
0.00105232
0.00105232
0.00105232
0.00105232
0.00105232
0.00105232
0.00105232
0.00105232
0.00105232
0.00105232
0.00105232
0.00105232
0.00105232
0.00105232
0.00105232
0.00105232
0.00105232
0.00105232
0.00105232
0.00105232
0.00105232
0.00105232
0.00105232
0.00105232
0.0032383
0.00106021
0.00105235
0.00105232
0.00105231
0.00105232
0.00105232
0.00105232
0.00105232
0.00105232
0.00105231
0.00105232
0.00105231
0.00105232
0.00105231
0.00105232
0.00105231
0.00105231
0.00105231
0.00105232
0.00105231
0.00105231
0.00105231
0.00105232
0.00105231
0.00105232
0.00105231
0.00105232
0.00105231
0.00321966
0.0010603
0.00105235
0.00105232
0.00105232
0.00105232
0.00105232
0.00105232
0.00105232
0.00105232
0.00105232
0.00105232
0.00105232
0.00105232
0.00105232
0.00105232
0.00105232
0.00105232
0.00105232
0.00105232
0.00105232
0.00105232
0.00105232
0.00105232
0.00105232
0.00105232
0.00105231
0.00105231
0.00105231
0.003199
0.00106042
0.00105235
0.00105232
0.00105232
0.00105232
0.00105232
0.00105232
0.00105232
0.00105232
0.00105232
0.00105232
0.00105232
0.00105232
0.00105232
0.00105231
0.00105231
0.00105232
0.00105232
0.00105232
0.00105232
0.00105232
0.00105232
0.00105232
0.00105232
0.00105232
0.00105232
0.00105231
0.00105231
0.0031761
0.00106056
0.00105235
0.00105232
0.00105232
0.00105232
0.00105232
0.00105232
0.00105232
0.00105232
0.00105232
0.00105232
0.00105232
0.00105232
0.00105232
0.00105232
0.00105231
0.00105232
0.00105232
0.00105232
0.00105231
0.00105232
0.00105232
0.00105232
0.00105232
0.00105233
0.00105232
0.00105232
0.00105232
0.00315073
0.00106074
0.00105235
0.00105232
0.00105232
0.00105232
0.00105232
0.00105232
0.00105232
0.00105232
0.00105232
0.00105232
0.00105232
0.00105232
0.00105232
0.00105232
0.00105232
0.00105232
0.00105232
0.00105232
0.00105232
0.00105232
0.00105232
0.00105232
0.00105232
0.00105232
0.00105232
0.00105232
0.00105233
0.00312267
0.00106096
0.00105235
0.00105232
0.00105232
0.00105232
0.00105232
0.00105232
0.00105232
0.00105232
0.00105232
0.00105232
0.00105232
0.00105232
0.00105232
0.00105232
0.00105232
0.00105232
0.00105232
0.00105232
0.00105232
0.00105232
0.00105232
0.00105232
0.00105232
0.00105232
0.00105232
0.00105231
0.00105233
0.00309168
0.00106123
0.00105236
0.00105232
0.00105232
0.00105232
0.00105232
0.00105232
0.00105232
0.00105232
0.00105232
0.00105232
0.00105232
0.00105232
0.00105232
0.00105232
0.00105232
0.00105232
0.00105232
0.00105232
0.00105231
0.00105232
0.00105232
0.00105232
0.00105231
0.00105232
0.00105232
0.00105231
0.00105232
0.00305754
0.00106155
0.00105236
0.00105232
0.00105231
0.00105232
0.00105232
0.00105232
0.00105232
0.00105232
0.00105232
0.00105232
0.00105232
0.00105232
0.00105232
0.00105232
0.00105231
0.00105232
0.00105232
0.00105232
0.00105231
0.00105232
0.00105232
0.00105231
0.00105231
0.00105232
0.00105231
0.00105231
0.00105231
0.00302003
0.00106195
0.00105237
0.00105232
0.00105232
0.00105232
0.00105232
0.00105232
0.00105232
0.00105232
0.00105231
0.00105232
0.00105232
0.00105232
0.00105232
0.00105232
0.00105232
0.00105232
0.00105232
0.00105231
0.00105231
0.00105232
0.00105232
0.00105232
0.00105232
0.00105232
0.00105231
0.00105231
0.00105231
0.00297895
0.00106243
0.00105238
0.00105232
0.00105232
0.00105232
0.00105232
0.00105232
0.00105232
0.00105232
0.00105232
0.00105232
0.00105232
0.00105232
0.00105232
0.00105232
0.00105232
0.00105232
0.00105232
0.00105231
0.00105231
0.00105232
0.00105232
0.00105232
0.00105232
0.00105232
0.00105231
0.0010523
0.00105231
0.0029341
0.00106299
0.00105239
0.00105232
0.00105232
0.00105232
0.00105232
0.00105233
0.00105232
0.00105232
0.00105232
0.00105232
0.00105232
0.00105232
0.00105232
0.00105232
0.00105232
0.00105232
0.00105232
0.00105232
0.00105232
0.00105232
0.00105232
0.00105232
0.00105232
0.00105232
0.00105232
0.00105231
0.00105231
0.00288532
0.00106367
0.00105241
0.00105233
0.00105233
0.00105233
0.00105233
0.00105233
0.00105233
0.00105233
0.00105233
0.00105233
0.00105233
0.00105233
0.00105233
0.00105233
0.00105233
0.00105233
0.00105233
0.00105233
0.00105232
0.00105231
0.00105233
0.00105232
0.00105232
0.00105233
0.00105232
0.00105232
0.00105232
0.00283249
0.00106445
0.00105244
0.00105234
0.00105233
0.00105233
0.00105233
0.00105234
0.00105234
0.00105234
0.00105234
0.00105234
0.00105235
0.00105234
0.00105234
0.00105234
0.00105235
0.00105234
0.00105234
0.00105234
0.00105233
0.00105231
0.00105233
0.00105233
0.00105233
0.00105234
0.00105233
0.00105233
0.00105233
0.00277554
0.00106537
0.00105247
0.00105235
0.00105235
0.00105234
0.00105234
0.00105235
0.00105235
0.00105235
0.00105235
0.00105235
0.00105236
0.00105235
0.00105235
0.00105235
0.00105236
0.00105235
0.00105235
0.00105235
0.00105234
0.00105233
0.00105234
0.00105234
0.00105235
0.00105235
0.00105235
0.00105234
0.00105234
0.00271447
0.00106642
0.00105252
0.00105237
0.00105236
0.00105236
0.00105236
0.00105237
0.00105237
0.00105237
0.00105237
0.00105238
0.00105237
0.00105237
0.00105237
0.00105237
0.00105238
0.00105236
0.00105236
0.00105236
0.00105236
0.00105235
0.00105235
0.00105235
0.00105236
0.00105235
0.00105235
0.00105235
0.00105234
0.00264932
0.0010676
0.00105257
0.00105239
0.00105239
0.00105239
0.00105239
0.00105239
0.0010524
0.0010524
0.0010524
0.0010524
0.0010524
0.00105239
0.0010524
0.00105239
0.00105239
0.00105238
0.00105237
0.00105237
0.00105237
0.00105237
0.00105236
0.00105236
0.00105237
0.00105236
0.00105236
0.00105235
0.00105234
0.00258025
0.00106892
0.00105264
0.00105243
0.00105242
0.00105242
0.00105242
0.00105243
0.00105243
0.00105244
0.00105243
0.00105243
0.00105243
0.00105242
0.00105243
0.00105242
0.00105242
0.00105241
0.0010524
0.00105239
0.00105239
0.00105239
0.00105239
0.00105239
0.0010524
0.00105238
0.00105238
0.00105236
0.00105235
0.00250749
0.00107036
0.00105273
0.00105247
0.00105247
0.00105247
0.00105248
0.00105249
0.00105248
0.00105248
0.00105247
0.00105247
0.00105248
0.00105247
0.00105246
0.00105247
0.00105247
0.00105246
0.00105244
0.00105244
0.00105244
0.00105244
0.00105243
0.00105243
0.00105244
0.00105241
0.0010524
0.00105238
0.00105236
0.00243139
0.00107189
0.00105285
0.00105253
0.00105253
0.00105254
0.00105254
0.00105254
0.00105253
0.00105253
0.00105253
0.00105253
0.00105254
0.00105253
0.00105251
0.00105252
0.00105251
0.00105249
0.00105251
0.0010525
0.00105251
0.00105248
0.00105248
0.00105246
0.00105247
0.00105245
0.00105243
0.00105241
0.00105239
0.00235238
0.00107349
0.00105299
0.00105261
0.0010526
0.0010526
0.00105259
0.0010526
0.0010526
0.00105262
0.00105262
0.00105261
0.00105261
0.00105259
0.00105257
0.00105257
0.00105256
0.00105256
0.0010526
0.00105256
0.00105254
0.00105253
0.00105252
0.00105251
0.00105253
0.00105249
0.00105247
0.00105245
0.00105242
0.00227102
0.00107512
0.00105316
0.00105271
0.00105269
0.00105269
0.0010527
0.0010527
0.0010527
0.00105272
0.00105271
0.0010527
0.00105269
0.00105267
0.00105266
0.00105266
0.00105266
0.00105266
0.00105268
0.00105266
0.00105264
0.00105264
0.00105261
0.00105258
0.00105256
0.00105253
0.00105251
0.00105248
0.00105244
0.00218795
0.0010767
0.00105336
0.00105283
0.00105281
0.00105282
0.00105283
0.00105283
0.00105282
0.00105281
0.00105281
0.00105281
0.00105281
0.00105281
0.00105283
0.0010528
0.00105279
0.00105277
0.00105277
0.00105278
0.00105277
0.00105271
0.00105269
0.00105264
0.00105261
0.00105257
0.00105255
0.00105252
0.0010525
0.00210388
0.00107819
0.00105359
0.00105298
0.00105295
0.00105295
0.00105296
0.00105297
0.00105295
0.00105296
0.00105297
0.00105297
0.00105298
0.00105298
0.00105299
0.00105295
0.00105293
0.00105291
0.0010529
0.0010529
0.00105287
0.00105282
0.00105278
0.00105277
0.00105274
0.00105269
0.00105267
0.00105263
0.0010526
0.0020196
0.00107955
0.00105386
0.00105316
0.00105314
0.00105314
0.00105313
0.00105315
0.00105313
0.00105315
0.00105317
0.00105314
0.00105314
0.00105314
0.00105316
0.00105315
0.00105314
0.0010531
0.00105307
0.00105307
0.00105307
0.00105306
0.00105299
0.00105295
0.00105291
0.00105285
0.00105281
0.00105277
0.00105272
0.00193594
0.00108077
0.00105417
0.00105337
0.0010534
0.00105337
0.00105333
0.00105337
0.00105336
0.00105339
0.00105339
0.00105336
0.00105337
0.00105336
0.00105334
0.00105336
0.00105338
0.00105336
0.00105334
0.00105333
0.00105333
0.0010533
0.00105324
0.00105319
0.0010532
0.00105309
0.00105303
0.00105295
0.00105286
0.00185372
0.0010813
0.0010545
0.00105362
0.00105366
0.00105356
0.00105353
0.00105357
0.0010536
0.00105362
0.00105362
0.00105362
0.00105364
0.00105359
0.00105356
0.00105359
0.00105363
0.00105358
0.00105358
0.00105358
0.00105358
0.00105357
0.00105354
0.00105349
0.00105352
0.0010534
0.00105332
0.00105321
0.00105307
0.00177377
0.00108186
0.00105486
0.00105389
0.00105394
0.0010538
0.00105382
0.00105382
0.00105381
0.00105381
0.00105383
0.00105387
0.00105391
0.00105389
0.0010539
0.0010539
0.00105395
0.00105389
0.0010539
0.00105393
0.0010539
0.00105388
0.00105387
0.00105386
0.00105384
0.00105371
0.00105362
0.00105348
0.00105333
0.00169683
0.00108199
0.00105523
0.00105422
0.00105424
0.00105411
0.00105413
0.00105412
0.00105412
0.00105411
0.0010541
0.0010541
0.0010541
0.00105411
0.00105415
0.00105421
0.00105427
0.00105431
0.00105428
0.00105427
0.00105424
0.00105426
0.00105427
0.00105425
0.00105417
0.00105409
0.00105399
0.00105384
0.00105367
0.00162358
0.00108161
0.00105562
0.0010546
0.00105453
0.00105447
0.00105447
0.00105447
0.00105446
0.00105446
0.00105446
0.00105446
0.00105446
0.00105446
0.00105446
0.00105448
0.00105452
0.00105461
0.00105471
0.00105475
0.00105475
0.00105478
0.00105465
0.00105466
0.00105467
0.00105476
0.00105467
0.00105451
0.00105423
0.00155459
0.00108089
0.00105601
0.00105499
0.00105484
0.00105483
0.00105484
0.00105484
0.00105485
0.00105485
0.00105486
0.00105486
0.00105488
0.00105489
0.0010549
0.0010549
0.00105492
0.00105494
0.00105503
0.0010552
0.00105531
0.00105537
0.00105524
0.00105525
0.00105526
0.00105536
0.00105525
0.00105513
0.00105485
0.00149033
0.00107984
0.00105638
0.00105538
0.0010552
0.00105521
0.00105523
0.00105524
0.00105525
0.00105527
0.00105529
0.00105531
0.00105534
0.00105537
0.0010554
0.00105542
0.00105544
0.00105547
0.0010555
0.00105559
0.00105572
0.00105597
0.00105599
0.00105596
0.00105594
0.00105603
0.00105596
0.0010559
0.00105561
0.00143109
0.0010785
0.00105675
0.00105577
0.00105558
0.0010556
0.00105563
0.00105566
0.00105568
0.00105572
0.00105576
0.0010558
0.00105585
0.0010559
0.00105595
0.001056
0.00105605
0.00105611
0.00105615
0.00105621
0.00105631
0.00105646
0.00105677
0.00105696
0.00105691
0.001057
0.0010569
0.00105684
0.0010567
0.00137707
0.00107692
0.00105709
0.00105616
0.00105597
0.001056
0.00105604
0.00105608
0.00105613
0.00105618
0.00105624
0.00105631
0.00105638
0.00105646
0.00105655
0.00105664
0.00105674
0.00105683
0.00105693
0.00105701
0.00105709
0.0010573
0.00105743
0.00105782
0.00105811
0.00105801
0.00105786
0.00105783
0.00105766
0.00132832
0.00107519
0.0010574
0.00105652
0.00105636
0.00105639
0.00105646
0.00105651
0.00105657
0.00105665
0.00105673
0.00105683
0.00105694
0.00105706
0.00105719
0.00105733
0.00105748
0.00105762
0.0010578
0.00105793
0.0010581
0.00105821
0.00105857
0.00105881
0.00105903
0.00105939
0.00105927
0.0010592
0.00105926
0.0012848
0.00107337
0.00105768
0.00105687
0.00105675
0.00105678
0.00105686
0.00105693
0.00105702
0.00105711
0.00105723
0.00105736
0.00105751
0.00105767
0.00105785
0.00105805
0.00105826
0.0010585
0.00105872
0.001059
0.00105919
0.0010595
0.00105964
0.0010601
0.00106059
0.00106061
0.00106104
0.00106125
0.00106086
0.00124633
0.00107154
0.00105792
0.00105722
0.00105712
0.00105716
0.00105725
0.00105734
0.00105744
0.00105757
0.00105772
0.00105789
0.00105808
0.00105829
0.00105853
0.00105879
0.00105908
0.0010594
0.00105974
0.00106012
0.00106053
0.00106079
0.00106132
0.00106158
0.00106196
0.00106292
0.00106294
0.00106291
0.00106354
0.00121269
0.00106975
0.00105814
0.00105754
0.00105747
0.00105751
0.00105761
0.00105772
0.00105785
0.00105801
0.00105819
0.00105839
0.00105863
0.00105889
0.0010592
0.00105954
0.00105992
0.00106035
0.00106081
0.00106135
0.00106185
0.00106251
0.00106291
0.00106364
0.00106448
0.00106457
0.00106547
0.00106631
0.00106577
0.00118357
0.00106805
0.00105833
0.00105784
0.00105778
0.00105784
0.00105795
0.00105808
0.00105823
0.00105842
0.00105863
0.00105888
0.00105916
0.00105948
0.00105985
0.00106028
0.00106076
0.00106131
0.00106193
0.00106261
0.00106339
0.00106412
0.00106498
0.00106595
0.00106643
0.00106825
0.00106835
0.00106889
0.00107036
0.00115863
0.00106648
0.00105849
0.0010581
0.00105807
0.00105814
0.00105826
0.00105841
0.00105858
0.00105879
0.00105904
0.00105933
0.00105966
0.00106004
0.00106048
0.00106099
0.00106158
0.00106225
0.00106304
0.00106389
0.00106494
0.00106592
0.00106737
0.00106819
0.0010699
0.00107056
0.00107351
0.00107294
0.00107334
0.00113751
0.00106506
0.00105863
0.00105834
0.00105832
0.0010584
0.00105854
0.0010587
0.0010589
0.00105913
0.00105941
0.00105974
0.00106011
0.00106055
0.00106107
0.00106167
0.00106234
0.00106321
0.00106402
0.0010654
0.00106622
0.00106819
0.00106944
0.00107108
0.00107299
0.00107627
0.00107642
0.00107958
0.00107983
0.00111982
0.00106381
0.00105875
0.00105854
0.00105854
0.00105863
0.00105878
0.00105896
0.00105918
0.00105944
0.00105974
0.00106011
0.00106052
0.00106102
0.0010616
0.00106227
0.00106312
0.00106395
0.00106534
0.00106622
0.00106835
0.00106972
0.00107147
0.00107547
0.00107678
0.00107856
0.00108428
0.00108488
0.00108753
0.00110519
0.00106274
0.00105887
0.00105871
0.00105872
0.00105883
0.00105899
0.00105919
0.00105942
0.0010597
0.00106003
0.00106043
0.00106089
0.00106143
0.00106207
0.00106285
0.00106369
0.00106497
0.00106587
0.001068
0.00106931
0.0010716
0.0010756
0.00107719
0.00108155
0.00108521
0.00108836
0.0010963
0.00109614
0.00109326
0.00106184
0.00105897
0.00105884
0.00105887
0.001059
0.00105917
0.00105938
0.00105963
0.00105993
0.00106029
0.00106071
0.00106121
0.00106179
0.00106251
0.0010633
0.00106441
0.00106532
0.00106728
0.0010685
0.00107114
0.00107414
0.00107624
0.00108178
0.00108604
0.00109092
0.0010973
0.0011018
0.00111324
0.00108368
0.00106109
0.00105903
0.00105895
0.00105899
0.00105914
0.00105932
0.00105954
0.00105981
0.00106012
0.0010605
0.00106095
0.00106148
0.00106211
0.00106285
0.00106377
0.00106475
0.00106629
0.00106746
0.00106997
0.00107233
0.00107454
0.00108062
0.00108379
0.00109139
0.00109905
0.0011047
0.00111615
0.001122
0.00107614
0.00106049
0.00105908
0.00105903
0.0010591
0.00105926
0.00105945
0.00105968
0.00105995
0.00106029
0.00106068
0.00106115
0.00106171
0.00106237
0.00106317
0.00106407
0.00106536
0.00106642
0.00106858
0.00107035
0.0010731
0.00107746
0.00108061
0.00108878
0.00109422
0.00110771
0.00111654
0.00112612
0.0011457
0.00107033
0.00106002
0.00105912
0.0010591
0.00105919
0.00105936
0.00105955
0.00105979
0.00106007
0.00106042
0.00106083
0.00106132
0.0010619
0.00106259
0.00106342
0.00106438
0.00106571
0.00106684
0.00106931
0.00107077
0.00107508
0.00107729
0.00108444
0.00108876
0.00110159
0.00111041
0.00113899
0.00114684
0.00116397
0.001066
0.00105967
0.00105915
0.00105916
0.00105927
0.00105943
0.00105963
0.00105988
0.00106017
0.00106053
0.00106095
0.00106145
0.00106205
0.00106277
0.00106363
0.00106468
0.00106588
0.00106761
0.00106911
0.00107239
0.00107478
0.00107831
0.00108618
0.00109077
0.00110193
0.00111661
0.00113829
0.00118698
0.0012165
0.0010629
0.00105942
0.00105918
0.00105921
0.00105933
0.00105949
0.00105969
0.00105994
0.00106024
0.0010606
0.00106103
0.00106154
0.00106216
0.00106289
0.0010638
0.00106475
0.00106633
0.00106743
0.0010702
0.00107201
0.00107583
0.00107924
0.00108689
0.00109181
0.00110534
0.00111788
0.00114757
0.00118411
0.00127068
0.00106085
0.00105927
0.00105921
0.00105927
0.00105942
0.0010596
0.00105983
0.00106011
0.00106045
0.00106086
0.00106135
0.00106193
0.00106262
0.00106346
0.00106444
0.00106562
0.00106717
0.00106872
0.001071
0.00107398
0.00107728
0.00108054
0.00108756
0.00109323
0.00110387
0.00111247
0.00112374
0.00114267
0.00127089
0.00105957
0.00105949
0.00106006
0.00106116
0.00106264
0.00106461
0.00106714
0.0010703
0.00107419
0.00107889
0.00108445
0.00109088
0.001098
0.00110574
0.00111282
0.00112134
0.00112531
0.00112738
0.00114543
0.00114986
0.00120186
0.00124064
0.00146504
0.00158384
0.00215546
0.00247067
0.00399555
0.00442637
0.00516251
0.00106105
0.00107975
0.00112
0.00118114
0.00126492
0.00137366
0.00151025
0.00167839
0.00188279
0.00212929
0.00242535
0.00278028
0.00320543
0.00371632
0.00433036
0.00506561
0.00603722
0.0068445
0.00881003
0.00983007
0.0125772
0.0143119
0.0192357
0.0218392
0.0299837
0.0346237
0.0504506
0.0567907
0.0694088
5.60892e-005
5.60892e-005
5.60893e-005
5.60893e-005
5.60893e-005
5.60893e-005
5.60893e-005
5.60893e-005
5.60893e-005
5.60893e-005
5.60893e-005
5.60893e-005
5.60893e-005
5.60894e-005
5.60894e-005
5.60894e-005
5.60894e-005
5.60894e-005
5.60894e-005
5.60894e-005
5.60894e-005
5.60894e-005
5.60895e-005
5.60895e-005
5.60895e-005
5.60895e-005
5.60895e-005
5.60895e-005
5.60895e-005
5.60895e-005
5.60896e-005
5.60896e-005
5.60896e-005
5.60896e-005
5.60896e-005
5.60896e-005
5.60896e-005
5.60896e-005
5.60896e-005
5.60897e-005
5.60897e-005
5.60897e-005
5.60897e-005
5.60897e-005
5.60897e-005
5.60898e-005
5.60898e-005
5.60898e-005
5.60898e-005
5.60898e-005
5.60898e-005
5.60898e-005
5.60898e-005
5.60898e-005
5.60899e-005
5.60899e-005
5.60899e-005
5.60899e-005
5.60899e-005
5.60899e-005
5.60899e-005
5.60899e-005
5.60899e-005
5.609e-005
5.609e-005
5.609e-005
5.609e-005
5.609e-005
5.609e-005
5.609e-005
5.609e-005
5.609e-005
5.609e-005
5.60901e-005
5.60901e-005
5.60901e-005
5.60901e-005
5.60901e-005
5.60901e-005
5.60901e-005
5.60901e-005
5.60901e-005
5.60901e-005
5.60901e-005
5.60901e-005
5.60901e-005
5.60901e-005
5.60902e-005
5.60902e-005
5.60902e-005
5.60902e-005
5.60902e-005
5.60902e-005
5.60902e-005
5.60902e-005
5.60902e-005
5.60902e-005
5.60902e-005
5.60902e-005
5.60902e-005
5.60902e-005
5.60902e-005
5.60902e-005
5.60903e-005
5.60903e-005
5.60903e-005
5.60903e-005
5.60903e-005
5.60903e-005
5.60903e-005
5.60903e-005
5.60903e-005
5.60903e-005
5.60903e-005
5.60903e-005
5.60903e-005
5.60903e-005
5.60903e-005
5.60903e-005
5.60903e-005
5.60903e-005
5.60903e-005
5.60903e-005
5.60903e-005
5.60903e-005
5.60903e-005
5.60903e-005
5.60903e-005
5.60903e-005
5.60903e-005
5.60903e-005
5.60903e-005
5.60904e-005
5.60903e-005
5.60904e-005
5.60903e-005
5.60904e-005
5.60888e-005
5.68604e-005
0.000275274
0.000275268
0.000275263
0.000275259
0.000275255
0.00027525
0.000275245
0.00027524
0.000275235
0.000275228
0.000275223
0.000275216
0.00027521
0.000275204
0.000275197
0.00027519
0.000275183
0.000275175
0.000275168
0.000275161
0.000275154
0.000275145
0.000275137
0.00027513
0.000275121
0.000275114
0.000275105
0.000275097
0.000275089
0.000275081
0.000275072
0.000275063
0.000275055
0.000275047
0.000275039
0.00027503
0.000275022
0.000275013
0.000275005
0.000274996
0.000274988
0.000274979
0.000274971
0.000274961
0.000274954
0.000274944
0.000274937
0.000274928
0.00027492
0.000274912
0.000274904
0.000274896
0.000274888
0.00027488
0.000274872
0.000274864
0.000274857
0.000274849
0.000274841
0.000274833
0.000274827
0.00027482
0.000274812
0.000274805
0.000274798
0.000274791
0.000274783
0.000274778
0.000274771
0.000274764
0.000274758
0.000274751
0.000274745
0.000274739
0.000274733
0.000274727
0.000274721
0.000274715
0.000274709
0.000274703
0.000274698
0.000274693
0.000274687
0.000274681
0.000274677
0.000274672
0.000274668
0.000274662
0.000274657
0.000274652
0.000274648
0.000274642
0.000274639
0.000274634
0.000274631
0.000274627
0.000274623
0.000274619
0.000274615
0.000274611
0.000274607
0.000274603
0.0002746
0.000274596
0.000274593
0.00027459
0.000274585
0.000274583
0.00027458
0.000274577
0.000274574
0.000274572
0.000274568
0.000274564
0.000274562
0.000274559
0.000274557
0.000274554
0.000274551
0.000274547
0.000274546
0.000274542
0.00027454
0.000274537
0.000274533
0.00027453
0.000274528
0.000274524
0.00027452
0.000274517
0.000274512
0.00027451
0.000274504
0.000274501
0.000274495
0.000274491
0.000274484
0.000274899
0.000685997
0.000872304
0.000872297
0.000872287
0.00087228
0.000872271
0.000872262
0.000872253
0.000872242
0.000872232
0.000872221
0.00087221
0.000872198
0.000872187
0.000872175
0.000872163
0.000872149
0.000872137
0.000872123
0.000872112
0.000872099
0.000872085
0.000872069
0.000872055
0.000872042
0.000872028
0.000872014
0.000871999
0.000871984
0.00087197
0.000871955
0.000871941
0.000871924
0.00087191
0.000871895
0.000871881
0.000871865
0.000871851
0.000871835
0.000871821
0.000871804
0.00087179
0.000871775
0.000871761
0.000871743
0.00087173
0.000871714
0.000871701
0.000871685
0.000871672
0.000871656
0.000871642
0.000871628
0.000871615
0.000871601
0.000871588
0.000871573
0.000871559
0.000871546
0.000871531
0.000871519
0.000871507
0.000871495
0.000871481
0.000871469
0.000871457
0.000871445
0.000871432
0.000871422
0.000871409
0.000871396
0.000871385
0.000871374
0.000871364
0.000871353
0.000871343
0.000871332
0.000871321
0.00087131
0.0008713
0.00087129
0.000871281
0.000871272
0.000871263
0.000871252
0.000871245
0.000871236
0.000871229
0.000871217
0.000871209
0.000871201
0.000871193
0.000871184
0.000871178
0.00087117
0.000871164
0.000871157
0.000871151
0.000871143
0.000871137
0.000871131
0.000871122
0.000871116
0.00087111
0.000871104
0.000871099
0.000871093
0.000871086
0.000871081
0.000871077
0.000871072
0.000871067
0.000871064
0.000871057
0.000871051
0.000871048
0.000871043
0.000871039
0.000871035
0.000871031
0.000871025
0.000871022
0.000871018
0.000871014
0.00087101
0.000871005
0.000871002
0.000870998
0.000870994
0.000870989
0.000870986
0.00087098
0.000870978
0.000870972
0.000870969
0.000870964
0.000870959
0.000870953
0.000872558
0.00195885
0.00103817
0.00103817
0.00103817
0.00103817
0.00103817
0.00103817
0.00103816
0.00103816
0.00103816
0.00103816
0.00103816
0.00103815
0.00103815
0.00103815
0.00103815
0.00103815
0.00103814
0.00103814
0.00103814
0.00103814
0.00103813
0.00103813
0.00103813
0.00103813
0.00103812
0.00103812
0.00103812
0.00103811
0.00103811
0.00103811
0.00103811
0.0010381
0.0010381
0.0010381
0.0010381
0.00103809
0.00103809
0.00103809
0.00103809
0.00103808
0.00103808
0.00103808
0.00103807
0.00103807
0.00103807
0.00103807
0.00103806
0.00103806
0.00103806
0.00103806
0.00103805
0.00103805
0.00103805
0.00103805
0.00103804
0.00103804
0.00103804
0.00103804
0.00103803
0.00103803
0.00103803
0.00103803
0.00103802
0.00103802
0.00103802
0.00103802
0.00103801
0.00103801
0.00103801
0.00103801
0.00103801
0.001038
0.001038
0.001038
0.001038
0.001038
0.00103799
0.00103799
0.00103799
0.00103799
0.00103799
0.00103799
0.00103798
0.00103798
0.00103798
0.00103798
0.00103798
0.00103798
0.00103798
0.00103797
0.00103797
0.00103797
0.00103797
0.00103797
0.00103797
0.00103797
0.00103796
0.00103796
0.00103796
0.00103796
0.00103796
0.00103796
0.00103796
0.00103796
0.00103796
0.00103795
0.00103795
0.00103795
0.00103795
0.00103795
0.00103795
0.00103795
0.00103795
0.00103795
0.00103795
0.00103795
0.00103795
0.00103794
0.00103794
0.00103794
0.00103794
0.00103794
0.00103794
0.00103794
0.00103794
0.00103794
0.00103794
0.00103794
0.00103794
0.00103794
0.00103794
0.00103794
0.00103793
0.00103793
0.00103793
0.00103793
0.00103793
0.00103984
0.00213674
0.00105139
0.00105139
0.00105139
0.00105139
0.00105139
0.00105139
0.00105139
0.00105139
0.00105139
0.00105139
0.00105139
0.00105139
0.00105139
0.00105139
0.00105139
0.00105139
0.00105139
0.00105139
0.00105139
0.00105139
0.00105139
0.00105139
0.00105139
0.00105139
0.00105139
0.00105139
0.00105139
0.00105139
0.00105139
0.00105138
0.00105138
0.00105138
0.00105138
0.00105138
0.00105138
0.00105138
0.00105138
0.00105138
0.00105138
0.00105138
0.00105138
0.00105138
0.00105138
0.00105138
0.00105138
0.00105138
0.00105138
0.00105138
0.00105138
0.00105138
0.00105138
0.00105138
0.00105138
0.00105138
0.00105138
0.00105138
0.00105138
0.00105138
0.00105138
0.00105137
0.00105138
0.00105138
0.00105138
0.00105138
0.00105138
0.00105138
0.00105138
0.00105138
0.00105138
0.00105138
0.00105138
0.00105137
0.00105137
0.00105137
0.00105137
0.00105137
0.00105137
0.00105137
0.00105137
0.00105137
0.00105137
0.00105137
0.00105137
0.00105137
0.00105137
0.00105137
0.00105137
0.00105137
0.00105137
0.00105137
0.00105137
0.00105137
0.00105137
0.00105137
0.00105137
0.00105137
0.00105137
0.00105137
0.00105137
0.00105137
0.00105137
0.00105137
0.00105137
0.00105137
0.00105137
0.00105137
0.00105137
0.00105137
0.00105137
0.00105137
0.00105137
0.00105137
0.00105137
0.00105137
0.00105137
0.00105137
0.00105137
0.00105137
0.00105137
0.00105137
0.00105137
0.00105137
0.00105137
0.00105136
0.00105136
0.00105136
0.00105137
0.00105137
0.00105137
0.00105137
0.00105137
0.00105137
0.00105137
0.00105137
0.00105137
0.00105136
0.00105137
0.00105332
0.002179
0.00105227
0.00105227
0.00105227
0.00105227
0.00105227
0.00105227
0.00105227
0.00105227
0.00105227
0.00105227
0.00105227
0.00105227
0.00105227
0.00105227
0.00105227
0.00105227
0.00105227
0.00105227
0.00105227
0.00105227
0.00105227
0.00105227
0.00105227
0.00105227
0.00105227
0.00105227
0.00105227
0.00105227
0.00105228
0.00105227
0.00105228
0.00105227
0.00105227
0.00105227
0.00105228
0.00105227
0.00105227
0.00105228
0.00105227
0.00105228
0.00105227
0.00105227
0.00105227
0.00105228
0.00105227
0.00105228
0.00105227
0.00105227
0.00105227
0.00105227
0.00105227
0.00105228
0.00105227
0.00105227
0.00105227
0.00105227
0.00105228
0.00105227
0.00105227
0.00105228
0.00105227
0.00105228
0.00105227
0.00105228
0.00105227
0.00105228
0.00105227
0.00105227
0.00105227
0.00105228
0.00105227
0.00105228
0.00105227
0.00105227
0.00105227
0.00105227
0.00105227
0.00105228
0.00105227
0.00105227
0.00105227
0.00105228
0.00105227
0.00105228
0.00105227
0.00105227
0.00105227
0.00105227
0.00105227
0.00105227
0.00105227
0.00105228
0.00105228
0.00105227
0.00105228
0.00105228
0.00105227
0.00105227
0.00105227
0.00105228
0.00105227
0.00105228
0.00105227
0.00105228
0.00105227
0.00105228
0.00105227
0.00105227
0.00105227
0.00105227
0.00105227
0.00105228
0.00105227
0.00105227
0.00105227
0.00105227
0.00105227
0.00105227
0.00105227
0.00105227
0.00105227
0.00105228
0.00105227
0.00105228
0.00105228
0.00105228
0.00105227
0.00105227
0.00105227
0.00105227
0.00105227
0.00105228
0.00105227
0.00105227
0.00105227
0.00105228
0.00105228
0.00105424
0.00218767
0.00105232
0.00105231
0.00105232
0.00105231
0.00105232
0.00105231
0.00105231
0.00105232
0.00105232
0.00105232
0.00105231
0.00105233
0.00105231
0.00105232
0.00105233
0.00105233
0.00105232
0.00105233
0.00105232
0.00105233
0.00105232
0.00105233
0.00105231
0.00105232
0.00105233
0.00105233
0.00105233
0.00105233
0.00105233
0.00105232
0.00105233
0.00105234
0.00105233
0.00105233
0.00105233
0.00105233
0.00105233
0.00105234
0.00105233
0.00105233