/*--------------------------------*- C++ -*----------------------------------*\
| =========                 |                                                 |
| \\      /  F ield         | OpenFOAM: The Open Source CFD Toolbox           |
|  \\    /   O peration     | Version:  5.x                                   |
|   \\  /    A nd           | Web:      www.OpenFOAM.org                      |
|    \\/     M anipulation  |                                                 |
\*---------------------------------------------------------------------------*/
/*   Windows 32 and 64 bit porting by blueCAPE: http://www.bluecape.com.pt   *\
|  Based on Windows porting (2.0.x v4) by Symscape: http://www.symscape.com   |
\*---------------------------------------------------------------------------*/
FoamFile
{
    version     2.0;
    format      ascii;
    class       volScalarField;
    location    "10";
    object      p;
}
// * * * * * * * * * * * * * * * * * * * * * * * * * * * * * * * * * * * * * //

dimensions      [0 2 -2 0 0 0 0];

internalField   nonuniform List<scalar> 
43900
(
0.489598
0.489445
0.48935
0.489237
0.489123
0.489007
0.488887
0.488764
0.488638
0.488508
0.488375
0.488238
0.488097
0.487952
0.487803
0.48765
0.487492
0.48733
0.487163
0.486992
0.486817
0.486636
0.486452
0.486262
0.486068
0.485869
0.485666
0.485458
0.485245
0.299523
0.299549
0.299497
0.299445
0.299387
0.299321
0.299248
0.299168
0.299082
0.298989
0.298889
0.298782
0.29867
0.298551
0.298425
0.298294
0.298156
0.298013
0.297863
0.297707
0.297545
0.297377
0.297204
0.297024
0.29684
0.296649
0.296453
0.296251
0.296044
0.348251
0.348267
0.348219
0.348173
0.348119
0.348057
0.347987
0.347909
0.347823
0.347729
0.347627
0.347518
0.3474
0.347275
0.347142
0.347001
0.346852
0.346696
0.346533
0.346362
0.346183
0.345997
0.345804
0.345604
0.345396
0.345182
0.34496
0.344732
0.344497
0.375064
0.375056
0.375031
0.374998
0.374955
0.374903
0.374842
0.374771
0.374691
0.374603
0.374505
0.374398
0.374283
0.374159
0.374026
0.373885
0.373736
0.373578
0.373412
0.373238
0.373055
0.372865
0.372666
0.372459
0.372245
0.372022
0.371791
0.371552
0.371306
0.365254
0.365246
0.365225
0.365195
0.365155
0.365105
0.365045
0.364975
0.364896
0.364806
0.364707
0.364599
0.36448
0.364353
0.364216
0.36407
0.363915
0.36375
0.363577
0.363395
0.363204
0.363005
0.362797
0.362581
0.362357
0.362125
0.361885
0.361638
0.361383
0.363892
0.363879
0.363855
0.36382
0.363772
0.363714
0.363644
0.363562
0.363468
0.363364
0.363248
0.36312
0.362981
0.362832
0.362671
0.362499
0.362316
0.362122
0.361917
0.361702
0.361476
0.36124
0.360994
0.360738
0.360471
0.360195
0.359908
0.359612
0.359307
0.370239
0.370225
0.370197
0.370156
0.3701
0.370031
0.369948
0.36985
0.369739
0.369614
0.369475
0.369323
0.369157
0.368977
0.368784
0.368578
0.368359
0.368126
0.367881
0.367622
0.367351
0.367067
0.366771
0.366462
0.366141
0.365808
0.365463
0.365107
0.364738
0.377548
0.377532
0.3775
0.377451
0.377385
0.377302
0.377203
0.377088
0.376955
0.376806
0.376641
0.37646
0.376262
0.376048
0.375818
0.375572
0.375311
0.375034
0.374742
0.374434
0.374111
0.373773
0.373421
0.373054
0.372673
0.372277
0.371867
0.371444
0.371007
0.384785
0.384765
0.384727
0.384668
0.38459
0.384492
0.384374
0.384236
0.384079
0.383902
0.383705
0.38349
0.383255
0.383001
0.382728
0.382437
0.382127
0.381798
0.381452
0.381087
0.380705
0.380305
0.379888
0.379454
0.379003
0.378536
0.378052
0.377553
0.377038
0.392983
0.39296
0.392913
0.392843
0.39275
0.392632
0.392491
0.392327
0.392139
0.391927
0.391693
0.391435
0.391155
0.390852
0.390527
0.39018
0.38981
0.389419
0.389006
0.388572
0.388118
0.387642
0.387147
0.386631
0.386096
0.385541
0.384968
0.384376
0.383766
0.402256
0.402227
0.402172
0.402088
0.401975
0.401835
0.401666
0.401468
0.401243
0.40099
0.400709
0.400401
0.400066
0.399703
0.399314
0.398899
0.398457
0.39799
0.397497
0.396979
0.396437
0.39587
0.39528
0.394665
0.394028
0.393369
0.392687
0.391983
0.391259
0.412616
0.412582
0.412515
0.412414
0.412279
0.41211
0.411907
0.411671
0.411401
0.411097
0.41076
0.410391
0.409989
0.409555
0.409089
0.408592
0.408064
0.407505
0.406916
0.406297
0.405649
0.404973
0.404269
0.403536
0.402777
0.401992
0.401181
0.400344
0.399484
0.424112
0.42407
0.42399
0.423869
0.423707
0.423504
0.42326
0.422976
0.422652
0.422287
0.421884
0.421441
0.420959
0.420439
0.419881
0.419285
0.418653
0.417985
0.417281
0.416541
0.415768
0.414961
0.41412
0.413248
0.412344
0.411409
0.410444
0.40945
0.408427
0.436795
0.436746
0.436649
0.436503
0.436309
0.436065
0.435772
0.435431
0.435042
0.434605
0.434121
0.43359
0.433012
0.432389
0.431721
0.431008
0.430252
0.429453
0.428612
0.427729
0.426806
0.425843
0.424841
0.423802
0.422726
0.421614
0.420468
0.419287
0.418074
0.450722
0.450663
0.450547
0.450372
0.450138
0.449845
0.449494
0.449085
0.448618
0.448095
0.447514
0.446878
0.446186
0.445441
0.444641
0.443789
0.442885
0.441931
0.440926
0.439873
0.438773
0.437626
0.436433
0.435197
0.433918
0.432598
0.431237
0.429838
0.428401
0.465947
0.465876
0.465737
0.465527
0.465247
0.464896
0.464475
0.463985
0.463426
0.462798
0.462104
0.461342
0.460516
0.459624
0.458669
0.457651
0.456573
0.455434
0.454237
0.452983
0.451672
0.450308
0.448891
0.447423
0.445905
0.44434
0.442728
0.441072
0.439374
0.482523
0.482438
0.48227
0.482019
0.481684
0.481264
0.48076
0.480174
0.479505
0.478755
0.477925
0.477016
0.476028
0.474965
0.473825
0.472613
0.471327
0.469972
0.468548
0.467056
0.4655
0.46388
0.462199
0.460459
0.458662
0.456811
0.454906
0.452951
0.450948
0.500496
0.500395
0.500195
0.499895
0.499494
0.498992
0.498391
0.497691
0.496893
0.495998
0.495008
0.493924
0.492748
0.491481
0.490126
0.488683
0.487155
0.485545
0.483854
0.482085
0.48024
0.478322
0.476333
0.474276
0.472154
0.469969
0.467724
0.465422
0.463066
0.51991
0.519789
0.51955
0.519193
0.518715
0.518117
0.517401
0.516567
0.515617
0.514553
0.513376
0.512087
0.510689
0.509185
0.507575
0.505864
0.504053
0.502145
0.500143
0.49805
0.49587
0.493604
0.491257
0.488832
0.486332
0.483762
0.481123
0.47842
0.475658
0.540795
0.540651
0.540367
0.539942
0.539374
0.538665
0.537814
0.536825
0.535697
0.534435
0.533038
0.531511
0.529855
0.528073
0.526169
0.524144
0.522003
0.51975
0.517387
0.514918
0.512348
0.509681
0.50692
0.50407
0.501135
0.498119
0.495028
0.491865
0.488636
0.563169
0.562999
0.562664
0.56216
0.561488
0.560648
0.559641
0.558471
0.557138
0.555645
0.553995
0.55219
0.550235
0.548132
0.545886
0.543499
0.540978
0.538324
0.535544
0.532643
0.529624
0.526493
0.523256
0.519918
0.516483
0.512958
0.509349
0.50566
0.501899
0.587035
0.586834
0.586438
0.585845
0.585052
0.584062
0.582876
0.581496
0.579926
0.578168
0.576226
0.574103
0.571804
0.569332
0.566692
0.56389
0.56093
0.557818
0.55456
0.551161
0.547628
0.543968
0.540186
0.536289
0.532285
0.52818
0.523981
0.519695
0.515329
0.612371
0.612136
0.611671
0.610974
0.610044
0.608882
0.607491
0.605874
0.604033
0.601972
0.599696
0.59721
0.594517
0.591623
0.588535
0.585258
0.581799
0.578164
0.57436
0.570396
0.566278
0.562014
0.557613
0.553083
0.548432
0.543669
0.538803
0.533841
0.528795
0.639134
0.63886
0.638317
0.637504
0.636418
0.635062
0.633439
0.631552
0.629405
0.627002
0.624348
0.621449
0.618311
0.614941
0.611344
0.60753
0.603505
0.599277
0.594857
0.590252
0.585472
0.580526
0.575426
0.57018
0.5648
0.559296
0.553678
0.547958
0.542147
0.667251
0.666933
0.666303
0.665359
0.6641
0.662527
0.660644
0.658455
0.655964
0.653178
0.650101
0.64674
0.643103
0.639196
0.63503
0.630611
0.62595
0.621058
0.615944
0.610619
0.605095
0.599384
0.593498
0.587449
0.581251
0.574916
0.568457
0.561889
0.555224
0.696615
0.696249
0.695523
0.694435
0.692983
0.691171
0.689
0.686478
0.683607
0.680395
0.676849
0.672976
0.668784
0.664282
0.659481
0.65439
0.649022
0.643387
0.6375
0.631372
0.625018
0.618452
0.611689
0.604745
0.597634
0.590373
0.582978
0.575465
0.567851
0.727086
0.726668
0.725838
0.724594
0.722932
0.720858
0.718374
0.715487
0.712201
0.708524
0.704463
0.700027
0.695226
0.690069
0.684569
0.678737
0.672587
0.666132
0.659389
0.652371
0.645097
0.637584
0.629848
0.62191
0.613787
0.605499
0.597065
0.588507
0.579844
0.75849
0.758016
0.757074
0.755661
0.753775
0.75142
0.748599
0.745319
0.741586
0.737406
0.732788
0.727743
0.722279
0.71641
0.710147
0.703505
0.6965
0.689146
0.681463
0.673468
0.665181
0.656622
0.647814
0.638778
0.629537
0.620115
0.610536
0.600825
0.591006
0.790614
0.790081
0.789022
0.787432
0.785309
0.782657
0.779479
0.775783
0.771573
0.766858
0.761647
0.755948
0.749775
0.743138
0.736054
0.728536
0.720603
0.712272
0.703565
0.694502
0.685107
0.675404
0.665419
0.655177
0.644708
0.634039
0.6232
0.612221
0.601134
0.823214
0.822621
0.821441
0.819667
0.817299
0.814338
0.81079
0.80666
0.801953
0.796676
0.790839
0.784452
0.777526
0.770075
0.762113
0.753659
0.744729
0.735346
0.725532
0.715311
0.704712
0.693761
0.68249
0.67093
0.659116
0.64708
0.634861
0.622492
0.610014
0.856019
0.855366
0.854062
0.852103
0.849485
0.846211
0.842285
0.837709
0.832491
0.826636
0.820151
0.813048
0.805336
0.797029
0.788143
0.778695
0.768706
0.758198
0.747196
0.735729
0.723827
0.711524
0.698855
0.685859
0.672575
0.659046
0.645315
0.631427
0.617429
0.888736
0.888023
0.886598
0.884455
0.881589
0.878003
0.873697
0.868675
0.862941
0.856499
0.849355
0.841517
0.832996
0.823803
0.813954
0.803466
0.792359
0.780659
0.768393
0.755591
0.74229
0.728527
0.714344
0.699786
0.684901
0.669741
0.654359
0.63881
0.62315
0.921061
0.920291
0.918748
0.916426
0.91332
0.909429
0.904753
0.899291
0.893047
0.88602
0.878216
0.869638
0.860295
0.850197
0.839356
0.82779
0.815518
0.802565
0.788961
0.77474
0.759941
0.744607
0.728787
0.712536
0.69591
0.678971
0.661785
0.644418
0.626943
0.952686
0.951863
0.950211
0.947721
0.944387
0.940206
0.935174
0.92929
0.922551
0.914955
0.9065
0.897189
0.887025
0.876014
0.864165
0.851493
0.838016
0.823758
0.808749
0.793025
0.776629
0.75961
0.742026
0.723939
0.705419
0.686538
0.66738
0.648025
0.628563
0.983318
0.982447
0.980694
0.97805
0.974506
0.970056
0.964694
0.958412
0.951204
0.943063
0.933981
0.923956
0.912984
0.901065
0.888205
0.874411
0.859699
0.84409
0.827614
0.810307
0.792216
0.773395
0.75391
0.733835
0.713251
0.69225
0.67093
0.649393
0.62775
1.01268
1.01177
1.00993
1.00715
1.00341
0.998722
0.993059
0.986412
0.97877
0.970119
0.960445
0.949736
0.937981
0.925174
0.91131
0.896391
0.880426
0.863431
0.845431
0.826464
0.806578
0.785832
0.764301
0.742069
0.719236
0.695911
0.672216
0.648277
0.624232
1.04054
1.03959
1.03767
1.03477
1.03088
1.02597
1.02004
1.01307
1.00504
0.99592
0.985696
0.974345
0.961846
0.94818
0.933334
0.917298
0.900072
0.881664
0.862093
0.841392
0.819609
0.796809
0.773073
0.7485
0.723209
0.697329
0.671012
0.644419
0.617715
1.06668
1.06571
1.06373
1.06073
1.0567
1.05161
1.04546
1.0382
1.02982
1.02029
1.00957
0.997623
0.984427
0.969945
0.954149
0.937018
0.918534
0.898696
0.877511
0.855005
0.831223
0.806231
0.780119
0.753
0.725012
0.696312
0.667093
0.63754
0.607884
1.09096
1.08997
1.08794
1.08486
1.08072
1.07549
1.06915
1.06165
1.05298
1.04308
1.03191
1.01944
1.0056
0.990353
0.973652
0.955455
0.93573
0.914454
0.891621
0.867243
0.841358
0.814029
0.785354
0.755454
0.724499
0.692677
0.660203
0.627371
0.594385
1.11327
1.11226
1.1102
1.10707
1.10284
1.0975
1.091
1.08331
1.07439
1.06418
1.05264
1.03969
1.02527
1.00931
0.99176
0.972541
0.9516
0.928891
0.904384
0.878073
0.849978
0.82016
0.788706
0.755776
0.721535
0.686216
0.650151
0.613521
0.576854
1.13356
1.13254
1.13046
1.12728
1.123
1.11756
1.11095
1.10311
1.09399
1.08353
1.07166
1.0583
1.04336
1.02677
1.00842
0.988232
0.966112
0.941984
0.915787
0.887484
0.85708
0.824597
0.790166
0.753872
0.716009
0.67681
0.63652
0.59586
0.554786
1.15182
1.1508
1.1487
1.1455
1.14117
1.13568
1.12898
1.12103
1.11175
1.10108
1.08894
1.07523
1.05985
1.04268
1.02361
1.00251
0.979256
0.953736
0.925843
0.895507
0.862674
0.827398
0.789662
0.749785
0.707793
0.664146
0.619437
0.573495
0.527916
1.16809
1.16706
1.16496
1.16174
1.15739
1.15186
1.14511
1.13707
1.12768
1.11685
1.10449
1.09048
1.07471
1.05704
1.03731
1.01537
0.991047
0.964174
0.934598
0.902179
0.866864
0.828517
0.787416
0.743284
0.696942
0.648325
0.597799
0.547115
0.49511
1.18243
1.1814
1.1793
1.17608
1.17172
1.16617
1.15938
1.15129
1.14181
1.13086
1.11833
1.10408
1.08798
1.06987
1.04956
1.02685
1.00152
0.973349
0.94211
0.907619
0.869645
0.828288
0.783083
0.734977
0.683065
0.628823
0.572817
0.514295
0.456947
1.19494
1.19393
1.19183
1.18861
1.18425
1.17869
1.17188
1.16375
1.15422
1.14318
1.13051
1.11608
1.09971
1.08122
1.06039
1.03698
1.01073
0.981326
0.948483
0.911874
0.871344
0.82638
0.777678
0.7238
0.667015
0.605956
0.541985
0.477445
0.41065
1.20576
1.20475
1.20265
1.19945
1.19509
1.18953
1.18272
1.17457
1.165
1.1539
1.14113
1.12654
1.10995
1.09114
1.06986
1.04584
1.01874
0.988187
0.953803
0.915172
0.871806
0.82378
0.769848
0.711926
0.647392
0.579268
0.507602
0.432742
0.358067
1.215
1.214
1.21192
1.20872
1.20437
1.19882
1.19201
1.18386
1.17427
1.16312
1.15028
1.13557
1.1188
1.09972
1.07806
1.05349
1.02563
0.994039
0.958183
0.917569
0.871638
0.819544
0.76204
0.697036
0.626093
0.549733
0.467043
0.381553
0.295347
1.22282
1.22183
1.21975
1.21657
1.21223
1.2067
1.1999
1.19175
1.18215
1.17097
1.15807
1.14327
1.12635
1.10705
1.08507
1.06002
1.0315
0.998929
0.96181
0.919235
0.870646
0.81534
0.751912
0.680977
0.602648
0.515656
0.421671
0.32344
0.222941
1.22936
1.22837
1.22631
1.22314
1.21882
1.21329
1.20651
1.19836
1.18876
1.17757
1.16463
1.14976
1.13272
1.11324
1.09098
1.06555
1.03641
1.00307
0.964603
0.920501
0.869326
0.809961
0.742427
0.664393
0.576078
0.478975
0.371946
0.256503
0.138723
1.23477
1.23378
1.23173
1.22857
1.22426
1.21875
1.21198
1.20384
1.19425
1.18305
1.17008
1.15516
1.13803
1.1184
1.09592
1.07013
1.04054
1.00635
0.967042
0.921068
0.867833
0.805707
0.731912
0.647448
0.550574
0.438511
0.314211
0.182214
0.0426752
1.23917
1.23819
1.23615
1.233
1.2287
1.22321
1.21644
1.20832
1.19873
1.18753
1.17455
1.15958
1.14238
1.12263
1.09997
1.0739
1.04386
1.00915
0.968698
0.921651
0.86627
0.800484
0.723738
0.630683
0.522102
0.396203
0.254064
0.0955686
-0.0704533
1.2427
1.24173
1.23969
1.23655
1.23226
1.22678
1.22003
1.21192
1.20234
1.19113
1.17814
1.16315
1.14589
1.12605
1.10324
1.07693
1.04659
1.01122
0.970242
0.921683
0.864698
0.796492
0.714503
0.615397
0.495664
0.353281
0.18714
0.000578665
-0.201429
1.24548
1.24451
1.24248
1.23935
1.23507
1.2296
1.22286
1.21476
1.20518
1.19398
1.18099
1.16597
1.14868
1.12876
1.10584
1.07933
1.04873
1.01291
0.971297
0.921698
0.863426
0.792315
0.70728
0.601488
0.470353
0.310731
0.117447
-0.107116
-0.35221
1.24762
1.24665
1.24463
1.2415
1.23723
1.23177
1.22504
1.21695
1.20738
1.19618
1.18318
1.16815
1.15083
1.13086
1.10785
1.08118
1.05039
1.01419
0.972084
0.921693
0.862114
0.788958
0.701607
0.587874
0.449376
0.269654
0.045814
-0.224158
-0.533768
1.24921
1.24825
1.24623
1.24311
1.23885
1.23339
1.22667
1.21859
1.20902
1.19783
1.18482
1.16979
1.15244
1.13243
1.10937
1.08256
1.05167
1.01506
0.972787
0.921518
0.86095
0.786428
0.696535
0.57787
0.430739
0.232938
-0.0239534
-0.350445
-0.742921
1.25035
1.24939
1.24737
1.24425
1.24
1.23455
1.22784
1.21976
1.2102
1.19901
1.186
1.17096
1.1536
1.13356
1.11046
1.08357
1.05253
1.01581
0.973029
0.921635
0.860251
0.784469
0.69194
0.570037
0.41649
0.201848
-0.0845046
-0.484068
-0.990309
1.25111
1.25015
1.24813
1.24502
1.24077
1.23533
1.22862
1.22054
1.21099
1.1998
1.1868
1.17175
1.15439
1.13432
1.1112
1.08424
1.05312
1.01627
0.973139
0.921934
0.859117
0.783721
0.687671
0.56556
0.404539
0.179982
-0.134994
-0.6049
-1.26838
1.25156
1.2506
1.24859
1.24547
1.24122
1.23578
1.22907
1.221
1.21144
1.20026
1.18725
1.17219
1.15482
1.13473
1.11158
1.08457
1.05334
1.01651
0.972743
0.922087
0.85812
0.78291
0.683237
0.563058
0.393604
0.164806
-0.17817
-0.705106
-1.51455
1.25177
1.25082
1.2488
1.24568
1.24143
1.23599
1.22927
1.2212
1.21163
1.20043
1.18742
1.17234
1.15494
1.13481
1.11161
1.08452
1.05318
1.01616
0.972054
0.921378
0.856282
0.781286
0.678179
0.559325
0.38227
0.150945
-0.217244
-0.770272
-1.69119
0.484988
0.484685
0.484372
0.484051
0.483721
0.483384
0.483037
0.482683
0.482321
0.48195
0.481572
0.481186
0.480793
0.480393
0.479986
0.479572
0.479151
0.478723
0.47829
0.47785
0.477404
0.476953
0.476496
0.476034
0.475567
0.475095
0.474618
0.474137
0.473651
0.473162
0.472668
0.472171
0.47167
0.471166
0.470659
0.47015
0.469637
0.469122
0.468605
0.468086
0.467565
0.467042
0.466518
0.465993
0.465467
0.46494
0.464412
0.463884
0.463356
0.462827
0.462299
0.461772
0.461245
0.460718
0.460193
0.459669
0.459146
0.458625
0.458106
0.457588
0.457073
0.45656
0.45605
0.455542
0.455037
0.454535
0.454036
0.453541
0.453049
0.452561
0.452077
0.451597
0.451121
0.45065
0.450183
0.44972
0.449263
0.44881
0.448363
0.447921
0.447484
0.447053
0.446627
0.446207
0.445793
0.445386
0.444984
0.444589
0.4442
0.443818
0.443443
0.443074
0.442712
0.442358
0.44201
0.44167
0.441337
0.441012
0.440694
0.440384
0.440082
0.439787
0.439501
0.439223
0.438953
0.438691
0.438438
0.438193
0.437957
0.437729
0.43751
0.437301
0.4371
0.436909
0.436726
0.436554
0.43639
0.436237
0.436093
0.435959
0.435836
0.435722
0.435619
0.435527
0.435445
0.435375
0.435315
0.435267
0.435231
0.435207
0.435195
0.435195
0.435209
0.435236
0.435278
0.435321
0.435404
0.435456
0.435634
0.295793
0.295495
0.295188
0.29487
0.294544
0.294208
0.293863
0.293509
0.293146
0.292775
0.292395
0.292007
0.291611
0.291208
0.290797
0.290379
0.289954
0.289523
0.289085
0.28864
0.28819
0.287734
0.287272
0.286805
0.286332
0.285855
0.285373
0.284887
0.284396
0.283901
0.283402
0.282899
0.282393
0.281883
0.28137
0.280854
0.280335
0.279814
0.279291
0.278766
0.278239
0.27771
0.277179
0.276648
0.276115
0.275582
0.275048
0.274513
0.273978
0.273444
0.272909
0.272375
0.271841
0.271308
0.270776
0.270246
0.269717
0.269189
0.268663
0.268138
0.267616
0.267097
0.26658
0.266066
0.265554
0.265045
0.26454
0.264038
0.26354
0.263046
0.262555
0.262069
0.261586
0.261108
0.260634
0.260166
0.259702
0.259244
0.258791
0.258342
0.257899
0.257462
0.25703
0.256604
0.256184
0.255771
0.255364
0.254964
0.25457
0.254182
0.253801
0.253426
0.253058
0.252698
0.252344
0.251998
0.25166
0.251329
0.251006
0.250691
0.250384
0.250084
0.249792
0.249508
0.249232
0.248964
0.248704
0.248452
0.248209
0.247974
0.247748
0.24753
0.247321
0.247121
0.246929
0.246747
0.246573
0.246408
0.246252
0.246105
0.245967
0.245839
0.245719
0.245608
0.245506
0.245413
0.245329
0.245253
0.245187
0.245129
0.245079
0.245038
0.245004
0.244979
0.244961
0.24495
0.244947
0.244962
0.244927
0.344212
0.343871
0.343519
0.343154
0.342778
0.34239
0.341991
0.341582
0.341161
0.34073
0.340289
0.339839
0.339379
0.338911
0.338435
0.337952
0.337462
0.336965
0.336462
0.335952
0.335436
0.334915
0.334388
0.333855
0.333318
0.332774
0.332226
0.331673
0.331116
0.330554
0.329988
0.329418
0.328844
0.328267
0.327686
0.327102
0.326515
0.325925
0.325333
0.324739
0.324143
0.323546
0.322947
0.322346
0.321745
0.321144
0.320542
0.319939
0.319337
0.318734
0.318133
0.317532
0.316933
0.316335
0.315737
0.315142
0.314548
0.313957
0.313369
0.312783
0.3122
0.311619
0.311042
0.310468
0.309899
0.309333
0.308771
0.308214
0.30766
0.30711
0.306566
0.306027
0.305493
0.304965
0.304442
0.303925
0.303412
0.302905
0.302405
0.301911
0.301424
0.300944
0.30047
0.300002
0.299541
0.299087
0.298639
0.298199
0.297766
0.29734
0.296923
0.296514
0.296112
0.295718
0.295333
0.294955
0.294585
0.294222
0.293868
0.293522
0.293183
0.292853
0.292533
0.292221
0.291919
0.291626
0.291341
0.291066
0.290799
0.290542
0.290293
0.290054
0.289824
0.289603
0.289391
0.289189
0.288996
0.288811
0.288637
0.288471
0.288315
0.288169
0.288031
0.287904
0.287785
0.287676
0.287576
0.287486
0.287405
0.287334
0.287272
0.287219
0.287176
0.287142
0.287118
0.287103
0.287098
0.287108
0.28709
0.371006
0.370647
0.370273
0.369884
0.369481
0.369062
0.368628
0.368178
0.367711
0.367226
0.366722
0.366196
0.365662
0.365129
0.364595
0.364058
0.363518
0.362973
0.362424
0.361871
0.361311
0.360747
0.360177
0.359601
0.35902
0.358433
0.357842
0.357245
0.356643
0.356037
0.355427
0.354813
0.354195
0.353573
0.352949
0.352321
0.351691
0.351058
0.350422
0.349783
0.349142
0.348499
0.347854
0.347208
0.34656
0.345912
0.345263
0.344614
0.343966
0.343318
0.34267
0.342024
0.341379
0.340736
0.340094
0.339455
0.338818
0.338183
0.337552
0.336923
0.336298
0.335676
0.335058
0.334444
0.333834
0.333228
0.332627
0.332031
0.33144
0.330854
0.330273
0.329698
0.329128
0.328564
0.328007
0.327455
0.326909
0.32637
0.325838
0.325312
0.324793
0.324282
0.323777
0.323279
0.322789
0.322306
0.321831
0.321364
0.320904
0.320453
0.320009
0.319573
0.319146
0.318727
0.318317
0.317915
0.317521
0.317136
0.31676
0.316393
0.316035
0.315685
0.315345
0.315013
0.314691
0.314378
0.314074
0.31378
0.313495
0.313219
0.312953
0.312696
0.312448
0.31221
0.311982
0.311763
0.311554
0.311354
0.311164
0.310984
0.310813
0.310651
0.3105
0.310358
0.310225
0.310102
0.309989
0.309885
0.309791
0.309707
0.309631
0.309566
0.309509
0.309462
0.309424
0.309395
0.309376
0.309365
0.309358
0.361075
0.360708
0.360329
0.35994
0.359541
0.359133
0.358718
0.358299
0.357877
0.357455
0.357037
0.356602
0.356117
0.355598
0.355063
0.354513
0.353949
0.353371
0.352782
0.352182
0.351571
0.35095
0.35032
0.349681
0.349034
0.34838
0.347718
0.34705
0.346376
0.345696
0.345011
0.344322
0.343627
0.342928
0.342226
0.34152
0.34081
0.340098
0.339383
0.338665
0.337946
0.337226
0.336506
0.335785
0.335064
0.334343
0.333623
0.332904
0.332187
0.331471
0.330756
0.330043
0.329333
0.328625
0.32792
0.327217
0.326518
0.325822
0.32513
0.324442
0.323758
0.32308
0.322406
0.321736
0.321072
0.320414
0.319761
0.319113
0.318472
0.317837
0.317208
0.316586
0.31597
0.31536
0.314758
0.314163
0.313575
0.312994
0.312421
0.311855
0.311297
0.310746
0.310204
0.30967
0.309144
0.308626
0.308117
0.307616
0.307124
0.306641
0.306166
0.3057
0.305243
0.304795
0.304356
0.303927
0.303506
0.303095
0.302694
0.302302
0.30192
0.301547
0.301184
0.30083
0.300486
0.300152
0.299827
0.299513
0.299208
0.298912
0.298627
0.298352
0.298086
0.297831
0.297585
0.29735
0.297125
0.296909
0.296704
0.296508
0.296323
0.296147
0.295982
0.295827
0.295681
0.295546
0.29542
0.295305
0.295199
0.295103
0.295017
0.294941
0.294874
0.294817
0.29477
0.294733
0.294705
0.294687
0.294676
0.358935
0.35849
0.358029
0.35755
0.357054
0.356542
0.356012
0.355466
0.3549
0.354316
0.353712
0.353112
0.352532
0.351949
0.351346
0.350724
0.350086
0.349432
0.348765
0.348084
0.347391
0.346687
0.345973
0.345249
0.344516
0.343775
0.343027
0.342272
0.34151
0.340743
0.339971
0.339195
0.338414
0.33763
0.336843
0.336053
0.335261
0.334466
0.33367
0.332871
0.332071
0.331272
0.330473
0.329673
0.328874
0.328076
0.327279
0.326483
0.325689
0.324897
0.324106
0.323317
0.32253
0.321745
0.320962
0.32018
0.319399
0.318619
0.317843
0.317074
0.316311
0.315555
0.314806
0.314063
0.313326
0.312597
0.311874
0.311159
0.310451
0.309751
0.309058
0.308373
0.307695
0.307026
0.306365
0.305712
0.305067
0.304431
0.303804
0.303185
0.302575
0.301974
0.301383
0.3008
0.300226
0.299662
0.299108
0.298563
0.298028
0.297503
0.296988
0.296482
0.295987
0.295502
0.295027
0.294562
0.294108
0.293664
0.29323
0.292807
0.292394
0.291992
0.2916
0.291218
0.290847
0.290487
0.290137
0.289798
0.289469
0.289151
0.288844
0.288547
0.288262
0.287986
0.287722
0.287468
0.287225
0.286993
0.286771
0.28656
0.28636
0.286171
0.285992
0.285824
0.285666
0.28552
0.285384
0.285258
0.285144
0.285039
0.284946
0.284863
0.284791
0.284729
0.284678
0.284638
0.284608
0.284588
0.284579
0.364291
0.363756
0.3632
0.362624
0.362029
0.361415
0.360783
0.360133
0.359465
0.35878
0.35808
0.357364
0.356636
0.355897
0.355147
0.354385
0.353611
0.352826
0.35203
0.351223
0.350405
0.349578
0.348741
0.347895
0.34704
0.346177
0.345307
0.344429
0.343546
0.342656
0.341761
0.34086
0.339956
0.339048
0.338136
0.337223
0.336308
0.335393
0.334478
0.333564
0.332651
0.331738
0.330826
0.329915
0.329006
0.328099
0.327194
0.326292
0.325393
0.324497
0.323606
0.32272
0.321838
0.320963
0.320094
0.319233
0.318381
0.317537
0.3167
0.315866
0.315039
0.314216
0.3134
0.312591
0.311789
0.310995
0.310208
0.309429
0.308659
0.307897
0.307144
0.306399
0.305664
0.304939
0.304222
0.303516
0.302819
0.302132
0.301455
0.300788
0.300131
0.299484
0.298848
0.298223
0.29761
0.297007
0.296415
0.295835
0.295265
0.294706
0.294158
0.293621
0.293095
0.29258
0.292076
0.291583
0.291101
0.29063
0.290171
0.289722
0.289285
0.288858
0.288443
0.28804
0.287647
0.287266
0.286896
0.286537
0.28619
0.285854
0.285529
0.285215
0.284913
0.284622
0.284343
0.284074
0.283817
0.283572
0.283337
0.283114
0.282903
0.282702
0.282513
0.282335
0.282168
0.282013
0.281869
0.281736
0.281614
0.281503
0.281404
0.281315
0.281238
0.281172
0.281118
0.281074
0.281041
0.28102
0.281009
0.370477
0.369843
0.369185
0.368504
0.367802
0.367078
0.366333
0.365568
0.364784
0.363981
0.363161
0.362323
0.361469
0.3606
0.359716
0.358818
0.357906
0.356981
0.356044
0.355096
0.354136
0.353167
0.352187
0.351199
0.350202
0.349198
0.348186
0.347169
0.346145
0.345117
0.344084
0.343047
0.342007
0.340964
0.33992
0.338873
0.337827
0.33678
0.335733
0.334687
0.333644
0.332602
0.331563
0.330527
0.329495
0.328467
0.327444
0.326426
0.325413
0.324407
0.323407
0.322413
0.321427
0.320449
0.319478
0.318516
0.317562
0.316617
0.315681
0.314754
0.313836
0.312928
0.312028
0.311138
0.310258
0.309387
0.308527
0.307677
0.306837
0.306007
0.305188
0.30438
0.303583
0.302797
0.302022
0.301259
0.300507
0.299766
0.299038
0.298321
0.297616
0.296923
0.296242
0.295573
0.294915
0.29427
0.293636
0.293013
0.292403
0.291805
0.291219
0.290645
0.290083
0.289533
0.288996
0.28847
0.287957
0.287456
0.286967
0.286491
0.286026
0.285574
0.285134
0.284706
0.28429
0.283886
0.283495
0.283115
0.282748
0.282393
0.28205
0.281719
0.2814
0.281093
0.280798
0.280515
0.280244
0.279985
0.279738
0.279503
0.27928
0.279069
0.27887
0.278682
0.278507
0.278343
0.278191
0.278051
0.277923
0.277806
0.277702
0.277609
0.277527
0.277458
0.2774
0.277354
0.27732
0.277297
0.277285
0.376413
0.375666
0.374892
0.374092
0.373267
0.372417
0.371544
0.370648
0.369731
0.368792
0.367833
0.366855
0.365859
0.364846
0.363816
0.36277
0.36171
0.360636
0.359549
0.358449
0.357339
0.356218
0.355087
0.353947
0.3528
0.351645
0.350485
0.349318
0.348147
0.346971
0.345793
0.344611
0.343428
0.342244
0.34106
0.339875
0.338692
0.33751
0.33633
0.335153
0.33398
0.33281
0.331645
0.330485
0.329331
0.328183
0.327042
0.325908
0.324781
0.323662
0.322552
0.32145
0.320358
0.319275
0.318202
0.317139
0.316086
0.315044
0.314013
0.312993
0.311984
0.310987
0.310001
0.309027
0.308065
0.307115
0.306178
0.305252
0.304339
0.303439
0.302551
0.301676
0.300814
0.299965
0.299129
0.298306
0.297496
0.296699
0.295916
0.295146
0.294388
0.293645
0.292914
0.292197
0.291492
0.290802
0.290124
0.28946
0.288809
0.288172
0.287547
0.286937
0.28634
0.285756
0.285185
0.284628
0.284084
0.283553
0.283036
0.282532
0.282041
0.281563
0.281099
0.280648
0.280209
0.279784
0.279372
0.278973
0.278586
0.278213
0.277852
0.277505
0.27717
0.276848
0.276539
0.276242
0.275958
0.275687
0.275428
0.275182
0.274948
0.274727
0.274518
0.274322
0.274139
0.273967
0.273808
0.273662
0.273528
0.273406
0.273296
0.273199
0.273114
0.273041
0.27298
0.272932
0.272896
0.272872
0.27286
0.383026
0.382142
0.381228
0.380283
0.37931
0.378309
0.377281
0.376227
0.375149
0.374048
0.372924
0.371778
0.370613
0.369429
0.368227
0.367008
0.365773
0.364524
0.363262
0.361987
0.3607
0.359404
0.358098
0.356784
0.355463
0.354135
0.352802
0.351465
0.350125
0.348782
0.347437
0.346092
0.344746
0.343402
0.342059
0.340719
0.339381
0.338048
0.33672
0.335396
0.334079
0.332768
0.331464
0.330168
0.32888
0.327601
0.326331
0.325071
0.323821
0.322582
0.321354
0.320137
0.318931
0.317738
0.316557
0.315389
0.314234
0.313092
0.311963
0.310848
0.309746
0.308659
0.307585
0.306526
0.305482
0.304451
0.303436
0.302435
0.301448
0.300477
0.299521
0.298579
0.297653
0.296741
0.295845
0.294963
0.294097
0.293245
0.292409
0.291588
0.290782
0.289991
0.289215
0.288454
0.287707
0.286976
0.28626
0.285558
0.284871
0.284199
0.283542
0.282899
0.282271
0.281657
0.281058
0.280474
0.279904
0.279348
0.278806
0.278279
0.277766
0.277267
0.276782
0.276311
0.275854
0.275411
0.274981
0.274566
0.274164
0.273775
0.273401
0.273039
0.272692
0.272357
0.272036
0.271728
0.271434
0.271153
0.270885
0.27063
0.270388
0.270159
0.269943
0.26974
0.26955
0.269372
0.269208
0.269056
0.268918
0.268792
0.268678
0.268578
0.26849
0.268415
0.268352
0.268302
0.268265
0.26824
0.268228
0.390381
0.389333
0.38825
0.387133
0.385982
0.3848
0.383588
0.382347
0.381079
0.379784
0.378465
0.377122
0.375758
0.374373
0.37297
0.371548
0.370111
0.368659
0.367193
0.365715
0.364226
0.362727
0.36122
0.359706
0.358186
0.356661
0.355133
0.353603
0.352071
0.350538
0.349007
0.347477
0.34595
0.344426
0.342908
0.341394
0.339887
0.338386
0.336894
0.335409
0.333934
0.332469
0.331014
0.32957
0.328138
0.326718
0.325311
0.323916
0.322535
0.321168
0.319815
0.318477
0.317154
0.315846
0.314553
0.313277
0.312016
0.310772
0.309544
0.308332
0.307137
0.305959
0.304798
0.303654
0.302528
0.301418
0.300326
0.299251
0.298193
0.297152
0.296129
0.295123
0.294135
0.293163
0.292209
0.291272
0.290353
0.28945
0.288565
0.287696
0.286844
0.286009
0.285191
0.28439
0.283605
0.282837
0.282085
0.281349
0.28063
0.279926
0.279239
0.278568
0.277913
0.277273
0.276649
0.276041
0.275448
0.27487
0.274308
0.273761
0.273229
0.272712
0.272209
0.271722
0.271249
0.270791
0.270348
0.269919
0.269504
0.269104
0.268718
0.268345
0.267987
0.267643
0.267313
0.266997
0.266694
0.266405
0.266129
0.265868
0.265619
0.265384
0.265163
0.264955
0.26476
0.264578
0.26441
0.264255
0.264112
0.263983
0.263867
0.263765
0.263675
0.263598
0.263534
0.263483
0.263445
0.263419
0.263407
0.398441
0.397199
0.395916
0.394594
0.393234
0.391838
0.390409
0.388947
0.387455
0.385935
0.384387
0.382815
0.381219
0.379602
0.377965
0.37631
0.374639
0.372953
0.371254
0.369544
0.367824
0.366096
0.364361
0.362621
0.360877
0.359131
0.357384
0.355638
0.353893
0.35215
0.350412
0.348679
0.346952
0.345232
0.343521
0.341818
0.340126
0.338445
0.336776
0.335119
0.333475
0.331845
0.33023
0.328629
0.327045
0.325476
0.323925
0.32239
0.320873
0.319374
0.317893
0.31643