/*--------------------------------*- C++ -*----------------------------------*\
| =========                 |                                                 |
| \\      /  F ield         | OpenFOAM: The Open Source CFD Toolbox           |
|  \\    /   O peration     | Version:  5.x                                   |
|   \\  /    A nd           | Web:      www.OpenFOAM.org                      |
|    \\/     M anipulation  |                                                 |
\*---------------------------------------------------------------------------*/
/*   Windows 32 and 64 bit porting by blueCAPE: http://www.bluecape.com.pt   *\
|  Based on Windows porting (2.0.x v4) by Symscape: http://www.symscape.com   |
\*---------------------------------------------------------------------------*/
FoamFile
{
    version     2.0;
    format      ascii;
    class       surfaceScalarField;
    location    "10";
    object      phi;
}
// * * * * * * * * * * * * * * * * * * * * * * * * * * * * * * * * * * * * * //

dimensions      [0 3 -1 0 0 0 0];

internalField   nonuniform List<scalar> 
87341
(
0.325365
39.5977
0.363891
39.8845
0.402414
39.8845
0.441459
39.884
0.480979
39.8835
0.521121
39.8829
0.561822
39.8823
0.603023
39.8818
0.644671
39.8814
0.686714
39.881
0.729105
39.8806
0.771797
39.8803
0.81475
39.8801
0.857922
39.8799
0.901276
39.8797
0.94478
39.8795
0.988398
39.8794
1.0321
39.8793
1.07585
39.8793
1.11963
39.8793
1.16341
39.8793
1.20634
39.8801
1.2492
39.8802
1.29197
39.8803
1.33464
39.8804
1.37716
39.8805
1.41953
39.8807
1.4617
39.8809
39.8807
1.50403
0.208084
39.3896
0.282905
39.8097
0.357076
39.8103
0.431223
39.8098
0.505307
39.8094
0.579118
39.8091
0.652657
39.8088
0.72592
39.8086
0.798904
39.8084
0.871601
39.8083
0.944002
39.8082
1.0161
39.8083
1.08787
39.8083
1.15931
39.8084
1.23041
39.8086
1.301
39.8089
1.37122
39.8092
1.44103
39.8095
1.51043
39.8099
1.57939
39.8103
1.64784
39.8108
1.71656
39.8114
1.78484
39.8119
1.8526
39.8125
1.91986
39.8131
1.98644
39.8139
2.05246
39.8146
2.11792
39.8154
39.8167
2.18193
0.137308
39.2523
0.222948
39.7241
0.307189
39.7261
0.391071
39.726
0.474598
39.7259
0.557758
39.7259
0.640535
39.726
0.722914
39.7262
0.804876
39.7264
0.886406
39.7268
0.967484
39.7272
1.04809
39.7276
1.12821
39.7282
1.20783
39.7288
1.28692
39.7295
1.36608
39.7298
1.44468
39.7306
1.52269
39.7315
1.60009
39.7325
1.67687
39.7335
1.75323
39.7344
1.83058
39.734
1.90728
39.7352
1.98329
39.7365
2.0586
39.7378
2.13384
39.7387
2.20835
39.7401
2.28211
39.7416
39.7427
2.35606
0.0969738
39.1553
0.192344
39.6287
0.287209
39.6312
0.38172
39.6315
0.475871
39.6318
0.569653
39.6321
0.663051
39.6326
0.756053
39.6332
0.848643
39.6339
0.940806
39.6346
1.03252
39.6354
1.12378
39.6364
1.21455
39.6374
1.30483
39.6385
1.39459
39.6397
1.48345
39.6409
1.57175
39.6423
1.65948
39.6438
1.74661
39.6454
1.83312
39.647
1.91887
39.6487
2.00365
39.6493
2.08774
39.6511
2.17112
39.6531
2.25377
39.6552
2.33529
39.6572
2.41605
39.6594
2.49602
39.6617
39.6637
2.57502
0.0982753
39.057
0.196783
39.5302
0.295308
39.5327
0.39368
39.5331
0.49186
39.5336
0.589813
39.5342
0.687503
39.5349
0.784895
39.5358
0.881956
39.5368
0.978653
39.5379
1.07495
39.5391
1.17082
39.5405
1.26623
39.542
1.36115
39.5436
1.45555
39.5453
1.54926
39.5472
1.64239
39.5492
1.73491
39.5513
1.82678
39.5535
1.91797
39.5558
2.00841
39.5583
2.09738
39.5603
2.18554
39.5629
2.27291
39.5657
2.35945
39.5686
2.445
39.5716
2.52964
39.5747
2.61336
39.578
39.5813
2.69583
0.102406
38.9546
0.204993
39.4276
0.307472
39.4302
0.409824
39.4307
0.512008
39.4314
0.613984
39.4322
0.715711
39.4332
0.817148
39.4344
0.918255
39.4357
1.01899
39.4372
1.11932
39.4388
1.2192
39.4406
1.3186
39.4426
1.41747
39.4447
1.51578
39.447
1.6135
39.4495
1.71059
39.4521
1.80702
39.4548
1.90274
39.4578
1.99773
39.4608
2.09195
39.464
2.18495
39.4673
2.2771
39.4708
2.36837
39.4744
2.45875
39.4782
2.54821
39.4822
2.6367
39.4862
2.72421
39.4904
39.4948
2.8107
0.112171
38.8425
0.22574
39.314
0.339136
39.3168
0.452376
39.3175
0.565411
39.3184
0.678191
39.3194
0.790667
39.3207
0.902789
39.3222
1.01451
39.324
1.12578
39.3259
1.23656
39.328
1.34678
39.3304
1.45642
39.333
1.56543
39.3357
1.67375
39.3387
1.78135
39.3419
1.88817
39.3453
1.99419
39.3488
2.09936
39.3526
2.20363
39.3566
2.30697
39.3607
2.40919
39.3651
2.5104
39.3696
2.61057
39.3743
2.70966
39.3792
2.80763
39.3842
2.90445
39.3894
3.00008
39.3948
39.4004
3.09452
0.125605
38.7168
0.253146
39.1865
0.380517
39.1895
0.5077
39.1903
0.634635
39.1914
0.761262
39.1928
0.887521
39.1945
1.01335
39.1964
1.1387
39.1986
1.26349
39.2011
1.38769
39.2039
1.51122
39.2069
1.63403
39.2102
1.75606
39.2137
1.87726
39.2175
1.99758
39.2216
2.11696
39.2259
2.23534
39.2304
2.35268
39.2353
2.46892
39.2403
2.58401
39.2456
2.69794
39.2511
2.81062
39.2569
2.92201
39.2629
3.03207
39.2691
3.14075
39.2755
3.24801
39.2822
3.35382
39.289
39.296
3.45813
0.139988
38.5769
0.281898
39.0446
0.423608
39.0478
0.565095
39.0488
0.706283
39.0502
0.847098
39.052
0.987467
39.0541
1.12732
39.0566
1.26657
39.0594
1.40516
39.0625
1.54302
39.066
1.68007
39.0698
1.81624
39.074
1.95147
39.0785
2.08568
39.0833
2.21882
39.0884
2.35082
39.0939
2.48161
39.0997
2.61113
39.1057
2.73933
39.1121
2.86613
39.1188
2.9915
39.1258
3.11536
39.133
3.23766
39.1406
3.35835
39.1484
3.47739
39.1565
3.59471
39.1648
3.71027
39.1734
39.1823
3.82404
0.156112
38.4207
0.314316
38.8864
0.472275
38.8898
0.62996
38.8911
0.787279
38.8929
0.944143
38.8951
1.10046
38.8978
1.25614
38.9009
1.4111
38.9044
1.56525
38.9084
1.7185
38.9128
1.87076
38.9176
2.02196
38.9228
2.17201
38.9284
2.32082
38.9345
2.46832
38.9409
2.61444
38.9478
2.75908
38.955
2.90218
38.9626
3.04367
38.9706
3.18347
38.979
3.32152
38.9877
3.45775
38.9968
3.59209
39.0062
3.72448
39.016
3.85486
39.0261
3.98318
39.0365
4.10937
39.0472
39.0583
4.23338
0.174415
38.2463
0.351135
38.7096
0.527555
38.7134
0.703636
38.7151
0.879269
38.7173
1.05434
38.7201
1.22874
38.7234
1.40236
38.7273
1.57508
38.7317
1.74681
38.7366
1.91744
38.7421
2.08686
38.7481
2.25497
38.7547
2.42166
38.7617
2.58685
38.7693
2.75043
38.7773
2.9123
38.7859
3.07238
38.7949
3.23058
38.8044
3.3868
38.8144
3.54097
38.8248
3.693
38.8357
3.84281
38.847
3.99033
38.8587
4.13548
38.8709
4.27819
38.8834
4.4184
38.8963
4.55604
38.9096
38.9232
4.69107
0.194989
38.0513
0.392516
38.5121
0.589678
38.5162
0.786422
38.5183
0.982614
38.5211
1.17812
38.5246
1.37279
38.5287
1.5665
38.5335
1.75913
38.5391
1.95052
38.5452
2.14056
38.5521
2.32912
38.5596
2.51607
38.5677
2.70129
38.5765
2.88466
38.5859
3.06606
38.5959
3.24538
38.6066
3.42251
38.6178
3.59734
38.6296
3.76976
38.642
3.93967
38.6549
4.10699
38.6684
4.2716
38.6824
4.43343
38.6969
4.59239
38.7119
4.74839
38.7274
4.90136
38.7433
5.05123
38.7597
38.7765
5.19794
0.21798
37.8334
0.438751
38.2913
0.659078
38.2959
0.878892
38.2985
1.09803
38.302
1.31631
38.3063
1.53358
38.3114
1.74967
38.3175
1.96442
38.3243
2.17766
38.332
2.38924
38.3405
2.59901
38.3498
2.8068
38.3599
3.01248
38.3708
3.21589
38.3825
3.41689
38.3949
3.61535
38.4081
3.81114
38.422
4.00412
38.4366
4.19416
38.4519
4.38116
38.4679
4.56499
38.4846
4.74555
38.5018
4.92272
38.5197
5.09642
38.5382
5.26654
38.5573
5.43299
38.5769
5.5957
38.597
38.6176
5.7546
0.243549
37.5898
0.490164
38.0447
0.736238
38.0498
0.981683
38.0531
1.22629
38.0573
1.46986
38.0627
1.71219
38.0691
1.95306
38.0766
2.19229
38.0851
2.42968
38.0946
2.66503
38.1052
2.89815
38.1167
3.12887
38.1292
3.357
38.1427
3.58236
38.1571
3.80478
38.1725
4.0241
38.1888
4.24016
38.206
4.45281
38.224
4.66189
38.2429
4.86726
38.2625
5.06879
38.283
5.26635
38.3043
5.45982
38.3263
5.64908
38.3489
5.83403
38.3723
6.01455
38.3964
6.19057
38.421
38.4462
6.362
0.271856
37.318
0.547072
37.7695
0.821631
37.7753
1.09542
37.7793
1.36819
37.7846
1.63968
37.7912
1.90965
37.7991
2.17784
37.8084
2.44403
37.8189
2.70796
37.8307
2.9694
37.8437
3.22813
37.858
3.48392
37.8734
3.73655
37.8901
3.98581
37.9079
4.23149
37.9268
4.47341
37.9469
4.71136
37.968
4.94516
37.9902
5.17464
38.0134
5.39962
38.0376
5.61997
38.0627
5.83551
38.0887
6.04611
38.1156
6.25164
38.1434
6.45198
38.172
6.64701
38.2013
6.83662
38.2314
38.2621
7.02074
0.303066
37.0149
0.609803
37.4628
0.915747
37.4693
1.22075
37.4743
1.52451
37.4808
1.82671
37.489
2.12705
37.4988
2.42523
37.5102
2.72095
37.5232
3.01393
37.5377
3.30389
37.5538
3.59053
37.5713
3.87361
37.5904
4.15284
37.6108
4.42798
37.6327
4.69879
37.656
4.96502
37.6807
5.22645
37.7066
5.48286
37.7338
5.73405
37.7622
5.97982
37.7918
6.21998
37.8225
6.45437
37.8543
6.68282
37.8872
6.90517
37.9211
7.1213
37.9559
7.33107
37.9916
7.53437
38.0281
38.0653
7.73112
0.337323
36.6776
0.678649
37.1214
1.01902
37.1289
1.35825
37.135
1.69596
37.1431
2.03178
37.1532
2.36535
37.1652
2.69629
37.1793
3.02425
37.1952
3.34888
37.2131
3.66984
37.2328
3.98679
37.2544
4.29941
37.2777
4.60738
37.3029
4.91041
37.3297
5.20819
37.3582
5.50045
37.3884
5.78692
37.4201
6.06734
37.4534
6.34148
37.4881
6.6091
37.5242
6.86999
37.5616
7.12395
37.6004
7.3708
37.6404
7.61036
37.6815
7.84249
37.7237
8.06705
37.767
8.28391
37.8112
37.8563
8.49297
0.374778
36.3028
0.753907
36.7423
1.13189
36.751
1.50849
36.7584
1.88325
36.7683
2.25573
36.7807
2.62547
36.7955
2.99204
36.8127
3.35501
36.8322
3.71396
36.8541
4.06847
36.8783
4.41815
36.9047
4.7626
36.9333
5.10146
36.964
5.43435
36.9968
5.76094
37.0317
6.08089
37.0684
6.39389
37.1071
6.69963
37.1476
6.99784
37.1898
7.28825
37.2338
7.57062
37.2793
7.84472
37.3263
8.11034
37.3747
8.36729
37.4245
8.6154
37.4756
8.85453
37.5279
9.08453
37.5812
37.6355
9.30532
0.415513
35.8873
0.835738
36.3221
1.2546
36.3321
1.67179
36.3412
2.08677
36.3534
2.499
36.3685
2.90794
36.3866
3.31307
36.4076
3.71387
36.4314
4.10983
36.4582
4.50047
36.4876
4.8853
36.5199
5.26387
36.5547
5.63573
36.5922
6.00045
36.6321
6.35762
36.6745
6.70685
36.7192
7.04778
36.7662
7.38004
36.8153
7.70333
36.8666
8.01733
36.9198
8.32177
36.9748
8.61638
37.0317
8.90093
37.0902
9.17521
37.1503
9.43905
37.2118
9.69227
37.2747
9.93475
37.3388
37.4038
10.1664
0.459565
35.4277
0.924217
35.8574
1.38725
35.8691
1.8483
35.8802
2.3067
35.895
2.76181
35.9134
3.21299
35.9354
3.65962
35.9609
4.10107
35.99
4.53675
36.0225
4.96608
36.0583
5.38848
36.0975
5.80341
36.1398
6.21035
36.1852
6.60878
36.2337
6.99823
36.285
7.37824
36.3392
7.74838
36.396
8.10825
36.4555
8.45747
36.5173
8.79569
36.5815
9.12259
36.6479
9.43788
36.7164
9.74131
36.7868
10.0326
36.8589
10.3117
36.9327
10.5783
37.0081
10.8323
37.0848
37.1625
11.0735
0.506931
34.9208
1.01934
35.345
1.52984
35.3586
2.03798
35.3721
2.54298
35.39
3.04407
35.4123
3.5405
35.4389
4.03153
35.4699
4.51642
35.5051
4.99447
35.5444
5.46498
35.5878
5.92729
35.6351
6.38075
35.6863
6.82474
35.7412
7.25867
35.7997
7.68198
35.8617
8.09414
35.927
8.49464
35.9955
8.88303
36.0671
9.25886
36.1415
9.62174
36.2187
9.9713
36.2984
10.3072
36.3804
10.6292
36.4647
10.9371
36.5511
11.2305
36.6393
11.5095
36.7292
11.7737
36.8206
36.9131
12.0231
0.557501
34.3633
1.12087
34.7817
1.68202
34.7974
2.24039
34.8137
2.79506
34.8353
3.34513
34.8622
3.88972
34.8944
4.42794
34.9317
4.95894
34.9741
5.48189
35.0215
5.99598
35.0737
6.50042
35.1307
6.99446
35.1923
7.47737
35.2583
7.94846
35.3286
8.40708
35.4031
8.85261
35.4815
9.28447
35.5637
9.70212
35.6494
10.1051
35.7386
10.4929
35.8309
10.8651
35.9261
11.2214
36.0241
11.5615
36.1247
11.885
36.2275
12.1918
36.3325
12.4818
36.4393
12.7547
36.5477
36.6573
13.0104
0.611064
33.7522
1.22841
34.1643
1.84317
34.1826
2.45469
34.2022
3.0619
34.2281
3.66376
34.2604
4.25921
34.2989
4.84724
34.3437
5.42685
34.3945
5.99707
34.4513
6.55696
34.5138
7.10559
34.5821
7.6421
34.6558
8.16563
34.7348
8.67539
34.8189
9.1706
34.9079
9.65057
35.0015
10.1146
35.0996
10.5621
35.2019
10.9925
35.3082
11.4053
35.4181
11.8
35.5314
12.1762
35.6479
12.5336
35.7673
12.8718
35.8893
13.1907
36.0136
13.4901
36.1399
13.7699
36.2679
36.3973
14.0299
0.667288
33.0849
1.34127
33.4903
2.0123
33.5116
2.67958
33.5349
3.3419
33.5658
3.99803
33.6042
4.64677
33.6502
5.28695
33.7035
5.91742
33.764
6.53703
33.8316
7.14471
33.9062
7.73939
33.9874
8.32005
34.0751
8.88572
34.1691
9.43546
34.2691
9.9684
34.3749
10.4837
34.4862
10.9806
34.6027
11.4584
34.7241
11.9164
34.8501
12.3541
34.9804
12.7709
35.1146
13.1664
35.2525
13.5401
35.3935
13.8919
35.5375
14.2214
35.6841
14.5284
35.8328
14.813
35.9834
36.1354
15.0749
0.725711
32.3592
1.45853
32.7575
2.18802
32.7821
2.91323
32.8097
3.63278
32.8462
4.34528
32.8917
5.04936
32.9461
5.74366
33.0092
6.42687
33.0808
7.09769
33.1608
7.75487
33.249
8.39718
33.3451
9.02345
33.4488
9.63256
33.56
10.2234
33.6783
10.795
33.8033
11.3464
33.9348
11.8767
34.0724
12.3851
34.2158
12.8708
34.3644
13.3332
34.5181
13.7716
34.6762
14.1855
34.8385
14.5746
35.0044
14.9385
35.1736
15.2769
35.3456
15.5897
35.5201
15.8768
35.6963
35.8741
16.1381
0.785713
31.5735
1.57896
31.9643
2.36849
31.9926
3.15322
32.025
3.93158
32.0679
4.702
32.1213
5.46295
32.1851
6.21289
32.2592
6.95031
32.3434
7.67376
32.4374
8.38179
32.541
9.07302
32.6539
9.74609
32.7758
10.3997
32.9064
11.0326
33.0453
11.6437
33.1923
12.2318
33.3467
12.7959
33.5083
13.3351
33.6766
13.8485
33.8511
14.3352
34.0313
14.7947
34.2167
15.2264
34.4068
15.6297
34.6011
16.0043
34.799
16.3499
35
16.6664
35.2036
16.9536
35.409
35.6161
17.2116
0.846525
30.727
1.70103
31.1098
2.55144
31.1422
3.39653
31.1799
4.23457
31.2298
5.06382
31.292
5.88256
31.3664
6.68907
31.4527
7.48167
31.5508
8.2587
31.6603
9.01855
31.7811
9.75962
31.9128
10.4804
32.055
11.1794
32.2074
11.8551
32.3696
12.5063
32.5411
13.1317
32.7214
13.73
32.91
14.3001
33.1064
14.8411
33.3101
15.352
33.5204
15.8321
33.7367
16.2806
33.9583
16.697
34.1847
17.0809
34.4151
17.432
34.649
17.7501
34.8855
18.0351
35.124
35.3642
18.287
0.907231
29.8198
1.82289
30.1941
2.73413
30.2309
3.63958
30.2744
4.53736
30.332
5.42556
30.4038
6.30228
30.4897
7.16564
30.5894
8.01377
30.7027
8.84482
30.8293
9.65697
30.969
10.4484
31.1213
11.2175
31.286
11.9624
31.4625
12.6816
31.6504
13.3735
31.8492
14.0365
32.0583
14.6694
32.2772
15.2707
32.5051
15.8394
32.7414
16.3743
32.9855
16.8745
33.2365
17.3392
33.4936
17.7678
33.7562
18.1597
34.0233
18.5146
34.2941
18.8322
34.5679
19.1127
34.8436
35.1211
19.3558
0.966778
28.853
1.94246
29.2184
2.91345
29.26
3.87826
29.3096
4.83488
29.3754
5.78126
29.4575
6.71534
29.5556
7.63507
29.6696
8.53841
29.7993
9.42332
29.9444
10.2878
30.1045
11.1298
30.2793
11.9474
30.4684
12.7386
30.6712
13.5016
30.8874
14.2346
31.1162
14.9359
31.3571
15.6037
31.6093
16.2367
31.8722
16.8332
32.1449
17.3922
32.4265
17.9123
32.7163
18.3928
33.0132
18.8327
33.3162
19.2315
33.6245
19.5888
33.9368
19.9042
34.2524
20.1778
34.57
34.8894
20.4094
1.02401
27.829
2.05743
28.185
3.08597
28.2314
4.10806
28.2875
5.1216
28.3619
6.12441
28.4546
7.11431
28.5657
8.0891
28.6948
9.04658
28.8418
9.98452
29.0064
10.9007
29.1883
11.7929
29.3871
12.659
29.6023
13.4967
29.8335
14.3039
30.0802
15.0785
30.3416
15.8184
30.6171
16.5218
30.9059
17.1869
31.2071
17.8118
31.5199
18.3951
31.8432
18.9354
32.176
19.4315
32.5171
19.8824
32.8653
20.2874
33.2195
20.6458
33.5784
20.9574
33.9408
21.2221
34.3053
34.6717
21.4399
1.07772
26.7512
2.16536
27.0974
3.24807
27.1487
4.32422
27.2114
5.39163
27.2945
6.44808
27.3982
7.49128
27.5225
8.51894
27.6672
9.52869
27.8321
10.5182
28.017
11.4849
28.2215
12.4266
28.4454
13.3407
28.6883
14.2247
28.9495
15.0762
29.2287
15.8928
29.525
16.6721
29.8378
17.4119
30.1661
18.1099
30.5092
18.764
30.8658
19.3725
31.2348
19.9335
31.615
20.4456
32.005
20.9075
32.4034
21.3182
32.8088
21.6771
33.2195
21.9837
33.6343
22.2379
34.0511
34.4701
22.4394
1.12667
25.6246
2.26382
25.9602
3.39612
26.0164
4.52191
26.0856
5.63905
26.1773
6.74527
26.292
7.83826
26.4295
8.91563
26.5898
9.97495
26.7728
11.0137
26.9782
12.0293
27.206
13.019
27.4557
13.9803
27.727
14.9102
28.0196
15.8061
28.3328
16.6652
28.6659
17.4846
29.0183
18.2617
29.3891
18.9938
29.777
19.6785
30.1811
20.3133
30.6
20.8961
31.0321
21.4252
31.476
21.8987
31.9298
22.3155
32.3919
22.6747
32.8603
22.9755
33.3335
23.2177
33.8089
34.2866
23.4012
1.1697
24.4549
2.35046
24.7794
3.5266
24.8403
4.69652
24.9157
5.85811
25.0157
7.00918
25.1409
8.14742
25.2913
9.27045
25.4668
10.3758
25.6675
11.4607
25.8933
12.5226
26.144
13.5586
26.4197
14.5658
26.7199
15.541
27.0443
16.4812
27.3926
17.3831
27.764
18.2435
28.1579
19.0592
28.5734
19.827
29.0092
20.5438
29.4642
21.2069
29.9369
21.8133
30.4256
22.3609
30.9284
22.8474
31.4433
23.2712
31.9682
23.631
32.5006
23.9258
33.0386
24.1553
33.5794
34.1228
24.3191
1.20575
23.2491
2.42316
23.562
3.63636
23.6271
4.84382
23.7082
6.04359
23.816
7.23358
23.9509
8.41159
24.1133
9.57525
24.3031
10.7221
24.5206
11.8495
24.7659
12.9545
25.039
14.0343
25.3399
15.0855
25.6686
16.105
26.0249
17.089
26.4085
18.0341
26.819
18.9365
27.2556
19.7922
27.7176
20.5977
28.2038
21.3491
28.7129
22.0428
29.2432
22.6754
29.793
23.2438
30.36
23.7454
30.9417
24.1779
31.5357
24.5394
32.139
24.8287
32.7493
25.0452
33.363
33.9798
25.1881
1.23394
22.0152
2.48017
22.3158
3.72274
22.3845
4.96028
22.4707
6.19105
22.5852
7.41315
22.7288
8.62452
22.9019
9.82296
23.1047
11.006
23.3375
12.1711
23.6008
13.3154
23.8947
14.4358
24.2196
15.5288
24.5756
16.5909
24.9628
17.6182
25.3812
18.6067
25.8305
19.5519
26.3104
20.4495
26.82
21.2948
27.3584
22.0835
27.9242
22.8109
28.5158
23.4729
29.131
24.0655
29.7674
24.5852
30.422
25.0288
31.0921
25.394
31.7738
25.6791
32.4642
25.8828
33.1593
33.8584
26.0042
1.25364
20.7615
2.52018
21.0493
3.78377
21.1209
5.04323
21.2112
6.2971
21.3313
7.54375
21.4822
8.78135
21.6643
10.0079
21.8782
11.2211
22.1243
12.4185
22.4034
13.5973
22.7159
14.7543
23.0625
15.8861
23.4438
16.9889
23.8601
18.0583
24.3117
19.09
24.7989
20.0789
25.3214
21.02
25.8789
21.9078
26.4705
22.737
27.0951
23.5019
27.7508
24.1973
28.4356
24.8181
29.1466
25.3598
29.8804
25.8181
30.6338
26.1899
31.402
26.4728
32.1814
26.6647
32.9674
33.7586
26.7645
1.26447
19.4971
2.54243
19.7713
3.81827
19.8451
5.09103
19.9384
6.35962
20.0627
7.6227
20.2191
8.87877
20.4082
10.1261
20.6308
11.3627
20.8877
12.5862
21.1798
13.794
21.5081
14.9831
21.8735
16.1499
22.277
17.2904
22.7195
18.4003
23.2019
19.4746
23.7247
20.5077
24.2883
21.494
24.8927
22.427
25.5376
23.3002
26.2219
24.1069
26.9441
24.8405
27.702
25.4945
28.4926
26.063
29.3119
26.5407
30.1561
26.923
31.0196
27.2065
31.8979
27.3888
32.7851
33.6804
27.467
1.26634
18.2307
2.54673
18.4909
3.82589
18.5659
5.10316
18.6612
6.3778
18.7881
7.64888
18.948
8.91526
19.1418
10.1756
19.3705
11.4281
19.6352
12.6709
19.937
13.9016
20.2774
15.1172
20.6579
16.3144
21.0798
17.4892
21.5447
18.637
22.054
19.7526
22.6091
20.83
23.2108
21.8627
23.86
22.8434
24.5569
23.7644
25.3009
24.6176
26.0909
25.3948
26.9248
26.0879
27.7995
26.6894
28.7104
27.192
29.6535
27.5898
30.6218
27.8786
31.6091
28.0525
32.6112
33.6213
28.1116
1.25946
16.9713
2.53344
17.2169
3.80714
17.2922
5.08018
17.3881
6.35225
17.516
7.62281
17.6775
8.89115
17.8735
10.1563
18.1054
11.4171
18.3744
12.6717
18.6823
13.9183
19.0308
15.1543
19.4219
16.3765
19.8576
17.581
20.3401
18.7634
20.8717
19.9182
21.4543
21.0391
22.0899
22.1189
22.7803
23.1495
23.5263
24.1219
24.3285
25.0265
25.1862
25.8534
26.0979
26.5925
27.0603
27.2335
28.0694
27.7684
29.1187
28.1882
30.2019
28.4849
31.3123
28.6594
32.4368
33.5838
28.6968
1.24427
15.727
2.50346
15.9577
3.7633
16.0324
5.02373
16.1277
6.28483
16.2549
7.54653
16.4158
8.80854
16.6115
10.0704
16.8435
11.3313
17.1135
12.5901
17.4235
13.8452
17.7757
15.0946
18.1726
16.3354
18.6168
17.5643
19.1113
18.7768
19.6591
19.9676
20.2635
21.1302
20.9273
22.2569
21.6535
23.3389
22.4443
24.366
23.3014
25.327
24.2253
26.21
25.2148
27.0017
26.2687
27.6921
27.3791
28.2654
28.5453
28.7139
29.7535
29.0337
30.9925
29.1979
32.2725
33.554
29.2278
1.22145
14.5056
2.4581
14.7211
3.69631
14.7942
4.93629
14.8877
6.17855
15.0127
7.42343
15.1709
8.67112
15.3638
9.92162
15.593
11.1747
15.8605
12.4296
16.1686
13.6855
16.5198
14.9407
16.9173
16.1932
17.3643
17.4399
17.8646
18.677
18.4221
19.8993
19.0411
21.1006
19.7261
22.273
20.4812
23.4069
21.3104
24.4911
22.2171
25.5132
23.2033
26.4579
24.2701
27.313
25.4136
28.0562
26.636
28.6832
27.9183
29.1724
29.2644
29.4993
30.6655
29.6992
32.0726
33.5536
29.6996
1.19183
13.3137
2.39903
13.5139
3.60861
13.5846
4.82106
13.6753
6.03726
13.7965
7.25798
13.9502
8.48386
14.1379
9.71537
14.3615
10.9528
14.6231
12.196
14.9253
13.4447
15.2711
14.698
15.664
15.9544
16.1079
17.2117
16.6073
18.4666
17.1672
19.7147
17.793
20.9502
18.4906
22.1653
19.2661
23.3502
20.1255
24.4931
21.0742
25.5793
22.117
26.5947
23.2547
27.5136
24.4947
28.3342
25.8153
29.0108
27.2417
29.5425
28.7326
29.9433
30.2648
30.101
31.9149
33.5332
30.1214
1.15635
12.1574
2.32812
12.3421
3.50299
12.4098
4.68171
12.4965
5.86548
12.6127
7.05545
12.7602
8.2527
12.9407
9.45815
13.156
10.6726
13.4087
11.8965
13.7014
13.1303
14.0374
14.3736
14.4207
15.6259
14.8556
16.8857
15.3475
18.1508
15.9021
19.4176
16.5261
20.6812
17.2271
21.9344
18.0129
23.1677
18.8922
24.369
19.873
25.5233
20.9627
26.608
22.1701
27.6179
23.4847
28.492
24.9412
29.2616
26.4721
29.8699
28.1242
30.2406
29.8942
30.5153
31.6402
33.5453
30.5032
1.11602
11.0414
2.24738
11.2107
3.38244
11.2747
4.52217
11.3568
5.66806
11.4668
6.82159
11.6067
7.98422
11.778
9.15729
11.983
10.3421
12.2239
11.5397
12.5038
12.7509
12.8261
13.9765
13.1951
15.2165
13.6156
16.4706
14.0934
17.7374
14.6352
19.0147
15.2488
20.2987
15.9431
21.5833
16.7282
22.8606
17.6149
24.1178
18.6158
25.3382
19.7422
26.5108
20.9975
27.579
22.4165
28.586
23.9342
29.4072
25.651
30.0567
27.4747
30.603
29.3479
30.8014
31.4418
33.5397
30.8069
1.07184
9.96951
2.15881
10.1238
3.24997
10.1835
4.34645
10.2603
5.44998
10.3633
6.56233
10.4943
7.68525
10.6551
8.82049
10.8477
9.96972
11.0747
11.1346
11.3389
12.3165
11.6442
13.5169
11.9947
14.7367
12.3958
15.9765
12.8536
17.2362
13.3755
18.515
13.9701
19.8103
14.6477
21.1185
15.4201
22.4315
16.3019
23.7404
17.3069
25.0309
18.4517
26.265
19.7634
27.4723
21.2092
28.509
22.8976
29.4686
24.6914
30.2668
26.6765
30.7532
28.8615
31.0851
31.1099
33.4948
31.13
1.02477
8.94474
2.06436
9.08419
3.1085
9.13938
4.15845
9.21038
5.21613
9.3056
6.28351
9.42692
7.36261
9.57602
8.45548
9.75488
9.56416
9.96599
10.6907
10.2124
11.8372
10.4977
13.0056
10.8264
14.1977
11.2038
15.415
11.6363
16.6588
12.1317
17.9294
12.6994
19.2265
13.3506
20.5475
14.0992
21.8887
14.9607
23.2409
15.9547
24.5851
17.1075
25.9315
18.4169
27.1642
19.9765
28.3943
21.6675
29.4389
23.6468
30.2815
25.8339
30.9377
28.2053
31.3205
30.7272
33.4639
31.3514
0.975724
7.96902
1.96585
8.09406
2.96078
8.14445
3.96185
8.20931
4.9711
8.29635
5.99067
8.40735
7.02279
8.5439
8.06972
8.70795
9.13382
8.90189
10.2175
9.12867
11.3233
9.3919
12.4537
9.69595
13.6113
10.0462
14.7986
10.449
16.0178
10.9125
17.2708
11.4464
18.5591
12.0624
19.8824
12.7759
21.2397
13.6034
22.6218
14.5727
24.0365
15.6927
25.408
17.0455
26.8196
18.565
28.1027
20.3843
29.2705
22.479
30.2769
24.8274
31.1146
27.3676
31.5329
30.3089
33.4012
31.5955
0.925507
7.04351
1.86493
7.15464
2.80928
7.20009
3.75996
7.25863
4.71909
7.33722
5.68892
7.43752
6.67179
7.56103
7.67015
7.70959
8.68658
7.88546
9.72377
8.09147
10.7846
8.33106
11.8721
8.60847
12.9894
8.92889
14.1397
9.29869
15.3264
9.72581
16.553
10.2198
17.8216
10.7938
19.137
11.4604
20.4935
12.2469
21.9087
13.1575
23.3302
14.2712
24.8344
15.5412
26.2991
17.1002
27.6863
18.9971
29.0199
21.1454
30.2265
23.6208
31.0331
26.5609
31.6146
29.7274
33.2303
31.7855
0.874835
6.16868
1.76303
6.26645
2.65619
6.30693
3.55574
6.35908
4.46384
6.42912
5.38279
6.51857
6.31501
6.62882
7.26304
6.76155
8.22962
6.91889
9.21765
7.10344
10.2303
7.31846
11.2708
7.56792
12.343
7.85673
13.4506
8.19109
14.5981
8.57828
15.789
9.02893
17.0309
9.55192
18.3198
10.1715
19.6809
10.8857
21.0698
11.7686
22.5748
12.7662
24.0796
14.0364
25.584
15.5959
27.2309
17.3502
28.7224
19.6539
29.8953
22.4479
31.0517
25.4045
31.7899
28.9893
33.0076
32.0126
0.824315
5.34436
1.66138
5.42939
2.50338
5.46492
3.35172
5.51074
4.20856
5.57228
5.07621
5.65092
5.95711
5.74791
6.85388
5.86479
7.76929
6.00347
8.70639
6.16634
9.66848
6.35637
10.6592
6.57723
11.6825
6.83344
12.7428
7.13077
13.8448
7.47627
14.9949
7.87882
16.195
8.35183
17.4643
8.90219
18.7749
9.5751
20.2076
10.3359
21.6502
11.3236
23.1995
12.4871
24.936
13.8594
26.4983
15.7879
28.1295
18.0227
29.7399
20.8375
30.9595
24.185
31.7849
28.1638
32.6522
32.1403
0.774451
4.56991
1.56101
4.64283
2.35241
4.67353
3.15001
4.71313
3.95595
4.76634
4.77249
4.83437
5.60208
4.91832
6.44732
5.01955
7.31102
5.13977
8.19625
5.28111
9.10642
5.4462
10.0453
5.63838
11.0171
5.86162
12.0263
6.12154
13.0794
6.42317
14.1788
6.77942
15.3423
7.18835
16.5489
7.69561
17.8729
8.25107
19.2024
9.00644
20.7139
9.8121
22.2983
10.9028
23.8855
12.2722
25.7444
13.9289
27.5756
16.1916
29.244
19.169
30.7933
22.6357
31.907
27.0501
32.1817
32.3775
0.725649
3.84426
1.46275
3.90572
2.20454
3.93175
2.95233
3.96534
3.70819
4.01048
4.47435
4.06822
5.25317
4.1395
6.04724
4.22549
6.85932
4.32769
7.69248
4.44794
8.55014
4.58854
9.4361
4.75242
10.3547
4.94299
11.3108
5.16547
12.3103
5.42371
13.3597
5.72999
14.464
6.08401
15.6449
6.51478
16.8759
7.02005
18.2413
7.64106
19.6754
8.37795
21.1801
9.39811
23.0003
10.4519
24.7297
12.1995
26.7008
14.2206
28.7852
17.0846
30.4989
20.922
31.8854
25.6636
31.4458
32.6213
0.678225
3.16604
1.36725
3.21669
2.06077
3.23824
2.76003
3.26607
3.46703
3.30348
4.18392
3.35133
4.91299
3.41043
5.65673
3.48176
6.41785
3.56657
7.19936
3.66643
8.00462
3.78328
8.83739
3.91965
9.70215
4.07823
10.6033
4.26432
11.5487
4.47835
12.5388
4.73982
13.5988
5.02408
14.6983
5.41528
15.9277
5.79059
17.1763
6.39254
18.6093
6.94494
20.1314
7.87599
21.8103
8.77301
23.6853
10.3245
25.7937
12.1122
28.0065
14.8718
30.1797
18.7488
31.8839
23.9594
30.4407
32.8891
0.632416
2.53362
1.27501
2.5741
1.92185
2.5914
2.57414
2.61377
3.2338
2.64383
3.90286
2.68227
4.58353
2.72975
5.2782
2.78709
5.98946
2.8553
6.72024
2.93566
7.47379
3.02973
8.25378
3.13966
9.06465
3.26737
9.91064
3.41832
10.7999
3.58914
11.7325
3.80719
12.7337
4.02285
13.7763
4.37266
14.9442
4.62271
16.1294
5.20731
17.5519
5.52246
18.9107
6.51726
20.7467
6.93701
22.4421
8.62904
24.7377
9.81666
26.9965
12.6129
29.6903
16.0549
31.9262
21.7236
29.0138
33.353
0.58839
1.94523
1.18637
1.97613
1.78832
1.98944
2.39541
2.00668
3.00946
2.02979
3.63238
2.05934
4.26629
2.09585
4.91342
2.13996
5.57629
2.19243
6.25766
2.25429
6.96067
2.32672
7.68884
2.41149
8.44643
2.50978
9.23781
2.62693
10.0699
2.75707
10.9467
2.93042
11.8808
3.08869
12.8804
3.37305
13.9442
3.55892
15.1333
4.01825
16.4333
4.22245
17.7891
5.16147
19.5042
5.22185
21.1881
6.94518
23.5107
7.49404
25.862
10.2617
29.0142
12.9027
31.8159
18.9219
26.9396
33.8901
0.546259
1.39897
1.10158
1.42081
1.66057
1.43046
2.22436
1.44288
2.79468
1.45947
3.37335
1.48068
3.96231
1.50689
4.56372
1.53855
5.17992
1.57624
5.81353
1.62067
6.46754
1.67272
7.14529
1.73373
7.8509
1.80417
8.58816
1.88968
9.36591
1.97931
10.179
2.11734
11.0695
2.19815
11.9672
2.47541
13.0319
2.49423
14.0768
2.97333
15.3192
2.98
16.6425
3.83824
18.2611
3.60318
19.8834
5.32287
22.146
5.23152
24.525
7.88261
28.0842
9.34353
31.7754
15.2307
23.8405
34.8745
0.506055
0.892916
1.02071
0.906151
1.53866
0.912504
2.06111
0.920431
2.58964
0.930934
3.12596
0.94436
3.67189
0.960953
4.22944
0.981002
4.8008
1.00487
5.38845
1.03303
5.99516
1.06601
6.62413
1.10476
7.27908
1.14922
7.96424
1.20452
8.68557
1.25798
9.44671
1.35619
10.2612
1.38366
11.1345
1.60208
12.0558
1.57299
13.1302
1.89888
14.2317
1.87854
15.5245
2.54548
16.9459
2.18171
18.7015
3.56727
20.7345
3.19856
23.2341
5.38302
26.4655
6.11214
30.7113
10.9849
18.319
36.2327
0.468251
0.424666
0.944904
0.429498
1.42438
0.433033
1.90806
0.43675
2.39741
0.441579
2.89402
0.44775
3.3996
0.455375
3.91601
0.464592
4.44531
0.47557
4.98981
0.488527
5.55211
0.503717
6.13528
0.521583
6.74242
0.542084
7.37919
0.56775
8.04507
0.592103
8.76264
0.638619
9.49653
0.649769
10.3444
0.75422
11.1799
0.73745
12.1803
0.898521
13.1967
0.862176
14.5009
1.24123
15.7168
0.965869
17.5135
1.77052
19.2938
1.41829
21.9878
2.68898
25.2397
2.86025
30.5517
5.67293
10.7585
38.1122
0.424666
0.854163
1.2872
1.72395
2.16553
2.61328
3.06865
3.53324
4.00881
4.49734
5.00106
5.52264
6.06472
6.63247
7.22458
7.8632
8.51297
9.26718
10.0046
10.9032
11.7653
13.0066
13.9724
15.743
17.1612
19.8502
22.7105
28.3834
39.1419
1.56074
54.0835
1.61655
54.0844
1.67182
54.085
1.72651
54.0856
1.78055
54.0862
1.8339
54.0869
1.88652
54.0876
1.93836
54.0884
1.98938
54.0892
2.03954
54.0901
2.08882
54.091
2.13717
54.0919
2.18456
54.0928
2.23096
54.0938
2.27634
54.0949
2.32068
54.0959
2.36395
54.097
2.40613
54.0981
2.4472
54.0992
2.48712
54.1003
2.5259
54.1015
2.5635
54.1026
2.59991
54.1038
2.63512
54.105
2.66911
54.1062
2.70187
54.1075
2.73339
54.1087
2.76366
54.11
2.79267
54.1112
2.82041
54.1125
2.84687
54.1138
2.87207
54.115
2.89598
54.1163
2.9186
54.1176
2.93992
54.1189
2.95995
54.1202
2.97868
54.1215
2.99612
54.1228
3.01227
54.1241
3.02712
54.1254
3.04067
54.1267
3.05292
54.128
3.06389
54.1293
3.07356
54.1306
3.08195
54.1318
3.08906
54.1331
3.09489
54.1344
3.09944
54.1357
3.10275
54.1369
3.10483
54.1382
3.10568
54.1394
3.10531
54.1406
3.10372
54.1418
3.10094
54.143
3.09696
54.1442
3.0918
54.1454
3.08547
54.1466
3.07798
54.1477
3.06934
54.1489
3.05957
54.15
3.04866
54.1511
3.03665
54.1523
3.02353
54.1534
3.00933
54.1544
2.99405
54.1555
2.97771
54.1566
2.96031
54.1576
2.94188
54.1587
2.92243
54.1597
2.90198
54.1607
2.88054
54.1617
2.85812
54.1627
2.83473
54.1636
2.81039
54.1646
2.78512
54.1655
2.75892
54.1664
2.73182
54.1673
2.70382
54.1682
2.67496
54.1691
2.64523
54.17
2.61465
54.1708
2.58323
54.1716
2.551
54.1725
2.51796
54.1733
2.48413
54.1741
2.44952
54.1748
2.41416
54.1756
2.37806
54.1763
2.34122
54.1771
2.30368
54.1778
2.26543
54.1785
2.22649
54.1792
2.18687
54.1799
2.14658
54.1805
2.10564
54.1812
2.06406
54.1818
2.02186
54.1824
1.97903
54.1831
1.93561
54.1837
1.89161
54.1842
1.84702
54.1848
1.80188
54.1854
1.75618
54.1859
1.70993
54.1865
1.66315
54.187
1.61584
54.1875
1.568
54.1881
1.51965
54.1886
1.47079
54.1891
1.42143
54.1896
1.37157
54.1901
1.32122
54.1906
1.27038
54.1911
1.21905
54.1916
1.16724
54.192
1.11494
54.1925
1.06215
54.193
1.00888
54.1935
0.955111
54.194
0.90084
54.1945