/*--------------------------------*- C++ -*----------------------------------*\
| =========                 |                                                 |
| \\      /  F ield         | OpenFOAM: The Open Source CFD Toolbox           |
|  \\    /   O peration     | Version:  5.x                                   |
|   \\  /    A nd           | Web:      www.OpenFOAM.org                      |
|    \\/     M anipulation  |                                                 |
\*---------------------------------------------------------------------------*/
/*   Windows 32 and 64 bit porting by blueCAPE: http://www.bluecape.com.pt   *\
|  Based on Windows porting (2.0.x v4) by Symscape: http://www.symscape.com   |
\*---------------------------------------------------------------------------*/
FoamFile
{
    version     2.0;
    format      ascii;
    class       volVectorField;
    location    "10";
    object      U;
}
// * * * * * * * * * * * * * * * * * * * * * * * * * * * * * * * * * * * * * //

dimensions      [0 1 -1 0 0 0 0];

internalField   nonuniform List<vector> 
43900
(
(1.0547 0.000505404 -2.32987e-027)
(1.06005 0.000849655 -6.25421e-027)
(1.06004 0.000835249 1.76554e-030)
(1.06002 0.000943692 1.93241e-030)
(1.06001 0.00103054 1.96601e-030)
(1.05999 0.00111951 2.01388e-030)
(1.05998 0.00120982 8.33222e-027)
(1.05997 0.00130132 -1.66561e-026)
(1.05996 0.00139388 4.35781e-030)
(1.05995 0.00148737 -1.66427e-026)
(1.05994 0.0015817 1.66518e-026)
(1.05994 0.00167675 4.73821e-030)
(1.05993 0.00177243 -1.66281e-026)
(1.05992 0.00186865 1.00265e-029)
(1.05992 0.00196531 1.03119e-029)
(1.05991 0.00206234 1.0603e-029)
(1.05991 0.00215967 -3.32133e-026)
(1.05991 0.00225722 2.24003e-029)
(1.0599 0.00235492 3.32245e-026)
(1.0599 0.00245269 1.18131e-029)
(1.0599 0.00255053 1.21241e-029)
(1.0599 0.0026474 1.24382e-029)
(1.05989 0.00274322 1.2755e-029)
(1.05989 0.0028389 1.3073e-029)
(1.05989 0.00293434 1.33919e-029)
(1.05989 0.00302951 -3.30984e-026)
(1.05989 0.00312435 2.80613e-029)
(1.0599 0.00321878 2.86995e-029)
(1.0599 0.00331322 1.32303e-025)
(1.20649 0.000497648 0)
(1.2176 0.000532938 0)
(1.21762 0.000753946 0)
(1.21759 0.000929851 0)
(1.21757 0.00110335 0)
(1.21756 0.00127767 0)
(1.21754 0.00145128 0)
(1.21753 0.00162428 0)
(1.21752 0.00179659 0)
(1.21751 0.00196828 0)
(1.2175 0.00213923 0)
(1.21749 0.00230951 0)
(1.21749 0.00247901 0)
(1.21748 0.00264781 0)
(1.21748 0.00281573 0)
(1.21748 0.00298272 0)
(1.21748 0.0031486 0)
(1.21748 0.00331364 0)
(1.21748 0.00347764 0)
(1.21748 0.00364069 0)
(1.21749 0.00380382 0)
(1.21754 0.00396325 0)
(1.21755 0.00412563 0)
(1.21755 0.00428599 0)
(1.21756 0.00444505 0)
(1.21757 0.00460282 0)
(1.21758 0.00475905 0)
(1.21759 0.00491404 0)
(1.21761 0.00506692 0)
(1.15028 0.000305387 0)
(1.16398 0.000410292 0)
(1.16403 0.000664565 0)
(1.16402 0.000868137 0)
(1.16401 0.00107594 0)
(1.164 0.00128321 0)
(1.164 0.00148942 0)
(1.164 0.00169472 0)
(1.164 0.00189896 0)
(1.164 0.00210219 0)
(1.164 0.00230427 0)
(1.16401 0.00250526 0)
(1.16401 0.00270502 0)
(1.16402 0.00290359 0)
(1.16403 0.00310052 0)
(1.16404 0.00329786 0)
(1.16406 0.00349358 0)
(1.16407 0.00368825 0)
(1.16409 0.00388143 0)
(1.16411 0.00407249 0)
(1.16413 0.00426424 0)
(1.16411 0.00445307 0)
(1.16413 0.00464607 0)
(1.16416 0.00483575 0)
(1.16418 0.00502329 0)
(1.16421 0.00521145 0)
(1.16424 0.00539699 0)
(1.16427 0.00558099 0)
(1.1643 0.00576534 1.7029e-027)
(1.13837 0.000145655 0)
(1.15223 0.000372541 0)
(1.1523 0.000629734 0)
(1.1523 0.000877176 0)
(1.15231 0.00112456 0)
(1.15231 0.00137109 0)
(1.15232 0.00161646 0)
(1.15233 0.00186095 0)
(1.15235 0.00210425 0)
(1.15236 0.00234659 0)
(1.15238 0.00258765 0)
(1.1524 0.00282763 0)
(1.15243 0.00306629 0)
(1.15245 0.00330376 0)
(1.15248 0.00353998 0)
(1.15251 0.00377374 0)
(1.15254 0.00400632 0)
(1.15258 0.00423718 0)
(1.15262 0.0044665 0)
(1.15266 0.00469426 0)
(1.1527 0.00491968 0)
(1.15269 0.00514323 0)
(1.15273 0.00536532 0)
(1.15278 0.0055847 0)
(1.15283 0.00580272 0)
(1.15288 0.00601724 0)
(1.15293 0.00623046 0)
(1.15299 0.00644152 0)
(1.15305 0.0066495 1.87595e-027)
(1.14524 0.000140489 3.84087e-027)
(1.1591 0.000405878 0)
(1.15918 0.000681248 0)
(1.15919 0.000953401 0)
(1.1592 0.00122529 0)
(1.15921 0.00149677 0)
(1.15923 0.00176738 0)
(1.15925 0.00203738 0)
(1.15928 0.00230636 0)
(1.15931 0.00257453 0)
(1.15934 0.0028415 0)
(1.15937 0.00310746 0)
(1.15941 0.00337207 0)
(1.15945 0.00363545 0)
(1.15949 0.0038975 0)
(1.15954 0.00415768 0)
(1.15959 0.00441621 0)
(1.15965 0.00467308 0)
(1.1597 0.00492817 0)
(1.15976 0.00518162 0)
(1.15982 0.00543296 0)
(1.15987 0.00568133 0)
(1.15993 0.00592613 0)
(1.16001 0.00616895 0)
(1.16008 0.0064098 0)
(1.16016 0.00664773 0)
(1.16024 0.00688322 0)
(1.16032 0.00711647 0)
(1.1604 0.00734627 -7.65454e-027)
(1.14429 0.000148734 -4.05931e-027)
(1.15816 0.000448571 0)
(1.15824 0.000748641 0)
(1.15825 0.00104743 0)
(1.15827 0.00134606 0)
(1.15829 0.00164423 0)
(1.15831 0.00194164 0)
(1.15834 0.00223834 0)
(1.15837 0.00253406 0)
(1.15841 0.00282884 0)
(1.15845 0.00312241 0)
(1.1585 0.00341479 0)
(1.15854 0.00370575 0)
(1.1586 0.00399529 0)
(1.15865 0.00428324 0)
(1.15872 0.00456949 0)
(1.15878 0.00485392 0)
(1.15885 0.00513652 0)
(1.15892 0.00541706 0)
(1.159 0.00569559 0)
(1.15908 0.00597191 0)
(1.15915 0.00624563 0)
(1.15924 0.00651554 0)
(1.15933 0.00678345 0)
(1.15943 0.00704873 0)
(1.15953 0.00731134 0)
(1.15963 0.00757113 0)
(1.15974 0.00782838 0)
(1.15984 0.00808239 4.0113e-027)
(1.14012 0.000170571 0)
(1.15397 0.000521184 0)
(1.15405 0.000870918 0)
(1.15407 0.00121992 0)
(1.15409 0.00156865 0)
(1.15412 0.00191671 0)
(1.15415 0.00226387 0)
(1.15419 0.00261005 0)
(1.15424 0.00295504 0)
(1.15429 0.00329873 0)
(1.15435 0.00364095 0)
(1.15441 0.00398158 0)
(1.15447 0.00432045 0)
(1.15455 0.00465742 0)
(1.15462 0.00499238 0)
(1.15471 0.00532517 0)
(1.15479 0.00565566 0)
(1.15489 0.0059837 0)
(1.15498 0.0063092 0)
(1.15509 0.00663197 0)
(1.1552 0.00695228 0)
(1.15531 0.0072686 0)
(1.15543 0.00758233 0)
(1.15555 0.00789271 0)
(1.15568 0.00819986 0)
(1.15581 0.00850353 0)
(1.15595 0.00880373 0)
(1.15609 0.00910062 0)
(1.15623 0.00939365 0)
(1.13634 0.000201939 0)
(1.15013 0.000616542 0)
(1.15021 0.00103137 0)
(1.15024 0.00144518 0)
(1.15027 0.00185869 0)
(1.1503 0.00227121 0)
(1.15035 0.00268272 0)
(1.1504 0.00309286 0)
(1.15046 0.00350157 0)
(1.15052 0.00390853 0)
(1.15059 0.00431369 0)
(1.15067 0.00471673 0)
(1.15076 0.00511758 0)
(1.15085 0.00551593 0)
(1.15095 0.00591172 0)
(1.15106 0.00630467 0)
(1.15117 0.00669469 0)
(1.15129 0.00708152 0)
(1.15142 0.00746508 0)
(1.15155 0.00784511 0)
(1.15169 0.00822156 0)
(1.15184 0.00859415 0)
(1.15199 0.00896289 0)
(1.15215 0.00932746 0)
(1.15231 0.00968782 0)
(1.15248 0.0100437 0)
(1.15266 0.0103951 0)
(1.15284 0.010742 0)
(1.15302 0.0110839 0)
(1.13256 0.00023782 0)
(1.14629 0.000725027 0)
(1.14638 0.00121251 0)
(1.14641 0.00169854 0)
(1.14645 0.00218428 0)
(1.14649 0.00266864 0)
(1.14655 0.00315183 0)
(1.14661 0.00363315 0)
(1.14669 0.00411274 0)
(1.14677 0.00458999 0)
(1.14686 0.005065 0)
(1.14696 0.00553722 0)
(1.14707 0.00600667 0)
(1.14719 0.00647289 0)
(1.14732 0.00693583 0)
(1.14745 0.00739512 0)
(1.1476 0.00785065 0)
(1.14775 0.00830211 0)
(1.14791 0.00874933 0)
(1.14808 0.0091921 0)
(1.14825 0.00963016 0)
(1.14844 0.0100634 0)
(1.14863 0.0104915 0)
(1.14883 0.0109145 0)
(1.14904 0.011332 0)
(1.14925 0.0117438 0)
(1.14947 0.0121499 0)
(1.1497 0.0125503 0)
(1.14993 0.0129442 0)
(1.12822 0.000279864 0)
(1.1419 0.00085388 0)
(1.142 0.00142763 0)
(1.14203 0.00199978 0)
(1.14208 0.00257135 0)
(1.14214 0.00314131 0)
(1.14221 0.00370958 0)
(1.14229 0.00427559 0)
(1.14238 0.00483925 0)
(1.14249 0.00540001 0)
(1.1426 0.00595777 0)
(1.14273 0.00651203 0)
(1.14287 0.00706266 0)
(1.14302 0.00760916 0)
(1.14318 0.00815143 0)
(1.14335 0.00868902 0)
(1.14353 0.00922176 0)
(1.14372 0.00974925 0)
(1.14392 0.0102713 0)
(1.14413 0.0107877 0)
(1.14435 0.011298 0)
(1.14458 0.0118021 0)
(1.14482 0.0122998 0)
(1.14507 0.0127906 0)
(1.14533 0.0132746 0)
(1.1456 0.0137513 0)
(1.14588 0.0142207 0)
(1.14616 0.0146828 0)
(1.14645 0.0151368 -1.07981e-026)
(1.12337 0.000330153 0)
(1.13698 0.00100768 0)
(1.13709 0.00168448 0)
(1.13713 0.00235943 0)
(1.13719 0.00303347 0)
(1.13727 0.00370552 0)
(1.13735 0.00437527 0)
(1.13746 0.00504218 0)
(1.13757 0.00570593 0)
(1.1377 0.00636602 0)
(1.13785 0.00702213 0)
(1.13801 0.00767377 0)
(1.13818 0.00832063 0)
(1.13837 0.00896222 0)
(1.13857 0.00959826 0)
(1.13878 0.0102283 0)
(1.13901 0.010852 0)
(1.13925 0.011469 0)
(1.1395 0.0120789 0)
(1.13977 0.0126815 0)
(1.14004 0.0132763 0)
(1.14033 0.0138631 0)
(1.14063 0.0144416 0)
(1.14094 0.0150114 0)
(1.14127 0.0155723 0)
(1.1416 0.0161239 0)
(1.14194 0.0166661 0)
(1.14229 0.017199 0)
(1.14266 0.0177214 1.14057e-026)
(1.11795 0.000389823 0)
(1.13149 0.00119013 0)
(1.13161 0.00198918 0)
(1.13166 0.00278603 0)
(1.13174 0.00358155 0)
(1.13183 0.00437456 0)
(1.13194 0.0051645 0)
(1.13207 0.00595082 0)
(1.13221 0.006733 0)
(1.13238 0.00751046 0)
(1.13256 0.00828271 0)
(1.13276 0.00904921 0)
(1.13297 0.00980946 0)
(1.13321 0.0105629 0)
(1.13346 0.0113092 0)
(1.13372 0.0120477 0)
(1.134 0.012778 0)
(1.1343 0.0134997 0)
(1.13462 0.0142123 0)
(1.13495 0.0149153 0)
(1.13529 0.0156084 0)
(1.13565 0.0162911 0)
(1.13602 0.0169632 0)
(1.13641 0.0176241 0)
(1.13681 0.0182736 0)
(1.13722 0.0189112 0)
(1.13764 0.0195368 0)
(1.13808 0.0201503 0)
(1.13853 0.0207507 1.25615e-026)
(1.11189 0.000460412 0)
(1.12536 0.0014058 0)
(1.12548 0.00234933 0)
(1.12555 0.00329017 0)
(1.12564 0.00422919 0)
(1.12576 0.00516497 0)
(1.12589 0.00609674 0)
(1.12605 0.00702383 0)
(1.12624 0.00794551 0)
(1.12644 0.00886111 0)
(1.12667 0.00976994 0)
(1.12691 0.0106713 0)
(1.12718 0.0115646 0)
(1.12747 0.0124491 0)
(1.12778 0.0133243 0)
(1.12811 0.0141895 0)
(1.12846 0.0150441 0)
(1.12883 0.0158875 0)
(1.12922 0.0167192 0)
(1.12963 0.0175386 0)
(1.13006 0.0183452 0)
(1.1305 0.0191385 0)
(1.13096 0.0199181 0)
(1.13144 0.0206834 0)
(1.13193 0.021434 0)
(1.13244 0.0221695 0)
(1.13296 0.0228896 0)
(1.1335 0.0235942 0)
(1.13405 0.0242822 -1.32733e-026)
(1.10512 0.000543677 0)
(1.1185 0.00165993 0)
(1.11864 0.00277371 0)
(1.11873 0.00388415 0)
(1.11884 0.00499211 0)
(1.11898 0.00609587 0)
(1.11915 0.00719444 0)
(1.11935 0.00828694 0)
(1.11958 0.00937243 0)
(1.11983 0.01045 0)
(1.12011 0.0115189 0)
(1.12042 0.0125781 0)
(1.12075 0.0136268 0)
(1.12111 0.0146643 0)
(1.12149 0.0156896 0)
(1.1219 0.016702 0)
(1.12234 0.0177008 0)
(1.12279 0.0186852 0)
(1.12328 0.0196545 0)
(1.12378 0.020608 0)
(1.1243 0.0215451 0)
(1.12485 0.0224651 0)
(1.12542 0.0233674 0)
(1.126 0.0242516 0)
(1.12661 0.0251169 0)
(1.12723 0.025963 0)
(1.12788 0.0267894 0)
(1.12854 0.0275959 0)
(1.12921 0.0283814 -1.46983e-026)
(1.09756 0.000641512 0)
(1.11084 0.00195851 0)
(1.111 0.00327225 0)
(1.11111 0.0045818 0)
(1.11125 0.00588805 0)
(1.11143 0.00718885 0)
(1.11164 0.00848294 0)
(1.11188 0.00976917 0)
(1.11216 0.0110463 0)
(1.11248 0.0123133 0)
(1.11282 0.013569 0)
(1.1132 0.0148122 0)
(1.11362 0.0160419 0)
(1.11406 0.0172571 0)
(1.11453 0.0184566 0)
(1.11504 0.0196396 0)
(1.11557 0.020805 0)
(1.11614 0.0219519 0)
(1.11673 0.0230794 0)
(1.11735 0.0241866 0)
(1.11799 0.0252729 0)
(1.11867 0.0263372 0)
(1.11936 0.027379 0)
(1.12008 0.0283976 0)
(1.12082 0.0293922 0)
(1.12159 0.0303623 0)
(1.12237 0.0313072 0)
(1.12318 0.032227 0)
(1.124 0.0331202 1.55374e-026)
(1.08912 0.000756151 0)
(1.10231 0.00230833 0)
(1.10248 0.00385623 0)
(1.10262 0.00539891 0)
(1.10279 0.0069372 0)
(1.10301 0.00846845 0)
(1.10327 0.00999105 0)
(1.10357 0.0115035 0)
(1.10392 0.0130043 0)
(1.10431 0.014492 0)
(1.10474 0.015965 0)
(1.1052 0.0174221 0)
(1.10571 0.0188618 0)
(1.10626 0.0202828 0)
(1.10684 0.0216837 0)
(1.10746 0.0230633 0)
(1.10812 0.0244204 0)
(1.10882 0.0257538 0)
(1.10954 0.0270624 0)
(1.1103 0.0283452 0)
(1.11109 0.029601 0)
(1.11191 0.030829 0)
(1.11277 0.0320282 0)
(1.11365 0.0331979 0)
(1.11455 0.0343371 0)
(1.11549 0.0354452 0)
(1.11644 0.0365215 0)
(1.11742 0.0375657 0)
(1.11842 0.0385768 0)
(1.07973 0.000890102 0)
(1.0928 0.00271688 0)
(1.093 0.00453818 0)
(1.09317 0.00635297 0)
(1.09338 0.00816197 0)
(1.09365 0.00996193 0)
(1.09397 0.0117508 0)
(1.09435 0.0135266 0)
(1.09477 0.0152874 0)
(1.09525 0.0170314 0)
(1.09578 0.0187567 0)
(1.09635 0.0204614 0)
(1.09698 0.0221439 0)
(1.09765 0.0238024 0)
(1.09837 0.0254352 0)
(1.09913 0.0270409 0)
(1.09993 0.0286177 0)
(1.10078 0.0301643 0)
(1.10167 0.0316793 0)
(1.1026 0.0331614 0)
(1.10357 0.0346092 0)
(1.10457 0.0360216 0)
(1.10561 0.0373976 0)
(1.10668 0.038736 0)
(1.10779 0.040036 0)
(1.10892 0.0412966 0)
(1.11008 0.0425171 0)
(1.11127 0.0436971 0)
(1.11248 0.0448356 0)
(1.06928 0.00104619 0)
(1.08223 0.00319271 0)
(1.08247 0.0053323 0)
(1.08267 0.00746375 0)
(1.08293 0.00958764 0)
(1.08326 0.0116999 0)
(1.08366 0.013798 0)
(1.08412 0.0158794 0)
(1.08464 0.0179416 0)
(1.08522 0.0199823 0)
(1.08587 0.0219991 0)
(1.08658 0.0239897 0)
(1.08734 0.0259519 0)
(1.08816 0.0278835 0)
(1.08904 0.0297824 0)
(1.08997 0.0316467 0)
(1.09096 0.0334743 0)
(1.092 0.0352636 0)
(1.09308 0.0370127 0)
(1.09421 0.03872 0)
(1.09539 0.0403839 0)
(1.09661 0.0420031 0)
(1.09787 0.0435762 0)
(1.09918 0.045102 0)
(1.10051 0.0465793 0)
(1.10189 0.0480071 0)
(1.10329 0.0493845 0)
(1.10473 0.050711 0)
(1.10619 0.0519857 0)
(1.0577 0.00122736 4.87463e-026)
(1.07051 0.00374478 0)
(1.07078 0.00625353 0)
(1.07103 0.00875214 0)
(1.07135 0.0112409 0)
(1.07176 0.0137149 0)
(1.07224 0.0161709 0)
(1.0728 0.0186055 0)
(1.07344 0.0210159 0)
(1.07416 0.0233988 0)
(1.07494 0.0257514 0)
(1.07581 0.0280706 0)
(1.07674 0.0303538 0)
(1.07774 0.0325982 0)
(1.07882 0.0348012 0)
(1.07995 0.0369603 0)
(1.08115 0.039073 0)
(1.08241 0.0411372 0)
(1.08373 0.0431506 0)
(1.08511 0.0451113 0)
(1.08654 0.0470174 0)
(1.08802 0.0488671 0)
(1.08954 0.0506589 0)
(1.09112 0.0523911 0)
(1.09273 0.0540626 0)
(1.09439 0.0556722 0)
(1.09608 0.0572187 0)
(1.09781 0.0587015 0)
(1.09957 0.0601201 0)
(1.04486 0.00143683 2.105e-027)
(1.05753 0.00438273 0)
(1.05785 0.00731794 0)
(1.05815 0.0102406 0)
(1.05854 0.0131506 0)
(1.05904 0.0160419 0)
(1.05963 0.0189103 0)
(1.06031 0.0217519 0)
(1.06109 0.0245627 0)
(1.06196 0.0273389 0)
(1.06292 0.0300767 0)
(1.06397 0.0327725 0)
(1.06511 0.0354227 0)
(1.06633 0.038024 0)
(1.06763 0.040573 0)
(1.06901 0.0430668 0)
(1.07046 0.0455022 0)
(1.07199 0.0478766 0)
(1.07359 0.0501872 0)
(1.07525 0.0524316 0)
(1.07698 0.0546075 0)
(1.07877 0.0567128 0)
(1.08061 0.0587455 0)
(1.08251 0.0607039 0)
(1.08445 0.0625865 0)
(1.08644 0.064392 0)
(1.08848 0.0661191 0)
(1.09055 0.0677668 0)
(1.09265 0.0693355 0)
(1.03069 0.001678 -5.68382e-026)
(1.04321 0.00511695 0)
(1.04358 0.00854278 0)
(1.04394 0.0119531 0)
(1.04442 0.0153473 0)
(1.04502 0.018718 0)
(1.04574 0.02206 0)
(1.04657 0.0253682 0)
(1.04751 0.0286378 0)
(1.04857 0.0318639 0)
(1.04973 0.0350419 0)
(1.05101 0.0381671 0)
(1.05238 0.0412352 0)
(1.05386 0.044242 0)
(1.05543 0.0471833 0)
(1.0571 0.0500554 0)
(1.05886 0.0528546 0)
(1.0607 0.0555773 0)
(1.06263 0.0582204 0)
(1.06463 0.0607809 0)
(1.06671 0.0632559 0)
(1.06886 0.065643 0)
(1.07108 0.0679398 0)
(1.07335 0.0701443 0)
(1.07568 0.0722547 0)
(1.07807 0.0742695 0)
(1.0805 0.0761873 0)
(1.08297 0.0780069 0)
(1.08548 0.0797295 0)
(1.01509 0.00195434 0)
(1.02744 0.00595775 0)
(1.02787 0.00994523 0)
(1.02831 0.0139137 0)
(1.02889 0.0178619 0)
(1.02961 0.0217806 0)
(1.03048 0.0256637 0)
(1.03148 0.0295046 0)
(1.03262 0.0332974 0)
(1.0339 0.0370361 0)
(1.0353 0.0407147 0)
(1.03684 0.0443278 0)
(1.0385 0.0478696 0)
(1.04027 0.0513352 0)
(1.04217 0.0547193 0)
(1.04418 0.0580174 0)
(1.04629 0.0612247 0)
(1.04851 0.0643372 0)
(1.05082 0.0673507 0)
(1.05323 0.0702618 0)
(1.05572 0.0730669 0)
(1.05829 0.0757631 0)
(1.06094 0.0783477 0)
(1.06366 0.0808181 0)
(1.06644 0.0831724 0)
(1.06928 0.0854089 0)
(1.07218 0.087526 0)
(1.07512 0.0895221 0)
(1.0781 0.0914 0)
(0.997967 0.00226927 -7.22615e-026)
(1.01014 0.0069153 0)
(1.01064 0.0115423 0)
(1.01116 0.0161461 0)
(1.01186 0.0207246 0)
(1.01273 0.0252668 0)
(1.01377 0.0297648 0)
(1.01498 0.0342109 0)
(1.01635 0.0385974 0)
(1.01788 0.0429171 0)
(1.01957 0.0471627 0)
(1.02141 0.0513272 0)
(1.0234 0.0554039 0)
(1.02553 0.0593863 0)
(1.0278 0.0632682 0)
(1.0302 0.0670438 0)
(1.03273 0.0707075 0)
(1.03538 0.0742541 0)
(1.03815 0.0776787 0)
(1.04102 0.080977 0)
(1.044 0.0841449 0)
(1.04706 0.0871787 0)
(1.05022 0.0900751 0)
(1.05345 0.0928314 0)
(1.05676 0.0954451 0)
(1.06013 0.0979143 0)
(1.06356 0.100237 0)
(1.06704 0.102412 0)
(1.07056 0.104444 6.17941e-026)
(0.979238 0.00262591 -3.35751e-027)
(0.99122 0.00799919 0)
(0.991799 0.0133498 0)
(0.992428 0.0186727 0)
(0.993262 0.0239641 0)
(0.994301 0.0292112 0)
(0.995542 0.0344043 0)
(0.996983 0.039534 0)
(0.998619 0.0445909 0)
(1.00045 0.0495659 0)
(1.00246 0.0544503 0)
(1.00466 0.0592354 0)
(1.00703 0.063913 0)
(1.00957 0.0684752 0)
(1.01228 0.0729144 0)
(1.01514 0.0772233 0)
(1.01815 0.0813952 0)
(1.02131 0.0854237 0)
(1.0246 0.0893029 0)
(1.02801 0.0930275 0)
(1.03155 0.0965924 0)
(1.03519 0.0999933 0)
(1.03893 0.103226 0)
(1.04276 0.106288 0)
(1.04667 0.109176 0)
(1.05065 0.111887 0)
(1.0547 0.114421 0)
(1.0588 0.116775 0)
(1.06294 0.118954 1.61448e-027)
(0.958833 0.00302714 8.46817e-026)
(0.970613 0.00921784 0)
(0.971284 0.015382 0)
(0.972031 0.0215131 0)
(0.97302 0.0276058 0)
(0.974253 0.0336451 0)
(0.975726 0.0396191 0)
(0.977435 0.0455163 0)
(0.979375 0.0513256 0)
(0.981543 0.0570358 0)
(0.983933 0.0626362 0)
(0.986537 0.0681163 0)
(0.98935 0.0734662 0)
(0.992365 0.078676 0)
(0.995572 0.0837366 0)
(0.998964 0.088639 0)
(1.00253 0.0933751 0)
(1.00627 0.0979369 0)
(1.01016 0.102317 0)
(1.0142 0.10651 0)
(1.01837 0.110508 0)
(1.02267 0.114307 0)
(1.02708 0.117902 0)
(1.0316 0.121289 0)
(1.03621 0.124465 0)
(1.04089 0.127427 0)
(1.04565 0.130174 0)
(1.05045 0.132702 0)
(1.0553 0.135022 -7.10727e-026)
(0.936699 0.00347515 0)
(0.948265 0.0105778 0)
(0.949039 0.0176497 0)
(0.949919 0.0246827 0)
(0.951084 0.0316698 0)
(0.952536 0.038593 0)
(0.95427 0.0454384 0)
(0.956283 0.0521921 0)
(0.95857 0.0588407 0)
(0.961124 0.0653709 0)
(0.963938 0.0717697 0)
(0.967007 0.0780244 0)
(0.970321 0.0841228 0)
(0.973872 0.0900531 0)
(0.97765 0.0958041 0)
(0.981645 0.101365 0)
(0.985847 0.106725 0)
(0.990243 0.111876 0)
(0.994823 0.116808 0)
(0.999574 0.121513 0)
(1.00448 0.125983 0)
(1.00953 0.130213 0)
(1.01472 0.134197 0)
(1.02001 0.13793 0)
(1.02541 0.141408 0)
(1.0309 0.144628 0)
(1.03646 0.147588 0)
(1.04207 0.150284 0)
(1.04773 0.152731 0)
(0.912802 0.00397124 0)
(0.92414 0.0120829 0)
(0.925029 0.0201597 0)
(0.926056 0.0281912 0)
(0.927417 0.0361685 0)
(0.929113 0.0440708 0)
(0.93114 0.0518815 0)
(0.933493 0.0595845 0)
(0.936166 0.0671634 0)
(0.939152 0.0746027 0)
(0.942444 0.0818866 0)
(0.946033 0.0890001 0)
(0.94991 0.0959284 0)
(0.954065 0.102657 0)
(0.958486 0.109172 0)
(0.963162 0.115461 0)
(0.96808 0.121511 0)
(0.973225 0.127311 0)
(0.978584 0.132849 0)
(0.984142 0.138115 0)
(0.989882 0.1431 0)
(0.995788 0.147797 0)
(1.00184 0.152198 0)
(1.00803 0.156298 0)
(1.01433 0.160092 0)
(1.02073 0.163575 0)
(1.0272 0.166748 0)
(1.03373 0.169602 0)
(1.0403 0.17216 8.52094e-026)
(0.88713 0.00451568 0)
(0.898228 0.0137339 0)
(0.899241 0.022913 0)
(0.900431 0.0320405 0)
(0.902007 0.0411051 0)
(0.903971 0.0500831 0)
(0.90632 0.0589551 0)
(0.909046 0.0677022 0)
(0.912145 0.0763055 0)
(0.915609 0.0847463 0)
(0.919428 0.0930061 0)
(0.923594 0.101067 0)
(0.928097 0.108911 0)
(0.932924 0.116521 0)
(0.938062 0.12388 0)
(0.943498 0.130973 0)
(0.949216 0.137783 0)
(0.955201 0.144297 0)
(0.961436 0.150501 0)
(0.967901 0.156382 0)
(0.974579 0.161929 0)
(0.981448 0.167132 0)
(0.988489 0.171983 0)
(0.995679 0.176473 0)
(1.003 0.180598 0)
(1.01042 0.184352 0)
(1.01793 0.187735 0)
(1.02549 0.190735 0)
(1.03309 0.193384 1.64048e-027)
(0.859703 0.00510734 0)
(0.870546 0.0155274 0)
(0.871693 0.0259043 0)
(0.873057 0.0362236 0)
(0.874865 0.0464714 0)
(0.877119 0.0566208 0)
(0.879814 0.0666499 0)
(0.882946 0.0765368 0)
(0.886506 0.0862595 0)
(0.890489 0.0957964 0)
(0.894883 0.105126 0)
(0.89968 0.114226 0)
(0.904868 0.123076 0)
(0.910433 0.131656 0)
(0.916361 0.139944 0)
(0.922637 0.147922 0)
(0.929243 0.15557 0)
(0.93616 0.162871 0)
(0.943369 0.169807 0)
(0.950848 0.176364 0)
(0.958574 0.182525 0)
(0.966523 0.18828 0)
(0.97467 0.193616 0)
(0.982988 0.198525 0)
(0.991452 0.202998 0)
(1.00003 0.20703 0)
(1.0087 0.21062 0)
(1.01743 0.213752 0)
(1.02619 0.21647 -1.96772e-025)
(0.830569 0.00574364 0)
(0.841145 0.0174553 0)
(0.842431 0.0291206 0)
(0.84398 0.0407229 0)
(0.846032 0.0522455 0)
(0.848592 0.063659 0)
(0.851655 0.0749385 0)
(0.855217 0.0860592 0)
(0.85927 0.0969962 0)
(0.863807 0.107724 0)
(0.868818 0.118219 0)
(0.874293 0.128454 0)
(0.88022 0.138405 0)
(0.886585 0.148047 0)
(0.893373 0.157356 0)
(0.900566 0.166308 0)
(0.908144 0.174879 0)
(0.916087 0.183047 0)
(0.924371 0.190791 0)
(0.932972 0.198091 0)
(0.941862 0.204928 0)
(0.951012 0.211287 0)
(0.960394 0.217152 0)
(0.969974 0.222511 0)
(0.97972 0.227355 0)
(0.989596 0.231675 0)
(0.999573 0.235472 0)
(1.00961 0.238721 0)
(1.01966 0.241482 -1.41186e-027)
(0.799815 0.00642026 0)
(0.810107 0.0195048 0)
(0.811537 0.0325406 0)
(0.813275 0.0455093 0)
(0.815579 0.0583916 0)
(0.818456 0.0711555 0)
(0.821901 0.0837736 0)
(0.82591 0.0962183 0)
(0.830477 0.108462 0)
(0.835595 0.120475 0)
(0.841256 0.13223 0)
(0.847449 0.143698 0)
(0.854162 0.154848 0)
(0.861381 0.165651 0)
(0.86909 0.176078 0)
(0.87727 0.1861 0)
(0.885902 0.195688 0)
(0.89496 0.204814 0)
(0.90442 0.21345 0)
(0.914252 0.221573 0)
(0.924425 0.229158 0)
(0.934905 0.236183 0)
(0.945656 0.242629 0)
(0.95664 0.24848 0)
(0.967817 0.253724 0)
(0.979143 0.258347 0)
(0.990581 0.262351 0)
(1.00208 0.265703 0)
(1.01358 0.26848 1.13212e-025)
(0.767558 0.00713127 0)
(0.777551 0.0216579 0)
(0.779124 0.0361349 0)
(0.781053 0.0505424 0)
(0.783611 0.064859 0)
(0.786807 0.0790505 0)
(0.790639 0.0930875 0)
(0.795103 0.10694 0)
(0.800195 0.120577 0)
(0.80591 0.133967 0)
(0.81224 0.147077 0)
(0.819177 0.159874 0)
(0.82671 0.172324 0)
(0.834825 0.184392 0)
(0.843507 0.196042 0)
(0.852738 0.207238 0)
(0.862495 0.217947 0)
(0.872754 0.228132 0)
(0.883485 0.237759 0)
(0.894657 0.246797 0)
(0.906233 0.255213 0)
(0.918175 0.262981 0)
(0.930439 0.270073 0)
(0.942979 0.276469 0)
(0.955746 0.28215 0)
(0.968687 0.287098 0)
(0.981757 0.291317 0)
(0.994888 0.294759 0)
(1.00802 0.297525 1.22433e-025)
(0.733953 0.00786916 0)
(0.74363 0.023892 0)
(0.745342 0.039866 0)
(0.747457 0.0557709 0)
(0.750263 0.071583 0)
(0.753772 0.0872672 0)
(0.757984 0.102792 0)
(0.762899 0.118127 0)
(0.768513 0.133237 0)
(0.774825 0.148089 0)
(0.781831 0.162646 0)
(0.789523 0.17687 0)
(0.797894 0.190721 0)
(0.806934 0.20416 0)
(0.816627 0.217143 0)
(0.826956 0.229629 0)
(0.837901 0.241573 0)
(0.849434 0.252932 0)
(0.861527 0.263662 0)
(0.874143 0.273723 0)
(0.887242 0.283072 0)
(0.900779 0.291674 0)
(0.914703 0.299493 0)
(0.928959 0.3065 0)
(0.94349 0.312669 0)
(0.958226 0.317975 0)
(0.973116 0.322424 0)
(0.988075 0.325948 0)
(1.00302 0.328677 -1.30065e-025)
(0.699187 0.00862501 0)
(0.708532 0.0261803 0)
(0.710373 0.0436898 0)
(0.712663 0.0611335 0)
(0.715703 0.0784865 0)
(0.719509 0.0957133 0)
(0.724083 0.112783 0)
(0.729429 0.129661 0)
(0.735549 0.146314 0)
(0.742442 0.162705 0)
(0.75011 0.178794 0)
(0.758551 0.194538 0)
(0.76776 0.209893 0)
(0.777731 0.224812 0)
(0.788453 0.239246 0)
(0.799913 0.253143 0)
(0.81209 0.266449 0)
(0.82496 0.279111 0)
(0.838492 0.291074 0)
(0.852649 0.302283 0)
(0.867386 0.312688 0)
(0.882653 0.322236 0)
(0.89839 0.330883 0)
(0.914532 0.338586 0)
(0.931011 0.345312 0)
(0.947741 0.351023 0)
(0.964656 0.355727 0)
(0.981657 0.35933 0)
(0.998635 0.361998 1.38897e-025)
(0.663475 0.0093889 0)
(0.672469 0.0284931 0)
(0.674426 0.0475571 0)
(0.676873 0.0665622 0)
(0.680125 0.0854829 0)
(0.6842 0.104285 0)
(0.689107 0.122937 0)
(0.694852 0.141408 0)
(0.701442 0.15966 0)
(0.708883 0.177656 0)
(0.717181 0.195353 0)
(0.726342 0.212705 0)
(0.736366 0.229663 0)
(0.747254 0.246173 0)
(0.759002 0.262178 0)
(0.7716 0.277616 0)
(0.785035 0.292423 0)
(0.799284 0.306532 0)
(0.814318 0.319875 0)
(0.830101 0.332382 0)
(0.846584 0.343985 0)
(0.863712 0.354617 0)
(0.881417 0.364217 0)
(0.899623 0.372726 0)
(0.918248 0.3801 0)
(0.937185 0.38628 0)
(0.956354 0.39128 0)
(0.975638 0.39497 0)
(0.994888 0.397559 -2.94822e-025)
(0.627055 0.0101504 0)
(0.635679 0.0307991 0)
(0.637734 0.0514158 0)
(0.640315 0.0719842 0)
(0.643748 0.0924797 0)
(0.648057 0.11287 0)
(0.653253 0.133127 0)
(0.659349 0.153219 0)
(0.666359 0.173111 0)
(0.674294 0.192764 0)
(0.683169 0.212134 0)
(0.692998 0.231174 0)
(0.70379 0.249828 0)
(0.715555 0.268036 0)
(0.728297 0.285735 0)
(0.742018 0.30285 0)
(0.756708 0.319307 0)
(0.772355 0.335023 0)
(0.788934 0.349913 0)
(0.80641 0.363889 0)
(0.824734 0.376862 0)
(0.843848 0.388743 0)
(0.863676 0.399451 0)
(0.884129 0.408905 0)
(0.90511 0.417044 0)
(0.926491 0.423783 0)
(0.948168 0.429142 0)
(0.97 0.432939 0)
(0.991799 0.435438 1.26631e-027)
(0.590179 0.0108991 0)
(0.598416 0.0330666 0)
(0.600546 0.0552133 0)
(0.603233 0.0773263 0)
(0.606809 0.0993826 0)
(0.611305 0.121354 0)
(0.616737 0.143216 0)
(0.623124 0.164941 0)
(0.630486 0.186495 0)
(0.638844 0.20784 0)
(0.648222 0.228935 0)
(0.658643 0.249727 0)
(0.67013 0.270161 0)
(0.682703 0.29017 0)
(0.696381 0.309683 0)
(0.711174 0.328616 0)
(0.72709 0.346881 0)
(0.744124 0.364377 0)
(0.762262 0.381001 0)
(0.781475 0.396641 0)
(0.801718 0.411184 0)
(0.822931 0.424513 0)
(0.845032 0.43652 0)
(0.867918 0.447093 0)
(0.891481 0.456149 0)
(0.91556 0.463568 0)
(0.940021 0.469371 0)
(0.964719 0.473316 0)
(0.989363 0.47573 2.1888e-027)
(0.553108 0.0116249 0)
(0.560941 0.0352656 0)
(0.563121 0.0588993 0)
(0.565881 0.0825176 0)
(0.569558 0.106101 0)
(0.574187 0.129626 0)
(0.579792 0.153074 0)
(0.586397 0.176421 0)
(0.59403 0.199639 0)
(0.602722 0.222693 0)
(0.612509 0.245543 0)
(0.623425 0.268139 0)
(0.635507 0.290422 0)
(0.648792 0.312324 0)
(0.663312 0.333766 0)
(0.679098 0.354655 0)
(0.696172 0.374889 0)
(0.714548 0.39435 0)
(0.734225 0.412912 0)
(0.755188 0.430438 0)
(0.777402 0.446782 0)
(0.800808 0.461796 0)
(0.825321 0.475332 0)
(0.850833 0.48724 0)
(0.877205 0.497411 0)
(0.904257 0.505658 0)
(0.931837 0.512043 0)
(0.959686 0.51619 0)
(0.987601 0.518513 1.7352e-025)
(0.5161 0.012319 0)
(0.523515 0.0373689 0)
(0.525718 0.0624281 0)
(0.528516 0.0874937 0)
(0.532246 0.11255 0)
(0.536951 0.137581 0)
(0.542658 0.162574 0)
(0.5494 0.187513 0)
(0.557212 0.212376 0)
(0.566138 0.237135 0)
(0.576222 0.261751 0)
(0.587515 0.28618 0)
(0.600069 0.310365 0)
(0.613938 0.334236 0)
(0.629177 0.357709 0)
(0.645837 0.380686 0)
(0.663964 0.40305 0)
(0.683595 0.424667 0)
(0.704752 0.445388 0)
(0.727441 0.465043 0)
(0.751644 0.483454 0)
(0.777306 0.500423 0)
(0.804365 0.515769 0)
(0.832662 0.529276 0)
(0.862108 0.540797 0)
(0.892437 0.550114 0)
(0.923386 0.557185 0)
(0.955 0.561657 0)
(0.986338 0.564011 -1.76569e-025)
(0.479407 0.0129735 0)
(0.486391 0.0393534 0)
(0.488589 0.0657607 0)
(0.491389 0.0921989 0)
(0.495125 0.118657 0)
(0.499844 0.145128 0)
(0.505581 0.171607 0)
(0.512373 0.198088 0)
(0.520266 0.224556 0)
(0.529312 0.25099 0)
(0.539569 0.277361 0)
(0.551104 0.303631 0)
(0.563985 0.329746 0)
(0.578288 0.35564 0)
(0.59409 0.38123 0)
(0.611471 0.406412 0)
(0.630504 0.43106 0)
(0.651259 0.455025 0)
(0.673789 0.478131 0)
(0.698132 0.500181 0)
(0.724291 0.520947 0)
(0.752257 0.540199 0)
(0.781914 0.557666 0)
(0.813244 0.573101 0)
(0.845911 0.586313 0)
(0.879833 0.596839 0)
(0.914848 0.605001 0)
(0.949897 0.609874 0)
(0.986004 0.612052 1.88144e-025)
(0.443264 0.0135825 0)
(0.449807 0.0412009 0)
(0.451973 0.068866 0)
(0.454739 0.0965886 0)
(0.458433 0.124363 0)
(0.463106 0.152192 0)
(0.468798 0.180081 0)
(0.475553 0.208033 0)
(0.483424 0.236045 0)
(0.492475 0.264105 0)
(0.502774 0.292195 0)
(0.514404 0.320286 0)
(0.527451 0.348335 0)
(0.542014 0.376282 0)
(0.558197 0.404049 0)
(0.576109 0.431532 0)
(0.595861 0.458601 0)
(0.617561 0.485095 0)
(0.641306 0.510818 0)
(0.667171 0.535532 0)
(0.695225 0.558992 0)
(0.725414 0.580844 0)
(0.757872 0.600871 0)
(0.792094 0.61858 0)
(0.828568 0.633772 0)
(0.866372 0.646163 0)
(0.904907 0.655248 0)
(0.946239 0.660782 0)
(0.985058 0.663641 0)
(0.407883 0.0141419 0)
(0.413978 0.0428982 0)
(0.416087 0.0717216 0)
(0.418785 0.10063 0)
(0.422392 0.129624 0)
(0.426962 0.158717 0)
(0.432538 0.187925 0)
(0.439171 0.217262 0)
(0.446921 0.246738 0)
(0.455859 0.276353 0)
(0.466067 0.306102 0)
(0.47764 0.33597 0)
(0.490684 0.365926 0)
(0.50532 0.395925 0)
(0.521678 0.425897 0)
(0.539903 0.455748 0)
(0.560146 0.48535 0)
(0.582563 0.514536 0)
(0.607304 0.54309 0)
(0.634515 0.570769 0)
(0.664259 0.597205 0)
(0.696772 0.622167 0)
(0.731562 0.645003 0)
(0.769683 0.66559 0)
(0.809037 0.68337 0)
(0.85134 0.69737 0)
(0.896428 0.708563 0)
(0.938288 0.715227 0)
(0.987282 0.71714 1.86775e-025)
(0.373452 0.0146489 0)
(0.379095 0.0444377 0)
(0.381125 0.074314 0)
(0.383725 0.104303 0)
(0.387203 0.134412 0)
(0.391617 0.164665 0)
(0.397013 0.19509 0)
(0.403444 0.225714 0)
(0.410978 0.256557 0)
(0.419692 0.287637 0)
(0.429679 0.318964 0)
(0.441046 0.350537 0)
(0.453915 0.382346 0)
(0.468428 0.414361 0)
(0.484744 0.446532 0)
(0.503041 0.478781 0)
(0.523514 0.510991 0)
(0.546376 0.542999 0)
(0.571843 0.574596 0)
(0.600106 0.605454 0)
(0.631471 0.635363 0)
(0.665628 0.663526 0)
(0.704014 0.690186 0)
(0.743474 0.713668 0)
(0.789204 0.734563 0)
(0.835262 0.751502 0)
(0.881347 0.764712 0)
(0.939185 0.771104 0)
(0.983504 0.776004 -1.38795e-026)
(0.34013 0.0151029 0)
(0.345322 0.0458167 0)
(0.347252 0.0766379 0)
(0.349728 0.107599 0)
(0.353042 0.138715 0)
(0.357254 0.170018 0)
(0.362411 0.201551 0)
(0.36857 0.233352 0)
(0.375802 0.265456 0)
(0.38419 0.297895 0)
(0.393835 0.330698 0)
(0.404853 0.363883 0)
(0.417381 0.397459 0)
(0.431579 0.431422 0)
(0.447631 0.465747 0)
(0.465747 0.500379 0)
(0.486171 0.535227 0)
(0.509162 0.57015 0)
(0.535021 0.604919 0)
(0.564077 0.639322 0)
(0.596388 0.672694 0)
(0.633226 0.705264 0)
(0.67162 0.735 0)
(0.719027 0.763405 0)