/*--------------------------------*- C++ -*----------------------------------*\
| =========                 |                                                 |
| \\      /  F ield         | OpenFOAM: The Open Source CFD Toolbox           |
|  \\    /   O peration     | Version:  5.x                                   |
|   \\  /    A nd           | Web:      www.OpenFOAM.org                      |
|    \\/     M anipulation  |                                                 |
\*---------------------------------------------------------------------------*/
/*   Windows 32 and 64 bit porting by blueCAPE: http://www.bluecape.com.pt   *\
|  Based on Windows porting (2.0.x v4) by Symscape: http://www.symscape.com   |
\*---------------------------------------------------------------------------*/
FoamFile
{
    version     2.0;
    format      ascii;
    class       volScalarField;
    location    "130";
    object      epsilon;
}
// * * * * * * * * * * * * * * * * * * * * * * * * * * * * * * * * * * * * * //

dimensions      [0 2 -3 0 0 0 0];

internalField   nonuniform List<scalar> 
43900
(
0.00152919
0.00151926
0.00151978
0.00151972
0.00151967
0.00151967
0.00151967
0.00151968
0.00151968
0.00151969
0.00151969
0.00151969
0.00151969
0.00151969
0.00151969
0.00151969
0.00151969
0.00151969
0.00151969
0.00151969
0.00151969
0.00151969
0.00151969
0.00151969
0.00151969
0.00151969
0.00151969
0.00151969
0.00151969
0.000340199
3.65277e-005
3.16297e-005
3.15309e-005
3.27658e-005
3.28006e-005
3.27946e-005
3.28045e-005
3.2798e-005
3.28082e-005
3.28085e-005
3.28095e-005
3.28104e-005
3.28111e-005
3.28118e-005
3.28125e-005
3.28132e-005
3.28139e-005
3.28147e-005
3.28155e-005
3.2816e-005
3.28164e-005
3.28168e-005
3.28171e-005
3.28174e-005
3.28177e-005
3.28179e-005
3.28181e-005
3.28181e-005
0.0484322
0.00511994
0.000223258
8.23513e-006
1.52775e-006
1.32331e-006
1.38977e-006
1.41723e-006
1.41879e-006
1.41735e-006
1.41749e-006
1.41791e-006
1.41827e-006
1.4186e-006
1.4189e-006
1.41916e-006
1.41939e-006
1.41959e-006
1.41977e-006
1.41992e-006
1.42004e-006
1.42014e-006
1.42023e-006
1.42031e-006
1.42039e-006
1.42045e-006
1.42051e-006
1.42057e-006
1.4206e-006
0.142835
0.0411849
0.00848887
0.000983237
4.56653e-005
1.67423e-006
1.87886e-007
1.10095e-007
1.10906e-007
1.19422e-007
1.20216e-007
1.20015e-007
1.2002e-007
1.20064e-007
1.20107e-007
1.20144e-007
1.20178e-007
1.20208e-007
1.20234e-007
1.20258e-007
1.20279e-007
1.20297e-007
1.20314e-007
1.20329e-007
1.20344e-007
1.20357e-007
1.2037e-007
1.20381e-007
1.20392e-007
0.19362
0.080534
0.030856
0.00931222
0.00185729
0.000177686
7.05667e-006
2.61239e-007
3.20891e-008
1.69416e-008
1.69834e-008
1.78866e-008
1.80052e-008
1.80161e-008
1.80224e-008
1.8028e-008
1.80331e-008
1.80375e-008
1.80419e-008
1.8046e-008
1.80491e-008
1.80527e-008
1.80563e-008
1.80597e-008
1.80628e-008
1.80651e-008
1.8069e-008
1.8072e-008
1.80751e-008
0.220198
0.105736
0.0503557
0.0228502
0.00885368
0.00237004
0.000354833
2.20516e-005
7.6992e-007
3.45952e-008
6.06451e-009
4.27985e-009
4.38244e-009
4.39738e-009
4.39873e-009
4.39963e-009
4.40057e-009
4.40166e-009
4.40266e-009
4.40368e-009
4.40476e-009
4.40559e-009
4.40632e-009
4.40714e-009
4.40798e-009
4.40925e-009
4.4099e-009
4.41042e-009
4.41099e-009
0.231024
0.119423
0.062311
0.0322329
0.015992
0.00711009
0.00234384
0.000465279
3.99003e-005
1.54225e-006
5.15041e-008
4.32302e-009
2.13535e-009
2.04946e-009
2.04852e-009
2.04855e-009
2.04863e-009
2.04884e-009
2.04925e-009
2.0498e-009
2.05072e-009
2.05115e-009
2.05181e-009
2.0521e-009
2.05258e-009
2.05382e-009
2.05332e-009
2.05333e-009
2.0534e-009
0.236148
0.128136
0.0706698
0.039212
0.0215387
0.0114011
0.00551122
0.00209138
0.000462201
4.3081e-005
1.61048e-006
4.75545e-008
3.24237e-009
2.00838e-009
1.9719e-009
1.9715e-009
1.97151e-009
1.97153e-009
1.97164e-009
1.97204e-009
1.97302e-009
1.97389e-009
1.97596e-009
1.97609e-009
1.97636e-009
1.97741e-009
1.97544e-009
1.97545e-009
1.97549e-009
0.235579
0.131627
0.0749846
0.0432266
0.0249568
0.0142087
0.00777011
0.00387221
0.00154215
0.000325404
2.57292e-005
8.04284e-007
2.29058e-008
3.40326e-009
2.93901e-009
2.92994e-009
2.92994e-009
2.92994e-009
2.93001e-009
2.93033e-009
2.93137e-009
2.93364e-009
2.93983e-009
2.93904e-009
2.93908e-009
2.93704e-009
2.93373e-009
2.93373e-009
2.93221e-009
0.2306
0.130713
0.0756803
0.0445289
0.0263973
0.0155906
0.0090174
0.00495742
0.00243797
0.000916466
0.000151559
7.98118e-006
2.06122e-007
1.1674e-008
7.28072e-009
7.19023e-009
7.19005e-009
7.19005e-009
7.19017e-009
7.19082e-009
7.19379e-009
7.20413e-009
7.21048e-009
7.20861e-009
7.19975e-009
7.19049e-009
7.18815e-009
7.17933e-009
7.17241e-009
0.224147
0.128478
0.0752119
0.0447493
0.0269086
0.0161977
0.00962968
0.00553361
0.00295384
0.00134206
0.000394004
3.89102e-005
1.20014e-006
4.71174e-008
2.21511e-008
2.16395e-008
2.16358e-008
2.16361e-008
2.16367e-008
2.16391e-008
2.16486e-008
2.16921e-008
2.16593e-008
2.1659e-008
2.15981e-008
2.1588e-008
2.15881e-008
2.15321e-008
2.15057e-008
0.217269
0.125455
0.0740224
0.0443924
0.026883
0.0163341
0.0098473
0.00578119
0.00320202
0.00156703
0.000562409
8.87096e-005
3.93411e-006
1.52452e-007
6.91675e-008
6.74397e-008
6.74316e-008
6.74315e-008
6.74342e-008
6.74645e-008
6.74192e-008
6.74285e-008
6.73845e-008
6.7384e-008
6.71249e-008
6.7124e-008
6.70221e-008
6.68141e-008
6.68137e-008
0.210005
0.121795
0.0722148
0.0435751
0.0265821
0.0162499
0.0098569
0.00584841
0.00329909
0.00167023
0.000652938
0.000124931
7.21683e-006
3.81685e-007
2.0413e-007
2.00133e-007
1.99984e-007
1.99985e-007
1.99961e-007
1.99976e-007
1.99832e-007
1.99832e-007
1.9952e-007
1.99232e-007
1.98823e-007
1.98626e-007
1.98316e-007
1.98e-007
1.98002e-007
0.202355
0.117709
0.0700049
0.0423862
0.0259779
0.0159927
0.00977525
0.00583615
0.00332132
0.00171227
0.000698661
0.000148275
1.00386e-005
6.33227e-007
3.64802e-007
3.58009e-007
3.57884e-007
3.57914e-007
3.57553e-007
3.57553e-007
3.57077e-007
3.56978e-007
3.56373e-007
3.56017e-007
3.56018e-007
3.55752e-007
3.54924e-007
3.54919e-007
3.5492e-007
0.194362
0.11333
0.0675702
0.0410216
0.0252139
0.0155785
0.00958003
0.00576921
0.00330905
0.0017227
0.000720646
0.000162864
1.23717e-005
8.52152e-007
4.83931e-007
4.73459e-007
4.73101e-007
4.72998e-007
4.72633e-007
4.72633e-007
4.72109e-007
4.71927e-007
4.71578e-007
4.71508e-007
4.71111e-007
4.70286e-007
4.70258e-007
4.69884e-007
4.69852e-007
0.186096
0.108751
0.0649932
0.0395587
0.0243825
0.0151097
0.00932176
0.0056412
0.00326622
0.00171805
0.000731054
0.000172774
1.43668e-005
1.0458e-006
5.66513e-007
5.51301e-007
5.51095e-007
5.50532e-007
5.50532e-007
5.50414e-007
5.49849e-007
5.49516e-007
5.49322e-007
5.49439e-007
5.4876e-007
5.48512e-007
5.48157e-007
5.47806e-007
5.4794e-007
0.177585
0.104017
0.0623174
0.0380332
0.0235117
0.0146168
0.00904924
0.00549798
0.00319931
0.00170106
0.000735225
0.000181174
1.64787e-005
1.24564e-006
6.23123e-007
6.01228e-007
6.00104e-007
6.0017e-007
5.99739e-007
5.99906e-007
5.99518e-007
5.98822e-007
5.99084e-007
5.98502e-007
5.98346e-007
5.98432e-007
5.97858e-007
5.9786e-007
5.97509e-007
0.168823
0.0991389
0.0595578
0.0364592
0.0226135
0.0141091
0.00876923
0.00535121
0.00313004
0.00167592
0.000734591
0.000188185
1.87157e-005
1.46573e-006
6.63718e-007
6.31167e-007
6.30748e-007
6.30096e-007
6.30196e-007
6.29845e-007
6.29042e-007
6.29549e-007
6.29096e-007
6.28918e-007
6.28994e-007
6.28357e-007
6.28371e-007
6.28187e-007
6.27764e-007
0.159819
0.0941255
0.0567226
0.0348438
0.0216936
0.0135912
0.00848548
0.00520409
0.00306188
0.00165227
0.000734992
0.000195276
2.10953e-005
1.72581e-006
6.96992e-007
6.51126e-007
6.47886e-007
6.4781e-007
6.47764e-007
6.47404e-007
6.48005e-007
6.47568e-007
6.46914e-007
6.47135e-007
6.46664e-007
6.46584e-007
6.46937e-007
6.46261e-007
6.45839e-007
0.150581
0.088981
0.0538136
0.0331873
0.0207516
0.0130623
0.00819741
0.00505661
0.00299574
0.00163174
0.000737383
0.000203678
2.41668e-005
2.07908e-006
7.32918e-007
6.61842e-007
6.58625e-007
6.5905e-007
6.58588e-007
6.58473e-007
6.58283e-007
6.57435e-007
6.58239e-007
6.58306e-007
6.57353e-007
6.5774e-007
6.57142e-007
6.56607e-007
6.57598e-007
0.141162
0.0837302
0.0508424
0.0314949
0.0197897
0.0125234
0.0079055
0.00490883
0.00293097
0.00161296
0.000741777
0.0002143
2.79118e-005
2.5305e-006
7.75047e-007
6.71118e-007
6.66505e-007
6.6505e-007
6.64641e-007
6.65707e-007
6.6447e-007
6.65107e-007
6.65379e-007
6.6337e-007
6.64368e-007
6.64524e-007
6.63701e-007
6.64596e-007
6.63302e-007
0.131603
0.0783957
0.0478208
0.0297726
0.0188108
0.0119756
0.00760972
0.00476043
0.00286774
0.0015972
0.000749748
0.000226601
3.22971e-005
3.14867e-006
8.35589e-007
6.81978e-007
6.69905e-007
6.68886e-007
6.70707e-007
6.68942e-007
6.69505e-007
6.70001e-007
6.68021e-007
6.69509e-007
6.69461e-007
6.67686e-007
6.6876e-007
6.68227e-007
6.68453e-007
0.121963
0.0730042
0.0447606
0.0280247
0.0178154
0.011418
0.00730881
0.00461023
0.00280496
0.00158305
0.000759048
0.000241261
3.82996e-005
4.0477e-006
9.31378e-007
6.91824e-007
6.74838e-007
6.75103e-007
6.73138e-007
6.73377e-007
6.7349e-007
6.7227e-007
6.73396e-007
6.72575e-007
6.71764e-007
6.72779e-007
6.72142e-007
6.7146e-007
6.70975e-007
0.112325
0.067598
0.0416832
0.0262619
0.0168091
0.0108533
0.00700423
0.00445897
0.00274285
0.00157054
0.000771604
0.000260085
4.57899e-005
5.26237e-006
1.07005e-006
7.10391e-007
6.80621e-007
6.77116e-007
6.77431e-007
6.76839e-007
6.76602e-007
6.76714e-007
6.75918e-007
6.76737e-007
6.75929e-007
6.75127e-007
6.75329e-007
6.75337e-007
6.75802e-007
0.102752
0.0622103
0.0386056
0.0244926
0.0157953
0.0102822
0.00669502
0.00430493
0.00267978
0.0015591
0.000786533
0.000279661
5.43227e-005
6.88528e-006
1.28558e-006
7.36144e-007
6.85556e-007
6.8226e-007
6.80233e-007
6.80914e-007
6.80294e-007
6.79954e-007
6.80818e-007
6.79276e-007
6.79545e-007
6.7992e-007
6.78276e-007
6.78632e-007
6.77911e-007
0.0933341
0.0568848
0.0355488
0.0227258
0.014777
0.00970521
0.00638098
0.00414802
0.00261586
0.00154808
0.000801929
0.000302554
6.5839e-005
9.32084e-006
1.6288e-006
7.83538e-007
6.95964e-007
6.85681e-007
6.86483e-007
6.84719e-007
6.83943e-007
6.84794e-007
6.83653e-007
6.8452e-007
6.83507e-007
6.82364e-007
6.83082e-007
6.81373e-007
6.81665e-007
0.0841568
0.0516679
0.0325379
0.0209752
0.0137618
0.00912618
0.00606359
0.00398811
0.00255001
0.00153689
0.000820177
0.00032906
7.94361e-005
1.24815e-005
2.1441e-006
8.5936e-007
7.08068e-007
6.93786e-007
6.89922e-007
6.90277e-007
6.90506e-007
6.89368e-007
6.89233e-007
6.8777e-007
6.88142e-007
6.87686e-007
6.86426e-007
6.87855e-007
6.85797e-007
0.0752946
0.0465988
0.0295929
0.0192504
0.0127534
0.00854592
0.00574242
0.00382462
0.00248183
0.00152436
0.000836757
0.000354778
9.46393e-005
1.65645e-005
2.87321e-006
9.75439e-007
7.31572e-007
6.99861e-007
6.98513e-007
6.95431e-007
6.94294e-007
6.94434e-007
6.9545e-007
6.96369e-007
6.93059e-007
6.92963e-007
6.9262e-007
6.91126e-007
6.92842e-007
0.0668276
0.0417205
0.0267369
0.0175633
0.0117574
0.00796644
0.00541732
0.00365595
0.00240898
0.00150889
0.000853319
0.000383853
0.000113215
2.22236e-005
4.03261e-006
1.18132e-006
7.67704e-007
7.11632e-007
7.03238e-007
7.04864e-007
7.03355e-007
7.01786e-007
7.00228e-007
6.99912e-007
7.02717e-007
7.00363e-007
6.97447e-007
6.98383e-007
6.97102e-007
0.0588249
0.0370717
0.0239914
0.0159255
0.01078
0.00739069
0.00508963
0.00348283
0.00233205
0.00149057
0.000868178
0.000411613
0.000133868
2.94495e-005
5.64929e-006
1.4917e-006
8.27883e-007
7.32333e-007
7.14678e-007
7.10206e-007
7.11191e-007
7.10501e-007
7.10809e-007
7.10147e-007
7.07716e-007
7.08653e-007
7.08043e-007
7.05155e-007
7.05148e-007
0.0513424
0.0326854
0.0213757
0.0143483
0.00982739
0.00682184
0.00476061
0.0033053
0.00225029
0.00146836
0.000881085
0.000442521
0.000158324
3.902e-005
8.12152e-006
2.03508e-006
9.47388e-007
7.56235e-007
7.2601e-007
7.24672e-007
7.20965e-007
7.18891e-007
7.17233e-007
7.17951e-007
7.20896e-007
7.16624e-007
7.16159e-007
7.14486e-007
7.12977e-007
0.0444229
0.028588
0.0189059
0.0128409
0.00890437
0.0062618
0.00443026
0.00312215
0.0021619
0.00144029
0.000889435
0.000467463
0.000181784
4.95309e-005
1.10461e-005
2.69855e-006
1.0941e-006
8.0438e-007
7.43494e-007
7.32551e-007
7.35332e-007
7.32798e-007
7.32038e-007
7.27898e-007
7.26976e-007
7.32051e-007
7.28275e-007
7.25263e-007
7.21664e-007
0.0380972
0.0248007
0.0165958
0.0114123
0.0080165
0.00571379
0.00410019
0.00293393
0.00206662
0.00140551
0.000892018
0.000494157
0.000208923
6.37384e-005
1.58162e-005
3.96471e-006
1.39517e-006
8.68873e-007
7.78285e-007
7.53675e-007
7.44808e-007
7.46067e-007
7.4504e-007
7.47667e-007
7.40803e-007
7.38732e-007
7.44188e-007
7.41248e-007
7.36158e-007
0.0323799
0.0213366
0.014456
0.0100701
0.00716906
0.00518121
0.00377246
0.0027418
0.00196518
0.00136451
0.000889285
0.000512952
0.000234267
7.845e-005
2.10554e-005
5.50897e-006
1.81482e-006
9.92362e-007
8.09928e-007
7.80487e-007
7.69681e-007
7.58711e-007
7.58547e-007
7.59443e-007
7.66852e-007
7.58914e-007
7.52589e-007
7.59319e-007
7.56709e-007
0.0272711
0.0182014
0.0124926
0.00881988
0.00636618
0.00466675
0.00344841
0.00254588
0.00185657
0.00131557
0.000881322
0.000530434
0.000259249
9.65152e-005
2.87671e-005
7.91698e-006
2.49563e-006
1.16624e-006
8.76088e-007
8.03061e-007
7.91065e-007
7.88024e-007
7.79935e-007
7.76301e-007
7.76863e-007
7.83586e-007
7.76184e-007
7.69407e-007
7.76507e-007
0.0227579
0.0153936
0.0107086
0.00766559
0.00561163
0.00417339
0.00313012
0.00234746
0.00174157
0.00125912
0.00086569
0.000540085
0.00028129
0.0001128
3.65189e-005
1.08228e-005
3.43185e-006
1.48393e-006
9.64829e-007
8.54271e-007
8.15867e-007
8.06763e-007
8.06171e-007
8.0135e-007
8.0137e-007
7.98415e-007
8.04517e-007
7.97302e-007
7.89434e-007
0.0188155
0.0129054
0.00910335
0.00660931
0.00490819
0.00370368
0.00281946
0.00214755
0.00162012
0.00119377
0.000840868
0.000541235
0.000297973
0.000131346
4.66522e-005
1.48566e-005
4.8473e-006
1.91619e-006
1.11723e-006
9.01248e-007
8.63937e-007
8.44858e-007
8.31544e-007
8.304e-007
8.25276e-007
8.27979e-007
8.23196e-007
8.27517e-007
8.2042e-007
0.0154103
0.0107234
0.0076728
0.00565139
0.00425791
0.00326004
0.00251865
0.00194795
0.00149372
0.00112113
0.000807225
0.000536755
0.000310924
0.000145397
5.62466e-005
1.92805e-005
6.5552e-006
2.57929e-006
1.3589e-006
1.00838e-006
8.99031e-007
8.90233e-007
8.79274e-007
8.6523e-007
8.59803e-007
8.55804e-007
8.61681e-007
8.55093e-007
8.56814e-007
0.0125013
0.00882953
0.00641022
0.00479052
0.0036619
0.0028445
0.00222982
0.00175048
0.00136357
0.00104126
0.000766018
0.000524791
0.000315874
0.000159637
6.62559e-005
2.47746e-005
8.90609e-006
3.46017e-006
1.71458e-006
1.13835e-006
9.79215e-007
9.2321e-007
9.27006e-007
9.19371e-007
9.02355e-007
8.94212e-007
8.88809e-007
8.95211e-007
8.878e-007
0.0100431
0.00720235
0.00530642
0.0040238
0.00312035
0.00245859
0.0019549
0.00155696
0.00123119
0.000955791
0.000716337
0.000503958
0.000313726
0.0001673
7.54406e-005
2.97885e-005
1.15718e-005
4.63621e-006
2.18612e-006
1.36855e-006
1.088e-006
1.0042e-006
9.64159e-007
9.74478e-007
9.65157e-007
9.50115e-007
9.44938e-007
9.34167e-007
9.41316e-007
0.00798774
0.0058181
0.00435041
0.00334697
0.00263254
0.00210329
0.00169557
0.00136921
0.00109823
0.000865447
0.000660027
0.000474389
0.0003065
0.000169843
8.18118e-005
3.53916e-005
1.43152e-005
6.1518e-006
2.88234e-006
1.6651e-006
1.24373e-006
1.09053e-006
1.04866e-006
1.01881e-006
1.03162e-006
1.01523e-006
1.00238e-006
9.85995e-007
9.77281e-007
0.00628683
0.00465185
0.00352992
0.00275476
0.00219697
0.00177912
0.00145332
0.00118905
0.00096641
0.000772311
0.000597685
0.000437686
0.000292384
0.000168289
8.56374e-005
3.96228e-005
1.75404e-005
7.56668e-006
3.73095e-006
2.07651e-006
1.43895e-006
1.21977e-006
1.13151e-006
1.11073e-006
1.0913e-006
1.10833e-006
1.09249e-006
1.08311e-006
1.05401e-006
0.0048933
0.00367843
0.00283202
0.00224114
0.00181152
0.00148614
0.00122933
0.00101819
0.000837683
0.00067749
0.000531377
0.000394995
0.000269659
0.000163143
8.60842e-005
4.22163e-005
1.99709e-005
9.57616e-006
4.60359e-006
2.70481e-006
1.74461e-006
1.37483e-006
1.26652e-006
1.19966e-006
1.19167e-006
1.17599e-006
1.18819e-006
1.17604e-006
1.16344e-006
0.00376269
0.00287337
0.00224364
0.00179962
0.00147358
0.00122396
0.00102453
0.000858251
0.00071377
0.000583718
0.000462482
0.000348572
0.00024272
0.000152468
8.47867e-005
4.381e-005
2.18598e-005
1.10335e-005
5.87404e-006
3.23963e-006
2.28811e-006
1.63768e-006
1.42431e-006
1.34649e-006
1.29256e-006
1.29225e-006
1.27608e-006
1.28832e-006
1.27396e-006
0.00285411
0.00221357
0.00175202
0.00142358
0.00118017
0.000991866
0.00083955
0.000710652
0.000596877
0.000492432
0.000393973
0.000299566
0.000211794
0.000137113
8.07393e-005
4.35708e-005
2.32721e-005
1.226e-005
6.8076e-006
4.04298e-006
2.59193e-006
2.13468e-006
1.65925e-006
1.56207e-006
1.46591e-006
1.42419e-006
1.41935e-006
1.39207e-006
1.41295e-006
0.0021309
0.00167781
0.00134506
0.00110644
0.00092813
0.000788801
0.000674663
0.000576583
0.000488281
0.00040606
0.000326713
0.000250253
0.000178898
0.000117842
7.29453e-005
4.21096e-005
2.34976e-005
1.33246e-005
7.64431e-006
4.79655e-006
3.17455e-006
2.36652e-006
2.09577e-006
1.78788e-006
1.73807e-006
1.63749e-006
1.60982e-006
1.58881e-006
1.54038e-006
0.00156093
0.00124702
0.0010116
0.000841865
0.000714178
0.000613456
0.000529869
0.000456687
0.000389672
0.000325276
0.000263653
0.000202171
0.000145528
9.85e-005
6.2541e-005
3.88848e-005
2.29473e-005
1.36962e-005
8.38417e-006
5.41546e-006
3.77986e-006
2.81328e-006
2.30522e-006
2.15241e-006
1.94111e-006
1.90481e-006
1.83348e-006
1.82327e-006
1.79568e-006
0.00111661
0.000904451
0.000741519
0.000623927
0.00053507
0.000464356
0.00040476
0.000351691
0.000301427
0.000253036
0.000204446
0.000157784
0.000114178
7.85237e-005
5.20263e-005
3.33847e-005
2.13603e-005
1.33954e-005
8.70202e-006
5.91348e-006
4.26582e-006
3.33655e-006
2.76007e-006
2.38557e-006
2.32281e-006
2.18699e-006
2.17546e-006
2.12569e-006
2.10404e-006
0.000774773
0.000635662
0.000525859
0.000447174
0.000387667
0.000339859
0.000298926
0.000261308
0.000225013
0.000188924
0.000152508
0.000116891
8.61242e-005
5.96823e-005
4.05476e-005
2.73389e-005
1.82651e-005
1.24107e-005
8.53712e-006
6.0984e-006
4.69304e-006
3.72117e-006
3.24457e-006
2.8672e-006
2.62963e-006
2.62939e-006
2.54475e-006
2.5442e-006
2.48248e-006
0.000516267
0.000428344
0.000356796
0.000306725
0.000268979
0.000238295
0.000211364
0.000185723
0.000160055
0.000134232
0.000107252
8.20847e-005
6.0674e-005
4.30365e-005
2.99973e-005
2.08461e-005
1.49491e-005
1.06476e-005
8.02023e-006
6.02674e-006
4.86957e-006
4.14664e-006
3.59408e-006
3.36689e-006
3.13055e-006
3.06937e-006
3.15339e-006
3.08514e-006
3.10265e-006
0.000325401
0.000272122
0.000227694
0.000198298
0.000176236
0.000157966
0.000141084
0.00012426
0.000107139
8.83218e-005
7.05255e-005
5.36038e-005
3.98109e-005
2.88812e-005
2.11462e-005
1.52794e-005
1.15628e-005
8.81721e-006
7.04131e-006
5.80688e-006
4.83205e-006
4.31935e-006
3.87911e-006
3.68606e-006
3.67924e-006
3.65563e-006
3.65994e-006
3.80069e-006
3.72988e-006
0.000189261
0.000158443
0.000133128
0.000118263
0.000106991
9.70811e-005
8.70956e-005
7.66673e-005
6.52401e-005
5.36515e-005
4.20757e-005
3.30136e-005
2.44998e-005
1.87055e-005
1.42621e-005
1.10904e-005
8.79236e-006
7.16106e-006
6.07992e-006
5.33859e-006
4.72144e-006
4.28613e-006
4.08361e-006
4.05217e-006
4.09473e-006
4.2803e-006
4.48619e-006
4.6491e-006
5.03871e-006
9.73741e-005
8.07453e-005
6.88618e-005
6.3499e-005
5.88187e-005
5.39451e-005
4.87582e-005
4.27481e-005
3.60796e-005
2.97846e-005
2.36536e-005
1.88854e-005
1.48075e-005
1.16089e-005
9.55233e-006
7.80058e-006
6.84876e-006
5.76817e-006
5.25701e-006
4.7257e-006
4.44139e-006
4.24719e-006
4.22311e-006
4.25783e-006
4.39624e-006
4.61251e-006
5.16375e-006
5.40979e-006
6.0291e-006
4.17305e-005
3.42088e-005
3.08483e-005
3.03756e-005
2.89072e-005
2.71951e-005
2.47304e-005
2.16202e-005
1.87628e-005
1.55753e-005
1.31543e-005
1.09287e-005
9.04087e-006
7.87603e-006
6.70077e-006
5.80467e-006
5.2636e-006
4.73926e-006
4.51121e-006
4.3874e-006
4.42508e-006
4.50799e-006
4.82319e-006
5.29746e-006
6.29628e-006
7.131e-006
8.852e-006
9.61039e-006
9.9864e-006
1.46788e-005
1.2467e-005
1.26307e-005
1.35068e-005
1.332e-005
1.28979e-005
1.20483e-005
1.08551e-005
9.9898e-006
8.48405e-006
7.7611e-006
6.43763e-006
5.71263e-006
5.30242e-006
5.14642e-006
5.28855e-006
6.03089e-006
7.46543e-006
1.20079e-005
1.94566e-005
3.75489e-005
6.44076e-005
0.000109442
0.000182216
0.00025624
0.000383647
0.000466237
0.000553776
0.000511315
5.02588e-006
4.79638e-006
5.43234e-006
6.27618e-006
6.34841e-006
6.4366e-006
6.11613e-006
5.65014e-006
5.34387e-006
5.09958e-006
5.27841e-006
5.99202e-006
8.27445e-006
1.34085e-005
2.98162e-005
6.10339e-005
0.000139775
0.00024519
0.000487006
0.000766245
0.00131781
0.00196799
0.00292839
0.00423279
0.00560284
0.00797911
0.00952372
0.0131754
0.0132982
2.22699e-006
2.34619e-006
2.76741e-006
3.21341e-006
3.37321e-006
3.7651e-006
4.48455e-006
5.52236e-006
7.8748e-006
1.36594e-005
3.09558e-005
7.298e-005
0.000174977
0.00033923
0.000714652
0.00119906
0.00210993
0.00319519
0.00500032
0.00715949
0.010384
0.0142801
0.0197112
0.0266102
0.0352216
0.048067
0.060502
0.0874177
0.102059
1.35475e-006
1.47586e-006
1.80179e-006
2.51845e-006
5.07957e-006
8.87471e-006
2.34045e-005
4.39711e-005
0.000100816
0.00021936
0.000479133
0.000939347
0.00172523
0.00283914
0.00468779
0.00701172
0.0104454
0.0147652
0.0208721
0.0284424
0.0388655
0.0516817
0.0694822
0.0914495
0.122467
0.16294
0.218483
0.309378
0.399068
1.1579e-006
1.58817e-006
2.88622e-006
7.40467e-006
2.97177e-005
6.70642e-005
0.000180364
0.000348988
0.000747395
0.00140119
0.00260967
0.00441013
0.00708011
0.0108061
0.0162498
0.0230609
0.0324893
0.0444002
0.0605642
0.0805253
0.107648
0.140743
0.187452
0.243718
0.329111
0.431908
0.605965
0.822136
1.14868
0.00151969
0.00151969
0.00151969
0.00151969
0.00151969
0.00151969
0.00151969
0.00151969
0.00151969
0.00151969
0.00151969
0.00151969
0.00151969
0.00151969
0.00151969
0.00151969
0.00151969
0.00151969
0.00151969
0.00151969
0.00151969
0.00151969
0.00151969
0.00151969
0.00151969
0.00151969
0.00151969
0.00151969
0.00151969
0.00151969
0.00151969
0.00151969
0.00151969
0.0015197
0.0015197
0.0015197
0.0015197
0.0015197
0.0015197
0.0015197
0.0015197
0.0015197
0.0015197
0.0015197
0.0015197
0.0015197
0.0015197
0.0015197
0.0015197
0.0015197
0.0015197
0.0015197
0.0015197
0.0015197
0.0015197
0.0015197
0.0015197
0.0015197
0.0015197
0.0015197
0.0015197
0.0015197
0.0015197
0.0015197
0.0015197
0.00151971
0.00151971
0.00151971
0.00151971
0.00151971
0.00151971
0.00151971
0.00151971
0.00151971
0.00151971
0.00151971
0.00151971
0.00151971
0.00151971
0.00151971
0.00151971
0.00151971
0.00151971
0.00151971
0.00151971
0.00151971
0.00151971
0.00151971
0.00151971
0.00151971
0.00151971
0.00151971
0.00151971
0.00151971
0.00151971
0.00151971
0.00151971
0.00151971
0.00151971
0.00151971
0.00151971
0.00151971
0.00151971
0.00151971
0.00151971
0.00151971
0.00151971
0.00151971
0.00151971
0.00151971
0.00151971
0.00151971
0.00151971
0.00151971
0.00151971
0.00151971
0.00151971
0.00151971
0.00151971
0.00151971
0.00151971
0.00151971
0.00151971
0.00151971
0.00151971
0.00151971
0.00151971
0.00151971
0.00151971
0.00151971
0.00151971
0.00151971
0.00151971
0.00151971
0.00151971
0.00151972
0.00151971
0.00151973
0.00154202
3.28182e-005
3.28184e-005
3.28184e-005
3.28184e-005
3.28184e-005
3.28183e-005
3.28182e-005
3.28182e-005
3.28181e-005
3.2818e-005
3.2818e-005
3.2818e-005
3.2818e-005
3.2818e-005
3.28181e-005
3.28181e-005
3.28182e-005
3.28183e-005
3.28184e-005
3.28186e-005
3.28187e-005
3.28189e-005
3.28192e-005
3.28194e-005
3.28197e-005
3.28199e-005
3.28202e-005
3.28206e-005
3.28209e-005
3.28212e-005
3.28216e-005
3.2822e-005
3.28224e-005
3.28228e-005
3.28232e-005
3.28237e-005
3.28241e-005
3.28246e-005
3.2825e-005
3.28255e-005
3.28259e-005
3.28263e-005
3.28267e-005
3.28271e-005
3.28274e-005
3.28278e-005
3.28282e-005
3.28285e-005
3.28289e-005
3.28292e-005
3.28296e-005
3.28299e-005
3.28303e-005
3.28306e-005
3.2831e-005
3.28313e-005
3.28317e-005
3.28321e-005
3.28324e-005
3.28328e-005
3.28332e-005
3.28336e-005
3.2834e-005
3.28343e-005
3.28346e-005
3.2835e-005
3.28353e-005
3.28356e-005
3.28358e-005
3.28361e-005
3.28364e-005
3.28366e-005
3.28369e-005
3.28371e-005
3.28374e-005
3.28376e-005
3.28378e-005
3.28381e-005
3.28383e-005
3.28385e-005
3.28387e-005
3.28389e-005
3.2839e-005
3.28392e-005
3.28394e-005
3.28395e-005
3.28397e-005
3.28398e-005
3.28399e-005
3.28398e-005
3.28398e-005
3.28397e-005
3.28397e-005
3.28396e-005
3.28396e-005
3.28396e-005
3.28396e-005
3.28396e-005
3.28396e-005
3.28395e-005
3.28395e-005
3.28395e-005
3.28395e-005
3.28395e-005
3.28395e-005
3.28395e-005
3.28395e-005
3.28395e-005
3.28395e-005
3.28395e-005
3.28395e-005
3.28394e-005
3.2839e-005
3.28385e-005
3.2838e-005
3.28374e-005
3.28368e-005
3.28363e-005
3.28361e-005
3.28362e-005
3.28364e-005
3.28366e-005
3.28367e-005
3.28369e-005
3.28368e-005
3.2837e-005
3.28369e-005
3.2837e-005
3.28379e-005
3.2837e-005
3.28394e-005
3.28384e-005
3.28406e-005
3.2844e-005
3.28418e-005
3.28473e-005
3.28589e-005
3.27186e-005
3.374e-005
1.42066e-006
1.42074e-006
1.4208e-006
1.42085e-006
1.4209e-006
1.42095e-006
1.42099e-006
1.42103e-006
1.42108e-006
1.42112e-006
1.42116e-006
1.4212e-006
1.42124e-006
1.42128e-006
1.42132e-006
1.42136e-006
1.4214e-006
1.42144e-006
1.42148e-006
1.42153e-006
1.42157e-006
1.42162e-006
1.42166e-006
1.42171e-006
1.42175e-006
1.4218e-006
1.42185e-006
1.4219e-006
1.42195e-006
1.422e-006
1.42205e-006
1.4221e-006
1.42215e-006
1.42221e-006
1.42226e-006
1.42232e-006
1.42238e-006
1.42244e-006
1.4225e-006
1.42256e-006
1.42262e-006
1.42268e-006
1.42275e-006
1.42281e-006
1.42287e-006
1.42293e-006
1.423e-006
1.42306e-006
1.42312e-006
1.42319e-006
1.42325e-006
1.42332e-006
1.42338e-006
1.42345e-006
1.42351e-006
1.42357e-006
1.42364e-006
1.4237e-006
1.42376e-006
1.42382e-006
1.42388e-006
1.42393e-006
1.42398e-006
1.42404e-006
1.42409e-006
1.42414e-006
1.42419e-006
1.42424e-006
1.42429e-006
1.42433e-006
1.42438e-006
1.42442e-006
1.42447e-006
1.42451e-006
1.42455e-006
1.42459e-006
1.42463e-006
1.42467e-006
1.42471e-006
1.42474e-006
1.42478e-006
1.42481e-006
1.42484e-006
1.42488e-006
1.42491e-006
1.42494e-006
1.42497e-006
1.425e-006
1.42502e-006
1.42504e-006
1.42505e-006
1.42506e-006
1.42506e-006
1.42506e-006
1.42505e-006
1.42505e-006
1.42504e-006
1.42503e-006
1.42501e-006
1.425e-006
1.42497e-006
1.42495e-006
1.42492e-006
1.4249e-006
1.42487e-006
1.42484e-006
1.4248e-006
1.42477e-006
1.42473e-006
1.42469e-006
1.42465e-006
1.42462e-006
1.42458e-006
1.42453e-006
1.42448e-006
1.42443e-006
1.42438e-006
1.42433e-006
1.4243e-006
1.42427e-006
1.42425e-006
1.42422e-006
1.42419e-006
1.42416e-006
1.42412e-006
1.42405e-006
1.42405e-006
1.42394e-006
1.42395e-006
1.42395e-006
1.42386e-006
1.42396e-006
1.42366e-006
1.42431e-006
1.4259e-006
1.42545e-006
1.33407e-006
2.03928e-006
0.000146685
1.20404e-007
1.20417e-007
1.20429e-007
1.20441e-007
1.20452e-007
1.20463e-007
1.20474e-007
1.20484e-007
1.20495e-007
1.20505e-007
1.20515e-007
1.20526e-007
1.20536e-007
1.20546e-007
1.20557e-007
1.20568e-007
1.20578e-007
1.20589e-007
1.206e-007
1.20611e-007
1.20621e-007
1.20633e-007
1.20644e-007
1.20655e-007
1.20666e-007
1.20678e-007
1.20689e-007
1.20701e-007
1.20713e-007
1.20724e-007
1.20736e-007
1.20748e-007
1.2076e-007
1.20772e-007
1.20784e-007
1.20796e-007
1.20809e-007
1.20821e-007
1.20833e-007
1.20845e-007
1.20857e-007
1.20869e-007
1.20881e-007
1.20893e-007
1.20905e-007
1.20917e-007
1.20929e-007
1.20941e-007
1.20953e-007
1.20965e-007
1.20977e-007
1.20988e-007
1.21e-007
1.21011e-007
1.21023e-007
1.21034e-007
1.21045e-007
1.21056e-007
1.21067e-007
1.21077e-007
1.21088e-007
1.21098e-007
1.21108e-007
1.21117e-007
1.21127e-007
1.21136e-007
1.21146e-007
1.21155e-007
1.21164e-007
1.21172e-007
1.21181e-007
1.21189e-007
1.21197e-007
1.21205e-007
1.21213e-007
1.2122e-007
1.21227e-007
1.21234e-007
1.21241e-007
1.21248e-007
1.21254e-007
1.2126e-007
1.21266e-007
1.21271e-007
1.21277e-007
1.21281e-007
1.21286e-007
1.2129e-007
1.21294e-007
1.21298e-007
1.21302e-007
1.21305e-007
1.21308e-007
1.2131e-007
1.21312e-007
1.21313e-007
1.21314e-007
1.21314e-007
1.21314e-007
1.21313e-007
1.21311e-007
1.21309e-007
1.21306e-007
1.21303e-007
1.213e-007
1.21296e-007
1.21292e-007
1.21287e-007
1.21282e-007
1.21276e-007
1.2127e-007
1.21265e-007
1.2126e-007
1.21255e-007
1.21249e-007
1.21243e-007
1.21236e-007
1.21228e-007
1.2122e-007
1.21211e-007
1.21202e-007
1.21191e-007
1.21181e-007
1.21166e-007
1.21152e-007
1.21135e-007
1.21111e-007
1.21103e-007
1.21067e-007
1.21077e-007
1.21054e-007
1.21025e-007
1.21184e-007
1.21202e-007
1.14436e-007
1.12572e-007
7.02149e-007
9.21524e-005
0.00556537
1.80777e-008
1.80819e-008
1.80856e-008
1.8089e-008
1.80922e-008
1.80955e-008
1.80987e-008
1.81019e-008
1.81051e-008
1.81083e-008
1.81116e-008
1.81149e-008
1.81182e-008
1.81216e-008
1.8125e-008
1.81285e-008
1.8132e-008
1.81356e-008
1.81392e-008
1.8143e-008
1.81467e-008
1.81506e-008
1.81544e-008
1.81584e-008
1.81624e-008
1.81664e-008
1.81704e-008
1.81746e-008
1.81787e-008
1.81829e-008
1.81871e-008
1.81913e-008
1.81956e-008
1.81998e-008
1.82042e-008
1.82085e-008
1.82128e-008
1.82172e-008
1.82215e-008
1.82258e-008
1.82301e-008
1.82344e-008
1.82387e-008
1.8243e-008
1.82473e-008
1.82515e-008
1.82557e-008
1.82599e-008
1.82641e-008
1.82682e-008
1.82723e-008
1.82764e-008
1.82804e-008
1.82844e-008
1.82884e-008
1.82923e-008
1.82961e-008
1.82999e-008
1.83037e-008
1.83074e-008
1.8311e-008
1.83147e-008
1.83182e-008
1.83217e-008
1.83252e-008
1.83286e-008
1.8332e-008
1.83353e-008
1.83385e-008
1.83416e-008
1.83447e-008
1.83478e-008
1.83508e-008
1.83536e-008
1.83565e-008
1.83592e-008
1.83619e-008
1.83645e-008
1.8367e-008
1.83695e-008
1.83719e-008
1.83742e-008
1.83764e-008
1.83786e-008
1.83806e-008
1.83826e-008
1.83844e-008
1.83862e-008
1.83879e-008
1.83897e-008
1.83913e-008
1.83929e-008
1.83944e-008
1.83958e-008
1.83971e-008
1.83983e-008
1.83994e-008
1.84003e-008
1.84011e-008
1.84018e-008
1.84023e-008
1.84027e-008
1.8403e-008
1.84031e-008
1.84031e-008
1.8403e-008
1.84027e-008
1.84023e-008
1.84017e-008
1.8401e-008