/*--------------------------------*- C++ -*----------------------------------*\
| =========                 |                                                 |
| \\      /  F ield         | OpenFOAM: The Open Source CFD Toolbox           |
|  \\    /   O peration     | Version:  5.x                                   |
|   \\  /    A nd           | Web:      www.OpenFOAM.org                      |
|    \\/     M anipulation  |                                                 |
\*---------------------------------------------------------------------------*/
/*   Windows 32 and 64 bit porting by blueCAPE: http://www.bluecape.com.pt   *\
|  Based on Windows porting (2.0.x v4) by Symscape: http://www.symscape.com   |
\*---------------------------------------------------------------------------*/
FoamFile
{
    version     2.0;
    format      ascii;
    class       volScalarField;
    location    "130";
    object      k;
}
// * * * * * * * * * * * * * * * * * * * * * * * * * * * * * * * * * * * * * //

dimensions      [0 2 -2 0 0 0 0];

internalField   nonuniform List<scalar> 
43900
(
0.000984929
0.000989638
0.000990239
0.00099019
0.000990125
0.000990121
0.00099012
0.000990133
0.000990127
0.000990135
0.000990135
0.000990135
0.000990136
0.000990136
0.000990137
0.000990137
0.000990138
0.000990138
0.000990139
0.000990139
0.000990139
0.00099014
0.00099014
0.00099014
0.00099014
0.000990141
0.000990141
0.000990141
0.000990141
0.00133269
5.14804e-005
3.88614e-005
3.81022e-005
4.08941e-005
4.09767e-005
4.09638e-005
4.09714e-005
4.09642e-005
4.09772e-005
4.09778e-005
4.09792e-005
4.09803e-005
4.09814e-005
4.09824e-005
4.09834e-005
4.09844e-005
4.09853e-005
4.09864e-005
4.09873e-005
4.09881e-005
4.09886e-005
4.0989e-005
4.09895e-005
4.09898e-005
4.09902e-005
4.09905e-005
4.09907e-005
4.09907e-005
0.279919
0.0480541
0.00308985
7.66265e-005
4.03306e-006
3.06494e-006
3.25069e-006
3.37534e-006
3.38063e-006
3.37272e-006
3.37262e-006
3.37373e-006
3.37462e-006
3.37541e-006
3.37612e-006
3.37674e-006
3.37729e-006
3.37777e-006
3.37819e-006
3.37854e-006
3.37883e-006
3.37907e-006
3.37928e-006
3.37947e-006
3.37965e-006
3.37981e-006
3.37996e-006
3.38009e-006
3.38017e-006
0.85337
0.354533
0.105989
0.0178818
0.00110603
3.01743e-005
1.36464e-006
4.81271e-007
4.57547e-007
5.29684e-007
5.36462e-007
5.34455e-007
5.34277e-007
5.3445e-007
5.34633e-007
5.34793e-007
5.34936e-007
5.35064e-007
5.35177e-007
5.35276e-007
5.35369e-007
5.3545e-007
5.35523e-007
5.3559e-007
5.35654e-007
5.35715e-007
5.35767e-007
5.35819e-007
5.35867e-007
1.24913
0.700735
0.360642
0.148559
0.040495
0.00524949
0.000249599
7.82611e-006
4.82986e-007
1.36463e-007
1.23389e-007
1.37472e-007
1.39509e-007
1.39632e-007
1.39683e-007
1.39728e-007
1.39768e-007
1.39801e-007
1.39834e-007
1.39864e-007
1.39883e-007
1.3991e-007
1.39938e-007
1.39965e-007
1.39988e-007
1.4e-007
1.40035e-007
1.40061e-007
1.40085e-007
1.50959
0.94615
0.581248
0.337747
0.169521
0.0594906
0.0118456
0.000920607
3.49432e-005
1.22539e-006
1.17643e-007
5.76737e-008
5.41191e-008
5.43084e-008
5.43237e-008
5.43302e-008
5.43392e-008
5.43525e-008
5.43646e-008
5.43774e-008
5.43932e-008
5.44032e-008
5.44122e-008
5.44214e-008
5.44318e-008
5.4453e-008
5.44572e-008
5.44595e-008
5.44641e-008
1.66255
1.1006
0.726588
0.470934
0.29148
0.163264
0.0700673
0.0180175
0.00194943
8.36262e-005
2.77641e-006
1.32013e-007
5.18703e-008
4.87605e-008
4.86748e-008
4.86749e-008
4.86753e-008
4.86778e-008
4.8685e-008
4.86985e-008
4.87246e-008
4.87345e-008
4.8749e-008
4.87548e-008
4.87665e-008
4.88008e-008
4.87802e-008
4.87801e-008
4.87811e-008
1.76968
1.21323
0.835474
0.572802
0.38564
0.249181
0.147591
0.0709518
0.0201074
0.00235922
9.78812e-005
2.93038e-006
1.40552e-007
6.43249e-008
6.23679e-008
6.23397e-008
6.23397e-008
6.23408e-008
6.23447e-008
6.23568e-008
6.2388e-008
6.24217e-008
6.2514e-008
6.25082e-008
6.25112e-008
6.25506e-008
6.24517e-008
6.24515e-008
6.24519e-008
1.82346
1.27634
0.900243
0.635933
0.445965
0.306395
0.201684
0.121761
0.0606502
0.0163944
0.00160879
5.44541e-005
1.54756e-006
1.9341e-007
1.60531e-007
1.59889e-007
1.5989e-007
1.5989e-007
1.59893e-007
1.59909e-007
1.59964e-007
1.60113e-007
1.60625e-007
1.60427e-007
1.60427e-007
1.60522e-007
1.59901e-007
1.59899e-007
1.59902e-007
1.82231
1.28959
0.921737
0.6621
0.474713
0.336523
0.232472
0.152641
0.0906112
0.042809
0.00913712
0.000571026
1.53772e-005
9.32082e-007
6.0138e-007
5.94746e-007
5.94736e-007
5.94736e-007
5.94755e-007
5.94824e-007
5.95017e-007
5.9551e-007
5.97442e-007
5.95703e-007
5.95699e-007
5.95881e-007
5.93507e-007
5.93502e-007
5.93549e-007
1.81131
1.29051
0.929215
0.67346
0.488471
0.351823
0.248824
0.169714
0.10802
0.0596734
0.0224258
0.00279739
9.50322e-005
4.19221e-006
2.20839e-006
2.16886e-006
2.16882e-006
2.16906e-006
2.17204e-006
2.17187e-006
2.17187e-006
2.17209e-006
2.17638e-006
2.16708e-006
2.16294e-006
2.16142e-006
2.15879e-006
2.15879e-006
2.15911e-006
1.78846
1.28121
0.926987
0.674972
0.492427
0.3576
0.255936
0.177812
0.116807
0.0687082
0.0309379
0.00628283
0.000322464
1.43544e-005
7.47575e-006
7.33667e-006
7.33646e-006
7.33857e-006
7.34591e-006
7.34486e-006
7.34486e-006
7.34081e-006
7.35134e-006
7.31617e-006
7.28281e-006
7.28062e-006
7.28065e-006
7.27668e-006
7.27668e-006
1.75612
1.262
0.916975
0.670732
0.491256
0.358141
0.257823
0.180821
0.120628
0.0730225
0.0354297
0.00875737
0.000607615
3.83267e-005
2.31584e-005
2.28177e-005
2.28172e-005
2.28087e-005
2.28091e-005
2.28094e-005
2.2811e-005
2.28064e-005
2.2817e-005
2.27168e-005
2.26212e-005
2.26204e-005
2.26206e-005
2.26203e-005
2.26212e-005
1.71738
1.2366
0.900407
0.660654
0.486031
0.356022
0.257325
0.181273
0.1219
0.0749055
0.0376853
0.0103122
0.000849893
6.61602e-005
4.28971e-005
4.23333e-005
4.23296e-005
4.22876e-005
4.22442e-005
4.22441e-005
4.22304e-005
4.22338e-005
4.22207e-005
4.20751e-005
4.20065e-005
4.19983e-005
4.19984e-005
4.19497e-005
4.19372e-005
1.67436
1.20753
0.880685
0.647278
0.477183
0.350771
0.254836
0.180462
0.121917
0.0755887
0.0388068
0.0112695
0.00104557
8.94386e-005
5.74959e-005
5.65925e-005
5.65699e-005
5.65244e-005
5.65092e-005
5.65129e-005
5.64861e-005
5.64906e-005
5.64194e-005
5.63388e-005
5.62888e-005
5.62686e-005
5.62709e-005
5.62012e-005
5.61365e-005
1.62835
1.17606
0.859049
0.632418
0.467053
0.34396
0.250517
0.178247
0.121243
0.0756055
0.0393406
0.0118947
0.00120637
0.000108926
6.75763e-005
6.62648e-005
6.62548e-005
6.61755e-005
6.61557e-005
6.6127e-005
6.61245e-005
6.61035e-005
6.60248e-005
6.60014e-005
6.59403e-005
6.59382e-005
6.59303e-005
6.58508e-005
6.58475e-005
1.57988
1.14277
0.836071
0.616569
0.456196
0.336638
0.245729
0.17528
0.119735
0.0752997
0.0396797
0.012435
0.00137345
0.000127672
7.43017e-005
7.24262e-005
7.23064e-005
7.22813e-005
7.22467e-005
7.22467e-005
7.22633e-005
7.21947e-005
7.21944e-005
7.21228e-005
7.21027e-005
7.21118e-005
7.20551e-005
7.20261e-005
7.20039e-005
1.52906
1.10786
0.811967
0.599948
0.444822
0.328981
0.240728
0.17219
0.118025
0.0746315
0.0397498
0.0128773
0.00154591
0.000147145
7.89119e-005
7.60935e-005
7.60611e-005
7.59958e-005
7.60075e-005
7.59841e-005
7.59425e-005
7.59626e-005
7.5911e-005
7.58775e-005
7.58846e-005
7.58297e-005
7.58282e-005
7.58004e-005
7.57535e-005
1.47591
1.07138
0.786815
0.582644
0.433023
0.32108
0.23561
0.169068
0.116334
0.0739615
0.039812
0.0133008
0.00172452
0.000169097
8.23983e-005
7.8492e-005
7.82032e-005
7.8184e-005
7.81882e-005
7.81635e-005
7.82282e-005
7.81789e-005
7.8105e-005
7.81185e-005
7.80762e-005
7.80645e-005
7.81008e-005
7.80389e-005
7.79874e-005
1.42037
1.03329
0.760594
0.564643
0.420786
0.312928
0.230375
0.165929
0.114702
0.0734029
0.0399665
0.0137997
0.00195197
0.00019804
8.57841e-005
7.97866e-005
7.94996e-005
7.95388e-005
7.94986e-005
7.94838e-005
7.94772e-005
7.9393e-005
7.9456e-005
7.94721e-005
7.93805e-005
7.94031e-005
7.93555e-005
7.93054e-005
7.93928e-005
1.36257
0.993677
0.73334
0.54596
0.40812
0.304529
0.225027
0.162767
0.113104
0.0729036
0.0402066
0.0144136
0.00222407
0.000234163
8.94307e-005
8.0775e-005
8.04113e-005
8.02803e-005
8.02356e-005
8.0325e-005
8.02161e-005
8.02644e-005
8.02973e-005
8.01182e-005
8.0201e-005
8.0216e-005
8.01391e-005
8.02113e-005
8.01055e-005
1.30258
0.952574
0.705082
0.526612
0.395031
0.295882
0.219558
0.159584
0.111561
0.072525
0.0406089
0.0151239
0.00254095
0.00028308
9.44482e-005
8.18199e-005
8.07932e-005
8.07113e-005
8.08831e-005
8.07264e-005
8.07706e-005
8.0804e-005
8.06084e-005
8.07563e-005
8.07653e-005
8.06105e-005
8.06935e-005
8.06523e-005
8.06796e-005
1.24056
0.91006
0.675845
0.506592
0.381494
0.286955
0.213935
0.156341
0.110031
0.072205
0.0410799
0.0159734
0.00297131
0.000353516
0.000102214
8.26646e-005
8.12858e-005
8.13195e-005
8.1142e-005
8.11636e-005
8.11828e-005
8.10696e-005
8.11764e-005
8.10933e-005
8.10213e-005
8.11156e-005
8.10671e-005
8.10084e-005
8.0955e-005
1.17683
0.86632
0.645736
0.485963
0.367546
0.277769
0.208174
0.153054
0.108525
0.0719573
0.0417029
0.0170504
0.00350349
0.000447984
0.000113247
8.42344e-005
8.18209e-005
8.15174e-005
8.15559e-005
8.15089e-005
8.14827e-005
8.14946e-005
8.14165e-005
8.14901e-005
8.14328e-005
8.13461e-005
8.13739e-005
8.13726e-005
8.14156e-005
1.1116
0.821489
0.614834
0.464761
0.353193
0.268308
0.202239
0.149676
0.107003
0.0717728
0.0424351
0.0181676
0.00410532
0.000573389
0.000130338
8.63211e-005
8.2255e-005
8.19972e-005
8.18131e-005
8.18748e-005
8.18287e-005
8.1791e-005
8.18667e-005
8.1727e-005
8.17547e-005
8.17972e-005
8.1653e-005
8.16861e-005
8.16216e-005
1.04527
0.775785
0.583248
0.443029
0.338439
0.258558
0.196114
0.146195
0.105455
0.0716147
0.0432161
0.0194746
0.00490839
0.000759895
0.000157248
9.01254e-005
8.3144e-005
8.22964e-005
8.23687e-005
8.22201e-005
8.21445e-005
8.22223e-005
8.21233e-005
8.22004e-005
8.2119e-005
8.20165e-005
8.20813e-005
8.19356e-005
8.19684e-005
0.978261
0.729479
0.551147
0.420872
0.323346
0.248549
0.189802
0.142594
0.103844
0.071463
0.0441091
0.0209432
0.00583804
0.000999154
0.000197335
9.60928e-005
8.41217e-005
8.3005e-005
8.26727e-005
8.27041e-005
8.273e-005
8.2635e-005
8.26184e-005
8.24871e-005
8.25214e-005
8.24872e-005
8.23831e-005
8.25096e-005
8.2344e-005
0.910975
0.682808
0.518665
0.398352
0.307929
0.238268
0.18328
0.138845
0.102146
0.0712584
0.0449414
0.0223764
0.00686883
0.0013057
0.000253804
0.000105186
8.60312e-005
8.35208e-005
8.34184e-005
8.31618e-005
8.30627e-005
8.30746e-005
8.31676e-005
8.32357e-005
8.29515e-005
8.29401e-005
8.29248e-005
8.27994e-005
8.29435e-005
0.843903
0.636073
0.485979
0.375562
0.292226
0.227715
0.176516
0.134894
0.100294
0.0709685
0.0457838
0.0239565
0.00810343
0.00172635
0.0003429
0.000121168
8.88938e-005
8.4513e-005
8.38307e-005
8.3977e-005
8.38543e-005
8.37252e-005
8.35859e-005
8.35479e-005
8.37851e-005
8.3596e-005
8.33472e-005
8.34248e-005
8.33156e-005
0.777537
0.589584
0.453277
0.352611
0.276294
0.216912
0.169515
0.130742
0.0982875
0.0705729
0.0465614
0.0254778
0.00946169
0.00225815
0.000466795
0.0001452
9.35773e-005
8.62008e-005
8.48194e-005
8.44384e-005
8.45203e-005
8.44661e-005
8.44938e-005
8.44348e-005
8.4221e-005
8.43025e-005
8.42595e-005
8.40176e-005
8.40147e-005
0.712355
0.54365
0.420753
0.329616
0.260193
0.205886
0.162278
0.126368
0.0960943
0.0700391
0.0472696
0.0271222
0.0110353
0.00295404
0.000654056
0.000186829
0.000102858
8.80865e-005
8.57622e-005
8.56619e-005
8.5366e-005
8.51961e-005
8.50429e-005
8.51056e-005
8.53517e-005
8.49912e-005
8.49466e-005
8.48153e-005
8.46872e-005
0.648812
0.498567
0.388593
0.306681
0.243972
0.194638
0.154773
0.121718
0.0936415
0.0692776
0.0477775
0.0284789
0.0125275
0.00370844
0.000875777
0.000237855
0.00011415
9.19083e-005
8.71881e-005
8.63249e-005
8.65636e-005
8.63695e-005
8.62998e-005
8.5955e-005
8.58746e-005
8.62973e-005
8.59924e-005
8.57438e-005
8.545e-005
0.587358
0.454635
0.356993
0.28393
0.227701
0.183203
0.147009
0.116781
0.0909044
0.0682609
0.0481062
0.0298931
0.014222
0.00471609
0.00123144
0.00033408
0.000137215
9.68675e-005
9.00114e-005
8.81105e-005
8.73703e-005
8.74804e-005
8.73993e-005
8.76224e-005
8.70705e-005
8.68722e-005
8.73221e-005
8.70957e-005
8.66904e-005
0.528391
0.412132
0.326143
0.26149
0.211461
0.171627
0.139007
0.111562
0.0878798
0.06697
0.0480907
0.0309315
0.0157852
0.00575018
0.0016248
0.000451865
0.000169178
0.000106304
9.24661e-005
9.0299e-005
8.94734e-005
8.85482e-005
8.8531e-005
8.86068e-005
8.92171e-005
8.85889e-005
8.80417e-005
8.8594e-005
8.83915e-005
0.472254
0.371307
0.29622
0.239479
0.195324
0.159945
0.13077
0.106037
0.0845159
0.0653437
0.0478904
0.0318542
0.0173034
0.00698558
0.00218838
0.000633732
0.000221279
0.000119792
9.76991e-005
9.21112e-005
9.12309e-005
9.09888e-005
9.0357e-005
9.00541e-005
9.00795e-005
9.06145e-005
9.0039e-005
8.94502e-005
9.00261e-005
0.419234
0.332378
0.267386
0.218018
0.179375
0.148211
0.122329
0.100215
0.0808121
0.0633737
0.0473715
0.0324052
0.0186145
0.00810912
0.0027595
0.000851345
0.000291606
0.000143537
0.000104343
9.6169e-005
9.32321e-005
9.25285e-005
9.24615e-005
9.20695e-005
9.20841e-005
9.18418e-005
9.23347e-005
9.17782e-005
9.11084e-005
0.369554
0.29553
0.239789
0.197217
0.163694
0.136479
0.11371
0.0940992
0.0767418
0.060997
0.0464178
0.032552
0.0196369
0.00933991
0.00349117
0.00115404
0.000398953
0.000176534
0.000116047
9.97709e-005
9.7081e-005
9.56445e-005
9.46362e-005
9.45211e-005
9.40804e-005
9.43044e-005
9.38864e-005
9.42309e-005
9.36794e-005
0.323375
0.260909
0.213554
0.177185
0.14837
0.124817
0.104964
0.0877231
0.072329
0.0582348
0.0450383
0.0323658
0.0203913
0.0102952
0.00417886
0.00148163
0.000527209
0.000226032
0.000134129
0.000107922
9.97988e-005
9.92023e-005
9.84118e-005
9.73712e-005
9.69174e-005
9.65039e-005
9.69868e-005
9.64806e-005
9.66181e-005
0.280791
0.228621
0.188788
0.158019
0.133486
0.113294
0.0961438
0.0811249
0.0675917
0.0550795
0.0432642
0.031822
0.0206993
0.0112089
0.00489588
0.00188474
0.000702332
0.000292309
0.000160686
0.00011778
0.000106079
0.000101808
0.000102134
0.000101575
0.000100334
9.96701e-005
9.91705e-005
9.96381e-005
9.9064e-005
0.241832
0.198734
0.165572
0.139803
0.119124
0.101984
0.087312
0.0743527
0.062566
0.051562
0.0410519
0.0308123
0.020591
0.0117166
0.0055313
0.00225786
0.000899338
0.000379278
0.000195524
0.000134553
0.000114015
0.000108087
0.00010504
0.000105852
0.000105173
0.000104144
0.00010372
0.000102778
0.000103307
0.206474
0.171275
0.143963
0.122608
0.105359
0.0909604
0.0785356
0.0674637
0.0572957
0.0477013
0.0384478
0.0293266
0.0201954
0.0118795
0.00597074
0.00265236
0.00110349
0.000490418
0.000246689
0.000156455
0.000125478
0.000114435
0.000111476
0.000109251
0.000110227
0.000109098
0.000108149
0.00010705
0.000106161
0.174636
0.146235
0.123993
0.106492
0.092263
0.0802978
0.0698879
0.0605255
0.0518401
0.043559
0.0354684
0.0274221
0.0193966
0.0117813
0.00623621
0.00295481
0.00133288
0.000595949
0.000308083
0.000186451
0.000139879
0.000123926
0.000117678
0.000116223
0.000114741
0.000115952
0.000114822
0.000114159
0.000112057
0.146194
0.123571
0.105672
0.0914978
0.0798971
0.0700696
0.0614461
0.0536142
0.0462704
0.0391815
0.0321873
0.0251414
0.0180764
0.0114478
0.00624973
0.00313655
0.00150549
0.000735055
0.000370771
0.000229938
0.000161454
0.000135216
0.000127607
0.000122869
0.000122272
0.000121132
0.00012199
0.000121162
0.000120254
0.120986
0.103213
0.0889891
0.0776537
0.0683163
0.0603464
0.0532898
0.0468131
0.0406674
0.0346708
0.0286626
0.0225786
0.0164477
0.0107535
0.00615163
0.00322635
0.00163524
0.000838593
0.000458528
0.000267989
0.000198087
0.000153405
0.000138669
0.000133626
0.000129841
0.000129681
0.000128387
0.000129222
0.000128265
0.0988208
0.0850668
0.0739157
0.0649766
0.0575672
0.0511948
0.0454987
0.0402101
0.0351293
0.0300999
0.0250147
0.0197889
0.0145375
0.00971341
0.00585405
0.00319988
0.00172179
0.000923126
0.00052324
0.000323342
0.000219418
0.000185882
0.000154536
0.000148086
0.000141852
0.000139167
0.000138706
0.000136615
0.00013801
0.0794909
0.0690233
0.0604101
0.0534712
0.0476873
0.0426746
0.0381477
0.033891
0.0297381
0.0255771
0.0212962
0.0168773
0.0124494
0.00840876
0.00527855
0.00307786
0.00171934
0.000985531
0.000578001
0.00037179
0.00025877
0.000201729
0.000182328
0.000162811
0.000159623
0.000153326
0.000151824
0.000150444
0.000146903
0.0627802
0.0549633
0.0484201
0.0431329
0.0387052
0.0348382
0.0313059
0.0279322
0.0245897
0.0211612
0.0176412
0.0139277
0.0102697
0.0070508
0.00451983
0.00281521
0.00167147
0.00099779
0.000620893
0.000410917
0.000295717
0.000231143
0.000196277
0.000185481
0.0001725
0.00017039
0.00016637
0.000165824
0.000164233
0.0484739
0.042764
0.0378869
0.0339495
0.0306422
0.0277302
0.0250323
0.0224119
0.0197457
0.0169937
0.014069
0.0110755
0.00814664
0.00564172
0.00373867
0.0023998
0.00154288
0.000972555
0.000633905
0.000439292
0.000325835
0.000262148
0.000225093
0.00020097
0.000196875
0.000188237
0.00018734
0.000184255
0.000182613
0.036368
0.0323039
0.0287487
0.0259039
0.023513
0.0213867
0.0193824
0.0173801
0.0153037
0.0131027
0.010759
0.00835882
0.00617834
0.0042986
0.00291281
0.00195401
0.00130519
0.000892995
0.000619094
0.000446195
0.000349644
0.000285141
0.00025236
0.000229432
0.000215192
0.000215127
0.000210786
0.000210896
0.000208117
0.0262753
0.0234665
0.0209458
0.0189791
0.0173285
0.0158381
0.0143931
0.0129004
0.0113028
0.00959013
0.00774516
0.00595275
0.00438246
0.00310086
0.00215423
0.0014922
0.00106283
0.000760135
0.000575822
0.00043844
0.000355756
0.000306779
0.000271757
0.000255994
0.000243753
0.000239551
0.000243297
0.000239718
0.000241761
0.0180298
0.0161458
0.0144287
0.013164
0.0120998
0.0111112
0.0101008
0.0090126
0.00782963
0.00649882
0.00518392
0.00393405
0.00289571
0.00209172
0.00151709
0.00109547
0.000823631
0.000629186
0.00050198
0.000417329
0.000351075
0.000314148
0.000287028
0.000274955
0.00027313
0.000272827
0.000273479
0.000280441
0.000274753
0.0114859
0.010256
0.00917144
0.00846349
0.00784675
0.00723184
0.00655042
0.00578875
0.00492932
0.00403216
0.00315004
0.00243211
0.0017955
0.00135769
0.00102642
0.000793883
0.00062882
0.000512285
0.000433878
0.000379602
0.000339319
0.0003106
0.000295658
0.000292228
0.000293908
0.000300417
0.000313374
0.000322233
0.000343465
0.00652968
0.00576078
0.00519133
0.0049067
0.00459928
0.00424506
0.0038252
0.00333723
0.0027948
0.00227196
0.00179113
0.00140609
0.00109105
0.000855624
0.000693195
0.000564988
0.000489986
0.000416205
0.00037673
0.000340924
0.000319685
0.00030646
0.000303379
0.000304371
0.000310167
0.000319143
0.000344065
0.000356986
0.000380508
0.00311878
0.00270858
0.00253712
0.00251062
0.00238918
0.00223
0.00199741
0.00173278
0.00147196
0.00120726
0.00100021
0.000819796
0.000674022
0.000579353
0.000495187
0.000435325
0.000388571
0.000349681
0.0003298
0.000314753
0.00031216
0.000312126
0.000319283
0.000329992
0.000354777
0.000371585
0.000412184
0.000436004
0.00045871
0.00122143
0.0010849
0.00110954
0.00117399
0.00114111
0.00108928
0.000988119
0.000885209
0.000789602
0.000670784
0.000605694
0.000511716
0.000441904
0.000406799
0.000373005
0.000364213
0.000378029
0.000396353
0.000468437
0.000589288
0.00088134
0.00126756
0.00190615
0.00272924
0.00361765
0.00467207
0.005456
0.00550159
0.00491046
0.000461432
0.000449032
0.000501866
0.000564977
0.000561236
0.000557214
0.000517989
0.000481724
0.000439967
0.000402319
0.000397971
0.000404965
0.000454742
0.000557152
0.000882006
0.00142731
0.00275643
0.00423287
0.00746689
0.010783
0.0165208
0.0227069
0.0306658
0.0405186
0.0493951
0.0634156
0.0702001
0.0846287
0.0795782
0.000222851
0.000233731
0.000267974
0.000305167
0.000311036
0.000331064
0.000355172
0.000389068
0.000459669
0.000598156
0.000976907
0.00179926
0.00367666
0.00602907
0.011122
0.0168151
0.0261367
0.0360101
0.0505544
0.066393
0.0870855
0.11056
0.13835
0.172988
0.207456
0.260668
0.298559
0.387822
0.396805
0.000145074
0.000155391
0.000181902
0.00022823
0.000384762
0.000515428
0.00100716
0.0014509
0.00263415
0.00466694
0.00859897
0.0143675
0.0228403
0.0331943
0.0482592
0.0653058
0.0874697
0.11279
0.144535
0.181133
0.225365
0.27727
0.338752
0.414063
0.499616
0.617847
0.734928
0.958702
1.0687
0.000125822
0.000156811
0.00023366
0.000433151
0.00132939
0.00219563
0.00467232
0.00705234
0.0122352
0.0195985
0.0303261
0.0445934
0.0629739
0.0857233
0.114867
0.148286
0.18936
0.23713
0.295035
0.362096
0.442655
0.536779
0.650995
0.787463
0.955817
1.16977
1.43633
1.81722
2.14864
0.000990141
0.000990141
0.000990141
0.000990141
0.000990141
0.000990141
0.000990141
0.000990141
0.000990141
0.00099014
0.00099014
0.00099014
0.00099014
0.00099014
0.00099014
0.00099014
0.00099014
0.00099014
0.000990141
0.000990141
0.000990141
0.000990141
0.000990141
0.000990141
0.000990141
0.000990142
0.000990142
0.000990142
0.000990142
0.000990143
0.000990143
0.000990143
0.000990144
0.000990144
0.000990144
0.000990145
0.000990145
0.000990145
0.000990146
0.000990146
0.000990146
0.000990147
0.000990147
0.000990147
0.000990148
0.000990148
0.000990148
0.000990148
0.000990149
0.000990149
0.000990149
0.000990149
0.00099015
0.00099015
0.00099015
0.00099015
0.000990151
0.000990151
0.000990151
0.000990152
0.000990152
0.000990152
0.000990152
0.000990153
0.000990153
0.000990153
0.000990153
0.000990154
0.000990154
0.000990154
0.000990154
0.000990155
0.000990155
0.000990155
0.000990155
0.000990155
0.000990155
0.000990156
0.000990156
0.000990156
0.000990156
0.000990156
0.000990156
0.000990156
0.000990157
0.000990157
0.000990157
0.000990157
0.000990157
0.000990157
0.000990157
0.000990157
0.000990157
0.000990157
0.000990157
0.000990157
0.000990157
0.000990157
0.000990157
0.000990157
0.000990157
0.000990157
0.000990157
0.000990157
0.000990157
0.000990157
0.000990157
0.000990157
0.000990157
0.000990157
0.000990157
0.000990157
0.000990157
0.000990156
0.000990156
0.000990155
0.000990155
0.000990154
0.000990154
0.000990154
0.000990154
0.000990155
0.000990155
0.000990155
0.000990155
0.000990155
0.000990155
0.000990155
0.000990156
0.000990155
0.000990157
0.000990156
0.000990159
0.000990161
0.00099016
0.000990164
0.000990162
0.000990183
0.00100822
4.09909e-005
4.09911e-005
4.09912e-005
4.09912e-005
4.09912e-005
4.09911e-005
4.09911e-005
4.0991e-005
4.09909e-005
4.09909e-005
4.09909e-005
4.09908e-005
4.09909e-005
4.09909e-005
4.0991e-005
4.09911e-005
4.09912e-005
4.09913e-005
4.09915e-005
4.09917e-005
4.09919e-005
4.09922e-005
4.09925e-005
4.09928e-005
4.09931e-005
4.09935e-005
4.09939e-005
4.09943e-005
4.09947e-005
4.09951e-005
4.09956e-005
4.09961e-005
4.09966e-005
4.09971e-005
4.09976e-005
4.09982e-005
4.09988e-005
4.09994e-005
4.1e-005
4.10005e-005
4.1001e-005
4.10016e-005
4.10021e-005
4.10026e-005
4.10031e-005
4.10035e-005
4.1004e-005
4.10045e-005
4.10049e-005
4.10054e-005
4.10058e-005
4.10063e-005
4.10067e-005
4.10072e-005
4.10077e-005
4.10081e-005
4.10086e-005
4.10091e-005
4.10096e-005
4.10101e-005
4.10106e-005
4.10111e-005
4.10116e-005
4.1012e-005
4.10124e-005
4.10128e-005
4.10132e-005
4.10136e-005
4.1014e-005
4.10143e-005
4.10147e-005
4.1015e-005
4.10154e-005
4.10157e-005
4.1016e-005
4.10163e-005
4.10166e-005
4.10169e-005
4.10171e-005
4.10174e-005
4.10177e-005
4.10179e-005
4.10181e-005
4.10184e-005
4.10186e-005
4.10188e-005
4.1019e-005
4.10192e-005
4.10192e-005
4.10192e-005
4.10191e-005
4.1019e-005
4.1019e-005
4.10189e-005
4.10189e-005
4.10189e-005
4.10188e-005
4.10188e-005
4.10188e-005
4.10187e-005
4.10187e-005
4.10186e-005
4.10185e-005
4.10185e-005
4.10185e-005
4.10185e-005
4.10185e-005
4.10185e-005
4.10184e-005
4.10184e-005
4.10184e-005
4.10182e-005
4.10178e-005
4.10171e-005
4.10165e-005
4.10157e-005
4.1015e-005
4.10143e-005
4.10142e-005
4.10143e-005
4.10145e-005
4.10147e-005
4.10148e-005
4.1015e-005
4.10149e-005
4.10152e-005
4.10151e-005
4.10151e-005
4.10162e-005
4.10152e-005
4.1018e-005
4.10169e-005
4.10194e-005
4.10239e-005
4.10205e-005
4.10277e-005
4.10552e-005
4.07285e-005
4.20948e-005
3.38032e-006
3.38051e-006
3.38064e-006
3.38077e-006
3.38089e-006
3.38101e-006
3.38112e-006
3.38123e-006
3.38134e-006
3.38144e-006
3.38154e-006
3.38164e-006
3.38174e-006
3.38184e-006
3.38194e-006
3.38204e-006
3.38214e-006
3.38225e-006
3.38235e-006
3.38246e-006
3.38257e-006
3.38268e-006
3.38279e-006
3.3829e-006
3.38302e-006
3.38314e-006
3.38325e-006
3.38338e-006
3.3835e-006
3.38362e-006
3.38374e-006
3.38387e-006
3.38399e-006
3.38412e-006
3.38425e-006
3.38439e-006
3.38453e-006
3.38468e-006
3.38482e-006
3.38497e-006
3.38512e-006
3.38527e-006
3.38541e-006
3.38556e-006
3.38571e-006
3.38587e-006
3.38602e-006
3.38617e-006
3.38632e-006
3.38647e-006
3.38663e-006
3.38678e-006
3.38693e-006
3.38709e-006
3.38724e-006
3.38739e-006
3.38754e-006
3.38769e-006
3.38784e-006
3.38798e-006
3.38812e-006
3.38824e-006
3.38837e-006
3.3885e-006
3.38862e-006
3.38874e-006
3.38886e-006
3.38898e-006
3.38909e-006
3.3892e-006
3.38931e-006
3.38942e-006
3.38952e-006
3.38962e-006
3.38972e-006
3.38982e-006
3.38991e-006
3.39e-006
3.39008e-006
3.39017e-006
3.39025e-006
3.39033e-006
3.39041e-006
3.39049e-006
3.39056e-006
3.39063e-006
3.3907e-006
3.39077e-006
3.39083e-006
3.39087e-006
3.39089e-006
3.39091e-006
3.39092e-006
3.39091e-006
3.39091e-006
3.39089e-006
3.39087e-006
3.39084e-006
3.3908e-006
3.39076e-006
3.39071e-006
3.39065e-006
3.39058e-006
3.39052e-006
3.39044e-006
3.39037e-006
3.39028e-006
3.3902e-006
3.3901e-006
3.39001e-006
3.38992e-006
3.38984e-006
3.38974e-006
3.38963e-006
3.38952e-006
3.38941e-006
3.3893e-006
3.38919e-006
3.38911e-006
3.38905e-006
3.38899e-006
3.38893e-006
3.38886e-006
3.38877e-006
3.38868e-006
3.38851e-006
3.38849e-006
3.38825e-006
3.38824e-006
3.38827e-006
3.38803e-006
3.38825e-006
3.3875e-006
3.38899e-006
3.3971e-006
3.39402e-006
3.029e-006
6.68108e-006
0.00102891
5.35922e-007
5.35976e-007
5.3603e-007
5.36082e-007
5.36131e-007
5.3618e-007
5.36227e-007
5.36273e-007
5.36318e-007
5.36364e-007
5.36408e-007
5.36454e-007
5.36499e-007
5.36544e-007
5.3659e-007
5.36636e-007
5.36682e-007
5.36729e-007
5.36775e-007
5.36823e-007
5.3687e-007
5.36918e-007
5.36966e-007
5.37015e-007
5.37064e-007
5.37114e-007
5.37164e-007
5.37214e-007
5.37265e-007
5.37316e-007
5.37367e-007
5.37418e-007
5.3747e-007
5.37522e-007
5.37575e-007
5.37627e-007
5.37679e-007
5.37731e-007
5.37783e-007
5.37835e-007
5.37887e-007
5.37939e-007
5.37991e-007
5.38043e-007
5.38094e-007
5.38146e-007
5.38197e-007
5.38248e-007
5.38299e-007
5.38349e-007
5.384e-007
5.38449e-007
5.38499e-007
5.38548e-007
5.38596e-007
5.38644e-007
5.38691e-007
5.38738e-007
5.38784e-007
5.38829e-007
5.38873e-007
5.38916e-007
5.38958e-007
5.38999e-007
5.3904e-007
5.3908e-007
5.39119e-007
5.39158e-007
5.39196e-007
5.39233e-007
5.39269e-007
5.39304e-007
5.39339e-007
5.39372e-007
5.39405e-007
5.39437e-007
5.39467e-007
5.39497e-007
5.39525e-007
5.39553e-007
5.3958e-007
5.39605e-007
5.39629e-007
5.39652e-007
5.39674e-007
5.39694e-007
5.39712e-007
5.39729e-007
5.39747e-007
5.39765e-007
5.39781e-007
5.39795e-007
5.39807e-007
5.39817e-007
5.39825e-007
5.3983e-007
5.39833e-007
5.39834e-007
5.39832e-007
5.39828e-007
5.3982e-007
5.39811e-007
5.398e-007
5.39787e-007
5.39772e-007
5.39755e-007
5.39737e-007
5.39717e-007
5.39694e-007
5.39669e-007
5.39643e-007
5.39619e-007
5.39599e-007
5.39579e-007
5.39556e-007
5.3953e-007
5.39502e-007
5.39471e-007
5.39436e-007
5.39399e-007
5.3936e-007
5.39315e-007
5.39269e-007
5.39207e-007
5.39143e-007
5.39075e-007
5.38965e-007
5.38937e-007
5.38779e-007
5.3881e-007
5.38721e-007
5.38595e-007
5.39799e-007
5.39986e-007
4.8402e-007
4.9678e-007
7.3487e-006
0.00114046
0.0432074
1.40103e-007
1.40143e-007
1.40174e-007
1.40202e-007
1.40229e-007
1.40256e-007
1.40283e-007
1.40309e-007
1.40337e-007
1.40364e-007
1.40391e-007
1.40419e-007
1.40447e-007
1.40475e-007
1.40504e-007
1.40534e-007
1.40564e-007
1.40595e-007
1.40626e-007
1.40658e-007
1.4069e-007
1.40722e-007
1.40756e-007
1.40789e-007
1.40823e-007
1.40857e-007
1.40892e-007
1.40927e-007
1.40962e-007
1.40998e-007
1.41034e-007
1.4107e-007
1.41106e-007
1.41142e-007
1.41179e-007
1.41216e-007
1.41253e-007
1.4129e-007
1.41327e-007
1.41364e-007
1.414e-007
1.41437e-007
1.41474e-007
1.4151e-007
1.41546e-007
1.41582e-007
1.41618e-007
1.41654e-007
1.41689e-007
1.41725e-007
1.41759e-007
1.41794e-007
1.41828e-007
1.41862e-007
1.41896e-007
1.41929e-007
1.41962e-007
1.41994e-007
1.42026e-007
1.42058e-007
1.42089e-007
1.4212e-007
1.4215e-007
1.4218e-007
1.4221e-007
1.42239e-007
1.42267e-007
1.42295e-007
1.42323e-007
1.4235e-007
1.42376e-007
1.42402e-007
1.42428e-007
1.42452e-007
1.42476e-007
1.425e-007
1.42523e-007
1.42546e-007
1.42567e-007
1.42588e-007
1.42609e-007
1.42629e-007
1.42648e-007
1.42667e-007
1.42684e-007
1.42702e-007
1.42718e-007
1.42733e-007
1.42749e-007
1.42764e-007
1.42779e-007
1.42793e-007
1.42806e-007
1.42819e-007
1.42831e-007
1.42842e-007
1.42852e-007
1.42861e-007
1.42869e-007
1.42876e-007
1.42882e-007
1.42886e-007
1.4289e-007
1.42893e-007
1.42895e-007
1.42895e-007
1.42894e-007
1.42893e-007
1.4289e-007
1.42886e-007
1.4288e-007
1.42872e-007
1.42866e-007
1.42859e-007
1.4285e-007
1.42841e-007
1.42829e-007
1.42816e-007
1.42801e-007
1.42784e-007
1.42764e-007
1.42741e-007
1.42715e-007
1.42683e-007
1.42645e-007
1.42609e-007
1.42549e-007
1.42516e-007
1.42468e-007
1.42385e-007
1.42461e-007
1.41997e-007
1.37791e-007
1.27151e-007
3.09272e-007
1.06224e-005
0.00090639
0.028487
0.235413
5.44771e-008
5.4471e-008
5.44744e-008
5.44791e-008
5.44881e-008
5.44894e-008
5.44921e-008
5.44972e-008
5.45006e-008
5.45045e-008
5.45082e-008
5.45125e-008
5.4516e-008
5.45198e-008
5.45241e-008
5.45275e-008
5.45311e-008
5.45352e-008
5.45398e-008
5.45433e-008
5.45471e-008
5.4551e-008
5.45551e-008
5.45594e-008
5.45638e-008
5.45683e-008
5.45731e-008
5.45773e-008
5.45819e-008
5.45866e-008
5.45915e-008
5.45965e-008
5.46016e-008
5.46063e-008
5.46112e-008
5.46166e-008
5.46218e-008
5.46272e-008
5.46324e-008
5.46377e-008
5.46433e-008
5.46489e-008
5.46544e-008
5.46603e-008
5.46654e-008
5.46707e-008
5.46763e-008
5.46821e-008
5.46876e-008
5.46928e-008
5.46983e-008
5.47039e-008
5.47098e-008
5.47151e-008
5.47206e-008
5.47258e-008
5.47311e-008
5.47367e-008
5.47422e-008
5.47477e-008
5.47533e-008
5.47591e-008
5.4764e-008
5.47692e-008
5.47743e-008
5.47795e-008
5.47846e-008
5.47896e-008
5.47948e-008
5.47993e-008
5.48038e-008
5.48088e-008
5.48131e-008
5.48174e-008
5.48218e-008
5.48261e-008
5.48306e-008