/*--------------------------------*- C++ -*----------------------------------*\
| =========                 |                                                 |
| \\      /  F ield         | OpenFOAM: The Open Source CFD Toolbox           |
|  \\    /   O peration     | Version:  5.x                                   |
|   \\  /    A nd           | Web:      www.OpenFOAM.org                      |
|    \\/     M anipulation  |                                                 |
\*---------------------------------------------------------------------------*/
/*   Windows 32 and 64 bit porting by blueCAPE: http://www.bluecape.com.pt   *\
|  Based on Windows porting (2.0.x v4) by Symscape: http://www.symscape.com   |
\*---------------------------------------------------------------------------*/
FoamFile
{
    version     2.0;
    format      ascii;
    class       volScalarField;
    location    "130";
    object      nut;
}
// * * * * * * * * * * * * * * * * * * * * * * * * * * * * * * * * * * * * * //

dimensions      [0 2 -1 0 0 0 0];

internalField   nonuniform List<scalar> 
43900
(
5.70941e-005
5.8018e-005
5.80687e-005
5.80653e-005
5.80593e-005
5.8059e-005
5.80589e-005
5.80599e-005
5.80594e-005
5.80601e-005
5.80601e-005
5.80601e-005
5.80601e-005
5.80602e-005
5.80602e-005
5.80602e-005
5.80603e-005
5.80603e-005
5.80603e-005
5.80604e-005
5.80604e-005
5.80604e-005
5.80605e-005
5.80605e-005
5.80605e-005
5.80605e-005
5.80605e-005
5.80605e-005
5.80605e-005
0.00046986
6.52988e-006
4.29719e-006
4.14388e-006
4.59349e-006
4.60719e-006
4.60512e-006
4.60544e-006
4.60473e-006
4.60621e-006
4.6063e-006
4.60647e-006
4.60662e-006
4.60675e-006
4.60688e-006
4.60701e-006
4.60713e-006
4.60724e-006
4.60736e-006
4.60747e-006
4.60756e-006
4.60762e-006
4.60767e-006
4.60772e-006
4.60777e-006
4.60781e-006
4.60784e-006
4.60787e-006
4.60787e-006
0.145604
0.0405919
0.00384867
6.41697e-005
9.58204e-007
6.38889e-007
6.84303e-007
7.235e-007
7.2497e-007
7.22314e-007
7.22198e-007
7.22459e-007
7.22658e-007
7.22828e-007
7.2298e-007
7.23114e-007
7.23232e-007
7.23335e-007
7.23424e-007
7.23498e-007
7.23559e-007
7.2361e-007
7.23656e-007
7.23697e-007
7.23735e-007
7.2377e-007
7.23801e-007
7.23831e-007
7.23848e-007
0.458862
0.274673
0.119101
0.029269
0.00241097
4.89442e-005
8.9204e-007
1.89346e-007
1.69886e-007
2.11442e-007
2.15456e-007
2.14205e-007
2.14053e-007
2.14113e-007
2.14184e-007
2.14245e-007
2.14299e-007
2.14348e-007
2.14392e-007
2.1443e-007
2.14467e-007
2.14499e-007
2.14528e-007
2.14554e-007
2.14579e-007
2.14604e-007
2.14624e-007
2.14644e-007
2.14664e-007
0.72528
0.548745
0.379362
0.213299
0.0794631
0.013958
0.000794561
2.11006e-005
6.54264e-007
9.89272e-008
8.06805e-008
9.50924e-008
9.72861e-008
9.73982e-008
9.74361e-008
9.74683e-008
9.74959e-008
9.75185e-008
9.75407e-008
9.75606e-008
9.75698e-008
9.75887e-008
9.76075e-008
9.76267e-008
9.76424e-008
9.76472e-008
9.7675e-008
9.76938e-008
9.77108e-008
0.931423
0.76197
0.603833
0.449299
0.292124
0.134395
0.0355904
0.00345901
0.000142733
3.90641e-006
2.0539e-007
6.9947e-008
6.01489e-008
6.03646e-008
6.038e-008
6.03822e-008
6.03892e-008
6.04039e-008
6.0417e-008
6.04316e-008
6.04519e-008
6.04625e-008
6.04727e-008
6.04819e-008
6.04934e-008
6.05231e-008
6.05235e-008
6.05217e-008
6.0524e-008
1.0768
0.912881
0.762525
0.619246
0.478143
0.337404
0.188514
0.0627943
0.00857204
0.000408105
1.347e-005
3.62818e-007
1.134e-007
1.0441e-007
1.0409e-007
1.04089e-007
1.04087e-007
1.04087e-007
1.04097e-007
1.04127e-007
1.04191e-007
1.04212e-007
1.0424e-007
1.0425e-007
1.04276e-007
1.0436e-007
1.04297e-007
1.04297e-007
1.04297e-007
1.19357
1.03384
0.888944
0.753065
0.621421
0.490149
0.355724
0.216639
0.0787273
0.0116277
0.000535411
1.62516e-005
5.48343e-007
1.85419e-007
1.77534e-007
1.77409e-007
1.77408e-007
1.77413e-007
1.77425e-007
1.77457e-007
1.77547e-007
1.77661e-007
1.77999e-007
1.77955e-007
1.77947e-007
1.78077e-007
1.77692e-007
1.7769e-007
1.77688e-007
1.27027
1.11385
0.972724
0.842003
0.717226
0.594638
0.471147
0.34459
0.214675
0.0743378
0.00905352
0.000331814
9.41001e-006
9.89248e-007
7.89149e-007
7.85274e-007
7.85282e-007
7.85281e-007
7.85294e-007
7.8536e-007
7.85627e-007
7.86479e-007
7.89856e-007
7.88121e-007
7.88112e-007
7.89586e-007
7.84377e-007
7.84353e-007
7.84798e-007
1.29607
1.14505
1.01035
0.88603
0.768326
0.653748
0.539391
0.42299
0.303094
0.179969
0.0495768
0.00367694
0.000103246
6.69779e-006
4.4706e-006
4.42755e-006
4.4275e-006
4.4275e-006
4.42772e-006
4.42834e-006
4.42938e-006
4.43036e-006
4.45523e-006
4.43048e-006
4.43587e-006
4.44429e-006
4.41039e-006
4.41573e-006
4.42069e-006
1.31734
1.16664
1.03321
0.912178
0.798048
0.68776
0.578647
0.468455
0.35552
0.2388
0.114878
0.0181002
0.000677253
3.35698e-005
1.98152e-005
1.95641e-005
1.95667e-005
1.95707e-005
1.96239e-005
1.96187e-005
1.96102e-005
1.95747e-005
1.96819e-005
1.95143e-005
1.94947e-005
1.94765e-005
1.94289e-005
1.94795e-005
1.95092e-005
1.32496
1.17759
1.04478
0.923645
0.811799
0.7046
0.59867
0.492206
0.38349
0.271133
0.15317
0.0400481
0.00237879
0.00012164
7.27193e-005
7.18331e-005
7.18377e-005
7.18792e-005
7.20201e-005
7.1967e-005
7.20154e-005
7.19261e-005
7.21798e-005
7.14913e-005
7.11143e-005
7.10725e-005
7.11812e-005
7.1325e-005
7.13253e-005
1.32167
1.17688
1.04793
0.929185
0.817086
0.710397
0.606941
0.503158
0.396962
0.287329
0.173024
0.0552483
0.00460419
0.00034637
0.000236458
0.000234136
0.0002343
0.000234124
0.00023416
0.000234149
0.000234351
0.000234255
0.00023484
0.000233119
0.000231637
0.000231851
0.000232218
0.000232581
0.000232598
1.31178
1.16921
1.0423
0.926758
0.818403
0.713306
0.609645
0.506739
0.402658
0.294915
0.182945
0.0645477
0.00647585
0.000622123
0.000453985
0.000450518
0.000450598
0.000449666
0.000449197
0.000449195
0.000449502
0.000449699
0.000450183
0.000447531
0.000446072
0.000446229
0.000447274
0.000446241
0.000445976
1.29817
1.15796
1.03307
0.919203
0.81278
0.710828
0.610094
0.50804
0.404268
0.298501
0.188078
0.070182
0.00795268
0.000844842
0.000614799
0.000608806
0.00060878
0.000607932
0.000608076
0.000608154
0.000608252
0.000608584
0.0006075
0.000605855
0.00060529
0.000605917
0.000606002
0.000604984
0.000603631
1.28234
1.14463
1.0219
0.909931
0.805185
0.704695
0.605927
0.506891
0.40505
0.299443
0.190535
0.0737012
0.00911689
0.00102106
0.000725472
0.000716835
0.000716887
0.000715903
0.000715476
0.000715007
0.000715688
0.000715666
0.000714216
0.000713558
0.000713119
0.000713395
0.000713687
0.000712424
0.000712178
1.26499
1.12994
1.00953
0.899587
0.796641
0.697775
0.600542
0.502925
0.403298
0.299992
0.192734
0.0768135
0.0103025
0.00117772
0.000797382
0.000785226
0.000784096
0.000783466
0.000783279
0.000783061
0.000783927
0.00078335
0.000783001
0.000782207
0.000781977
0.00078206
0.00078158
0.000780949
0.000780927
1.24641
1.11421
0.996276
0.88851
0.787496
0.690373
0.594751
0.498665
0.400533
0.299112
0.193583
0.0793059
0.0114923
0.00132948
0.000844391
0.000825644
0.00082549
0.000824925
0.00082505
0.000825
0.00082515
0.000824922
0.000824394
0.0008239
0.000823956
0.000823597
0.000823546
0.000823184
0.000822719
1.22669
1.09754
0.98227
0.876847
0.777916
0.682672
0.588782
0.494333
0.397801
0.297971
0.194083
0.0815355
0.0126881
0.00149114
0.0008767
0.000851585
0.000849558
0.000849241
0.000849393
0.000849327
0.000849946
0.000849446
0.000848699
0.000848702
0.000848401
0.000848251
0.000848577
0.000848119
0.000847553
1.20579
1.07992
0.967512
0.864607
0.767917
0.674703
0.582691
0.490034
0.395259
0.297178
0.194958
0.0841464
0.0141896
0.00169776
0.00090365
0.000865662
0.000863642
0.000863937
0.000863669
0.000863498
0.000863605
0.000862887
0.000863201
0.000863463
0.000862722
0.000862707
0.000862457
0.00086207
0.000862669
1.1837
1.06133
0.951978
0.851773
0.757493
0.666464
0.576476
0.485733
0.392811
0.296563
0.196139
0.0872497
0.0159497
0.00195017
0.000928726
0.000874978
0.00087312
0.000872181
0.000871744
0.00087229
0.000871546
0.000871761
0.000872119
0.000870861
0.000871352
0.000871473
0.00087088
0.000871277
0.000870674
1.16034
1.04171
0.935632
0.838314
0.746616
0.657935
0.570131
0.481474
0.390595
0.296387
0.197956
0.0908469
0.0179917
0.00229051
0.00096081
0.000883466
0.000876959
0.000876515
0.000877861
0.000876769
0.000876991
0.000877068
0.000875413
0.000876676
0.000876934
0.000875899
0.000876293
0.000876095
0.000876392
1.13567
1.02102
0.918419
0.824174
0.735226
0.649053
0.563588
0.477164
0.388463
0.296403
0.200093
0.0951805
0.0207465
0.00277876
0.00100957
0.000888967
0.000881197
0.00088158
0.000880299
0.000880455
0.000880724
0.000879864
0.000880708
0.000879977
0.000879477
0.000880196
0.000879976
0.000879595
0.00087907
1.10967
0.999231
0.900311
0.809325
0.723303
0.639807
0.556847
0.472823
0.386457
0.296717
0.202853
0.100599
0.0241255
0.0034323
0.00107868
0.000898927
0.000885249
0.000883244
0.000883665
0.00088342
0.000883161
0.000883273
0.000882619
0.000883145
0.000882959
0.000882125
0.000882465
0.000882426
0.000882752
1.0823
0.976301
0.881266
0.793719
0.710787
0.630122
0.549822
0.468363
0.384538
0.297364
0.206052
0.10622
0.0279225
0.00429753
0.00118928
0.000910991
0.000888228
0.000886933
0.000885584
0.000886035
0.000885844
0.000885469
0.000885984
0.000884967
0.000885218
0.000885648
0.000884668
0.000884921
0.000884465
1.05356
0.952202
0.861238
0.777299
0.697617
0.619943
0.542463
0.463735
0.382614
0.298163
0.209603
0.112818
0.0329335
0.00557564
0.00136631
0.000932989
0.000893959
0.00088896
0.000889482
0.000888558
0.000887931
0.00088851
0.00088785
0.000888392
0.000887947
0.000887216
0.000887683
0.000886753
0.000887084
1.02344
0.926931
0.840212
0.760042
0.683761
0.609223
0.534708
0.458856
0.380599
0.299063
0.213497
0.119965
0.0386152
0.00719847
0.00163457
0.000967051
0.000899463
0.000893769
0.000891594
0.000891812
0.000892074
0.000891497
0.000891313
0.000890372
0.000890629
0.000890484
0.000889867
0.000890748
0.000889838
0.991954
0.90046
0.818143
0.741884
0.669143
0.597882
0.526475
0.453642
0.378365
0.299798
0.217239
0.127018
0.044868
0.00926289
0.00201778
0.00102083
0.000910535
0.000897057
0.000896586
0.000895027
0.000894358
0.000894435
0.000895128
0.000895412
0.000893553
0.000893432
0.000893544
0.000892771
0.000893661
0.959116
0.872783
0.794998
0.72277
0.653686
0.585817
0.517637
0.447949
0.375803
0.30041
0.221083
0.134563
0.0522007
0.0120694
0.00262417
0.00111854
0.000926386
0.000903303
0.000899386
0.000900447
0.000899743
0.000898981
0.000897986
0.000897573
0.000899074
0.000898029
0.000896424
0.00089689
0.000896189
0.924961
0.843901
0.770751
0.702655
0.63733
0.572963
0.508129
0.44171
0.372822
0.300723
0.224743
0.141931
0.0601872
0.0155836
0.00347137
0.00127202
0.00095195
0.00091318
0.000905989
0.00090352
0.00090402
0.000903739
0.000903938
0.000903518
0.000902037
0.000902589
0.000902445
0.000900944
0.000900892
0.889526
0.813818
0.745377
0.681489
0.620005
0.559233
0.497849
0.434817
0.369318
0.30067
0.228238
0.149609
0.0692248
0.0201274
0.00474061
0.00154365
0.00100505
0.000923431
0.000911784
0.000911332
0.000909701
0.000908698
0.000907524
0.000907956
0.000909483
0.000907192
0.000906828
0.000906144
0.000905321
0.852852
0.782537
0.718844
0.659206
0.601615
0.5445
0.486636
0.427071
0.365043
0.299901
0.230981
0.15615
0.0776994
0.024989
0.00624913
0.00188684
0.00107187
0.000945127
0.000920195
0.000915539
0.000917128
0.000916176
0.000915647
0.000913513
0.00091296
0.000915578
0.000913834
0.000912331
0.000910608
0.814997
0.750075
0.691134
0.63576
0.582088
0.52867
0.474383
0.41835
0.359874
0.298368
0.233491
0.162749
0.0871316
0.0314055
0.00862917
0.00253357
0.00121455
0.000971947
0.000936911
0.000927073
0.000922414
0.00092318
0.000922738
0.000924197
0.000921046
0.000919428
0.000922164
0.000921027
0.000918784
0.776029
0.716457
0.662236
0.611109
0.561358
0.51166
0.460989
0.408547
0.353688
0.29582
0.234058
0.167868
0.0957263
0.0379326
0.0112844
0.00333572
0.00141937
0.00102487
0.000950081
0.000940248
0.000936094
0.000930091
0.000929931
0.000930424
0.000934174
0.000930697
0.000926962
0.000930307
0.000929254
0.736021
0.681717
0.632147
0.585216
0.539356
0.493365
0.446317
0.397482
0.346264
0.292104
0.23421
0.172165
0.103941
0.0455042
0.0149827
0.00456556
0.0017658
0.00110742
0.000980565
0.000950865
0.000946922
0.000945538
0.000942124
0.000940198
0.000940049
0.000943086
0.000940024
0.000935942
0.000939365
0.695062
0.645903
0.600878
0.558059
0.51603
0.473711
0.430267
0.385041
0.337485
0.287074
0.233299
0.174988
0.110865
0.0524663
0.0187666
0.00602715
0.00223002
0.00124955
0.00101558
0.000974356
0.000958858
0.000955097
0.000954415
0.000952032
0.000952312
0.000950811
0.000953756
0.00095082
0.000946332
0.653255
0.609078
0.568458
0.529635
0.491347
0.45263
0.41274
0.371083
0.327159
0.280504
0.230613
0.176203
0.11647
0.0597739
0.0235132
0.00806802
0.0029552
0.00146372
0.00108484
0.000994045
0.000981814
0.000974492
0.00096933
0.000968307
0.000965254
0.000966689
0.000963707
0.000965722
0.000962709
0.610724
0.571329
0.534939
0.499968
0.465304
0.430098
0.393688
0.355543
0.315208
0.27224
0.226158
0.175646
0.120359
0.0656078
0.0279422
0.0102471
0.00381612
0.00178272
0.00119152
0.00103953
0.000997053
0.000994906
0.000991316
0.000986216
0.000983212
0.000979396
0.000982475
0.000979735
0.000980558
0.567611
0.532767
0.500402
0.469112
0.437931
0.406118
0.373091
0.338372
0.301545
0.262218
0.219918
0.173664
0.122078
0.0708325
0.0325597
0.0129045
0.00498472
0.00222245
0.00135531
0.00109676
0.00103425
0.00101043
0.00101275
0.00101001
0.00100406
0.000999842
0.000995862
0.000998087
0.000994853
0.524085
0.493529
0.464961
0.437157
0.409293
0.380734
0.350967
0.319565
0.28615
0.250345
0.211735
0.169549
0.121631
0.0738493
0.0364999
0.0154025
0.00629053
0.00279251
0.00157387
0.00119061
0.00107532
0.00104706
0.00102992
0.00103483
0.00103147
0.00102739
0.00102462
0.0010177
0.00102039
0.48034
0.453784
0.428762
0.40423
0.379503
0.354037
0.327386
0.299166
0.269025
0.236626
0.201569
0.163167
0.119761
0.0747814
0.0392178
0.0178898
0.0076556
0.00351862
0.0019002
0.00132307
0.00113934
0.00108075
0.00106652
0.00105439
0.00105998
0.00105514
0.00105016
0.00104602
0.0010379
0.436596
0.413733
0.39199
0.370505
0.348718
0.32617
0.302473
0.277281
0.250272
0.221109
0.189432
0.154626
0.115809
0.0742284
0.0408715
0.0198316
0.00911567
0.0042243
0.00228959
0.00150673
0.00122378
0.00113316
0.00110147
0.0010945
0.00108578
0.00109177
0.00108612
0.00108291
0.00107219
0.393099
0.373608
0.354869
0.336198
0.317147
0.297332
0.276415
0.254082
0.230022
0.20394
0.175472
0.144023
0.109057
0.0722966
0.0408358
0.0209733
0.0102141
0.00507797
0.00268756
0.00175925
0.00134476
0.00119688
0.00115713
0.00113258
0.00112911
0.00112294
0.00112722
0.00112344
0.00111866
0.350117
0.333673
0.31766
0.301568
0.285048
0.26778
0.249463
0.229807
0.208534
0.185339
0.159874
0.131627
0.100311
0.0682592
0.0401694
0.0213842
0.0110092
0.00573628
0.00322134
0.00199518
0.0015434
0.00129327
0.00121506
0.00119351
0.00117385
0.00117125
0.00116254
0.00116652
0.00116227
0.307941
0.294218
0.280658
0.266915
0.252724
0.237816
0.221919
0.204765
0.186079
0.165587
0.142944
0.11765
0.089807
0.0619308
0.0382006
0.0211501
0.0114648
0.00625568
0.00361951
0.00232736
0.00167172
0.00145674
0.00129536
0.00126348
0.00123539
0.00122389
0.00121996
0.00120664
0.00121321
0.266879
0.255559
0.244185
0.232571
0.220515
0.207785
0.19413
0.179287
0.163004
0.144995
0.124933
0.102439
0.0779712
0.0540016
0.0343775
0.0202469
0.0113225
0.00656036
0.00393334
0.00259364
0.0018984
0.00154764
0.0014276
0.00133435
0.00131937
0.0012921
0.00128868
0.00128209
0.00126089
0.227251
0.21803
0.208587
0.198892
0.188788
0.178062
0.166467
0.153756
0.139653
0.1239
0.106235
0.0863541
0.0652247
0.0454238
0.0293983
0.0183436
0.0109573
0.00654216
0.00413824
0.00280618
0.00208218
0.00170919
0.00150408
0.00143852
0.00137965
0.00137177
0.00135868
0.00135733
0.00135187
0.189391
0.181976
0.17422
0.166255
0.157932
0.149038
0.13933
0.12854
0.116414
0.102716
0.087134
0.0699691
0.052314
0.0364809
0.0241798
0.0155254
0.01003
0.00635498
0.00415595
0.00293702
0.00223993
0.00185369
0.00165214
0.00152374
0.00150179
0.00145816
0.00145195
0.00143742
0.00142644
0.153641
0.147749
0.141453
0.13505
0.128352
0.121124
0.113108
0.104038
0.0936761
0.0817854
0.068312
0.0537964
0.0398897
0.0278644
0.0188323
0.0125695
0.00839397
0.00578289
0.00404058
0.00293816
0.00234445
0.00196644
0.00176655
0.00165232
0.00158489
0.00158409
0.00157139
0.00157336
0.00157026
0.120355
0.115704
0.110667
0.105693
0.100472
0.0947402
0.0882108
0.0806464
0.0718365
0.0616646
0.050338
0.0388522
0.0284889
0.020108
0.0139234
0.0096133
0.00680072
0.00488397
0.00372076
0.00287066
0.00233914
0.00204267
0.00184934
0.00175176
0.00170814
0.00168263
0.00168942
0.00167636
0.00169544
0.0899096
0.0862177
0.0822898
0.0786508
0.0747653
0.0703398
0.065084
0.0588317
0.0514965
0.0430372
0.0342936
0.0259853
0.0189561
0.0136343
0.00979564
0.00706861
0.00528016
0.00404082
0.00322079
0.00269934
0.00229568
0.00205633
0.00191143
0.00184589
0.00182483
0.00183255
0.00183915
0.00186235
0.00182152
0.0627354
0.0597482
0.0568653
0.0545121
0.0517936
0.0484848
0.0443389
0.0393371
0.0335198
0.0272732
0.0212248
0.0161255
0.0118427
0.00886898
0.00664823
0.00511458
0.00404753
0.00329829
0.00278663
0.00242926
0.00219474
0.00202573
0.00192654
0.0018967
0.00189863
0.00189766
0.00197011
0.00201008
0.00210711
0.0394078
0.0369902
0.0352226
0.0341237
0.0323673
0.0300648
0.0270087
0.0234476
0.0194841
0.0155974
0.0122068
0.009422
0.00723517
0.00567569
0.00452735
0.00368294
0.00315499
0.00270283
0.00242977
0.00221356
0.00207094
0.00199017
0.00196147
0.00195821
0.00196948
0.00198736
0.00206328
0.00212014
0.00216132
0.0209777
0.0193015
0.0187799
0.0186758
0.0177719
0.0164574
0.0145192
0.0124989
0.0103929
0.00842186
0.00684479
0.00553461
0.00452252
0.00383549
0.00329349
0.00293828
0.00258167
0.00232207
0.00216996
0.00203224
0.00198187
0.001945
0.00190221
0.00185005
0.00179916
0.00174265
0.00172736
0.00178026
0.00189632
0.00914716
0.00849681
0.008772
0.00918368
0.00879821
0.00827951
0.00729346
0.0064968
0.00561698
0.00477315
0.00425427
0.00366079
0.00307654
0.00280884
0.00243314
0.00225744
0.00213261
0.00189388
0.00164467
0.00160631
0.0018618
0.00224514
0.00298795
0.00367909
0.00459674
0.00512069
0.00574625
0.0049191
0.00424423
0.00381282
0.00378341
0.00417284
0.00457729
0.00446549
0.0043414
0.00394826
0.00369641
0.00326006
0.00285661
0.00270049
0.00246323
0.00224922
0.00208358
0.00234819
0.00300406
0.00489223
0.00657672
0.0103036
0.0136569
0.0186404
0.0235795
0.0289016
0.034908
0.0391924
0.0453608
0.0465706
0.0489231
0.0428585
0.00200703
0.00209561
0.00233537
0.00260827
0.00258119
0.00261994
0.00253164
0.00246699
0.00241487
0.00235744
0.00277464
0.00399232
0.00695293
0.00964382
0.015578
0.0212227
0.029139
0.0365253
0.0460005
0.0554121
0.0657311
0.0770391
0.0873951
0.101211
0.109973
0.127225
0.132597
0.154849
0.138849
0.00139818
0.00147248
0.00165278
0.00186146
0.002623
0.00269416
0.0039007
0.00430875
0.00619429
0.00893614
0.0138893
0.0197779
0.0272143
0.0349287
0.0447131
0.054742
0.0659221
0.0775428
0.0900784
0.103817
0.117611
0.133879
0.148639
0.168731
0.183441
0.210851
0.222493
0.267375
0.257579
0.00123051
0.00139347
0.00170249
0.00228043
0.0053522
0.00646951
0.0108933
0.0128262
0.0180268
0.0246713
0.0317169
0.0405818
0.0504109
0.0612027
0.0730771
0.0858155
0.099329
0.11398
0.129352
0.14654
0.163821
0.18425
0.203474
0.22899
0.249833
0.285136
0.306409
0.361505
0.36172
5.80605e-005
5.80605e-005
5.80605e-005
5.80605e-005
5.80605e-005
5.80605e-005
5.80605e-005
5.80605e-005
5.80605e-005
5.80605e-005
5.80605e-005
5.80605e-005
5.80605e-005
5.80605e-005
5.80605e-005
5.80605e-005
5.80605e-005
5.80605e-005
5.80605e-005
5.80605e-005
5.80605e-005
5.80605e-005
5.80605e-005
5.80605e-005
5.80606e-005
5.80606e-005
5.80606e-005
5.80606e-005
5.80606e-005
5.80607e-005
5.80607e-005
5.80607e-005
5.80607e-005
5.80607e-005
5.80608e-005
5.80608e-005
5.80608e-005
5.80609e-005
5.80609e-005
5.80609e-005
5.80609e-005
5.8061e-005
5.8061e-005
5.8061e-005
5.8061e-005
5.80611e-005
5.80611e-005
5.80611e-005
5.80611e-005
5.80611e-005
5.80612e-005
5.80612e-005
5.80612e-005
5.80612e-005
5.80612e-005
5.80613e-005
5.80613e-005
5.80613e-005
5.80613e-005
5.80613e-005
5.80614e-005
5.80614e-005
5.80614e-005
5.80614e-005
5.80615e-005
5.80615e-005
5.80615e-005
5.80615e-005
5.80615e-005
5.80615e-005
5.80616e-005
5.80616e-005
5.80616e-005
5.80616e-005
5.80616e-005
5.80616e-005
5.80616e-005
5.80617e-005
5.80617e-005
5.80617e-005
5.80617e-005
5.80617e-005
5.80617e-005
5.80617e-005
5.80617e-005
5.80617e-005
5.80617e-005
5.80618e-005
5.80618e-005
5.80617e-005
5.80617e-005
5.80617e-005
5.80617e-005
5.80617e-005
5.80617e-005
5.80617e-005
5.80617e-005
5.80617e-005
5.80617e-005
5.80617e-005
5.80617e-005
5.80617e-005
5.80617e-005
5.80617e-005
5.80617e-005
5.80617e-005
5.80617e-005
5.80617e-005
5.80617e-005
5.80618e-005
5.80618e-005
5.80617e-005
5.80617e-005
5.80617e-005
5.80617e-005
5.80616e-005
5.80616e-005
5.80616e-005
5.80615e-005
5.80616e-005
5.80616e-005
5.80616e-005
5.80616e-005
5.80616e-005
5.80616e-005
5.80616e-005
5.80616e-005
5.80616e-005
5.80617e-005
5.80616e-005
5.80618e-005
5.80617e-005
5.80619e-005
5.80621e-005
5.8062e-005
5.80623e-005
5.80622e-005
5.80639e-005
5.93281e-005
4.60789e-006
4.60792e-006
4.60793e-006
4.60794e-006
4.60794e-006
4.60793e-006
4.60793e-006
4.60792e-006
4.60792e-006
4.60792e-006
4.60791e-006
4.60792e-006
4.60792e-006
4.60793e-006
4.60794e-006
4.60795e-006
4.60796e-006
4.60798e-006
4.608e-006
4.60802e-006
4.60805e-006
4.60808e-006
4.60812e-006
4.60815e-006
4.60819e-006
4.60823e-006
4.60828e-006
4.60832e-006
4.60837e-006
4.60842e-006
4.60848e-006
4.60853e-006
4.60859e-006
4.60864e-006
4.60871e-006
4.60877e-006
4.60884e-006
4.60891e-006
4.60897e-006
4.60904e-006
4.6091e-006
4.60916e-006
4.60922e-006
4.60927e-006
4.60933e-006
4.60939e-006
4.60944e-006
4.6095e-006
4.60955e-006
4.6096e-006
4.60966e-006
4.60971e-006
4.60977e-006
4.60982e-006
4.60987e-006
4.60993e-006
4.60999e-006
4.61004e-006
4.6101e-006
4.61016e-006
4.61022e-006
4.61027e-006
4.61033e-006
4.61038e-006
4.61043e-006
4.61048e-006
4.61052e-006
4.61057e-006
4.61061e-006
4.61065e-006
4.61069e-006
4.61073e-006
4.61077e-006
4.61081e-006
4.61084e-006
4.61088e-006
4.61091e-006
4.61094e-006
4.61098e-006
4.61101e-006
4.61104e-006
4.61107e-006
4.61109e-006
4.61112e-006
4.61114e-006
4.61117e-006
4.61119e-006
4.61122e-006
4.61122e-006
4.61122e-006
4.61121e-006
4.6112e-006
4.6112e-006
4.61119e-006
4.61119e-006
4.61118e-006
4.61118e-006
4.61117e-006
4.61116e-006
4.61116e-006
4.61115e-006
4.61114e-006
4.61113e-006
4.61112e-006
4.61111e-006
4.61111e-006
4.61111e-006
4.6111e-006
4.61109e-006
4.61109e-006
4.61108e-006
4.61106e-006
4.61101e-006
4.61094e-006
4.61086e-006
4.61078e-006
4.6107e-006
4.61063e-006
4.61061e-006
4.61062e-006
4.61064e-006
4.61066e-006
4.61068e-006
4.6107e-006
4.61069e-006
4.61071e-006
4.61071e-006
4.6107e-006
4.61082e-006
4.61071e-006
4.61101e-006
4.6109e-006
4.61115e-006
4.61169e-006
4.61123e-006
4.61208e-006
4.61664e-006
4.56295e-006
4.72666e-006
7.23881e-007
7.23921e-007
7.23951e-007
7.23979e-007
7.24007e-007
7.24033e-007
7.24058e-007
7.24082e-007
7.24106e-007
7.24129e-007
7.24151e-007
7.24174e-007
7.24196e-007
7.24219e-007
7.24241e-007
7.24264e-007
7.24286e-007
7.2431e-007
7.24333e-007
7.24357e-007
7.24381e-007
7.24406e-007
7.2443e-007
7.24455e-007
7.24481e-007
7.24507e-007
7.24533e-007
7.24559e-007
7.24586e-007
7.24612e-007
7.2464e-007
7.24667e-007
7.24694e-007
7.24721e-007
7.2475e-007
7.2478e-007
7.24811e-007
7.24843e-007
7.24874e-007
7.24905e-007
7.24937e-007
7.24969e-007
7.25001e-007
7.25033e-007
7.25066e-007
7.25099e-007
7.25131e-007
7.25164e-007
7.25197e-007
7.2523e-007
7.25263e-007
7.25296e-007
7.25329e-007
7.25362e-007
7.25395e-007
7.25428e-007
7.2546e-007
7.25492e-007
7.25523e-007
7.25554e-007
7.25582e-007
7.2561e-007
7.25637e-007
7.25664e-007
7.2569e-007
7.25716e-007
7.25742e-007
7.25767e-007
7.25791e-007
7.25815e-007
7.25838e-007
7.25861e-007
7.25883e-007
7.25905e-007
7.25926e-007
7.25946e-007
7.25965e-007
7.25984e-007
7.26003e-007
7.2602e-007
7.26038e-007
7.26055e-007
7.26072e-007
7.26088e-007
7.26103e-007
7.26119e-007
7.26133e-007
7.26148e-007
7.2616e-007
7.26168e-007
7.26174e-007
7.26178e-007
7.26179e-007
7.26179e-007
7.26177e-007
7.26174e-007
7.26169e-007
7.26163e-007
7.26155e-007
7.26145e-007
7.26133e-007
7.2612e-007
7.26105e-007
7.2609e-007
7.26074e-007
7.26057e-007
7.26039e-007
7.2602e-007
7.25999e-007
7.25978e-007
7.25958e-007
7.25941e-007
7.25922e-007
7.259e-007
7.25877e-007
7.25855e-007
7.25832e-007
7.2581e-007
7.25792e-007
7.25779e-007
7.25766e-007
7.25753e-007
7.25738e-007
7.25718e-007
7.257e-007
7.25664e-007
7.25655e-007
7.25609e-007
7.25597e-007
7.2561e-007
7.25551e-007
7.25599e-007
7.25429e-007
7.25736e-007
7.28404e-007
7.27305e-007
6.18959e-007
1.96997e-006
0.000649552
2.14686e-007
2.14706e-007
2.14728e-007
2.14748e-007
2.14768e-007
2.14787e-007
2.14806e-007
2.14824e-007
2.14842e-007
2.1486e-007
2.14878e-007
2.14895e-007
2.14913e-007
2.14931e-007
2.14949e-007
2.14967e-007
2.14985e-007
2.15003e-007
2.15021e-007
2.1504e-007
2.15058e-007
2.15077e-007
2.15096e-007
2.15115e-007
2.15134e-007
2.15153e-007
2.15173e-007
2.15192e-007
2.15212e-007
2.15232e-007
2.15252e-007
2.15272e-007
2.15292e-007
2.15312e-007
2.15332e-007
2.15352e-007
2.15373e-007
2.15393e-007
2.15413e-007
2.15433e-007
2.15453e-007
2.15473e-007
2.15493e-007
2.15513e-007
2.15533e-007
2.15553e-007
2.15573e-007
2.15592e-007
2.15612e-007
2.15631e-007
2.1565e-007
2.1567e-007
2.15688e-007
2.15707e-007
2.15726e-007
2.15744e-007
2.15762e-007
2.1578e-007
2.15798e-007
2.15815e-007
2.15832e-007
2.15848e-007
2.15864e-007
2.1588e-007
2.15895e-007
2.15911e-007
2.15926e-007
2.15941e-007
2.15955e-007
2.15969e-007
2.15983e-007
2.15996e-007
2.1601e-007
2.16022e-007
2.16035e-007
2.16047e-007
2.16059e-007
2.1607e-007
2.16081e-007
2.16091e-007
2.16101e-007
2.16111e-007
2.1612e-007
2.16128e-007
2.16136e-007
2.16144e-007
2.16151e-007
2.16157e-007
2.16164e-007
2.16171e-007
2.16177e-007
2.16182e-007
2.16187e-007
2.16191e-007
2.16194e-007
2.16196e-007
2.16197e-007
2.16198e-007
2.16197e-007
2.16195e-007
2.16193e-007
2.16189e-007
2.16185e-007
2.1618e-007
2.16174e-007
2.16167e-007
2.1616e-007
2.16152e-007
2.16144e-007
2.16134e-007
2.16124e-007
2.16114e-007
2.16107e-007
2.161e-007
2.16091e-007
2.16082e-007
2.16072e-007
2.16061e-007
2.16048e-007
2.16033e-007
2.16018e-007
2.16001e-007
2.15983e-007
2.15959e-007
2.15935e-007
2.15909e-007
2.15864e-007
2.15855e-007
2.15793e-007
2.15801e-007
2.15769e-007
2.15722e-007
2.16402e-007
2.16519e-007
1.8425e-007
1.97306e-007
6.92204e-006
0.00127027
0.0301901
9.77218e-008
9.77552e-008
9.77791e-008
9.77996e-008
9.78192e-008
9.78398e-008
9.78597e-008
9.78796e-008
9.79e-008
9.79203e-008
9.79409e-008
9.79619e-008
9.79832e-008
9.80048e-008
9.80267e-008
9.80493e-008
9.80722e-008
9.80953e-008
9.8119e-008
9.81432e-008
9.81679e-008
9.81927e-008
9.82179e-008
9.82435e-008
9.82694e-008
9.82954e-008
9.83217e-008
9.83484e-008
9.83753e-008
9.84023e-008
9.84297e-008
9.8457e-008
9.84845e-008
9.85122e-008
9.85401e-008
9.85682e-008
9.85963e-008
9.86244e-008
9.86525e-008
9.86804e-008
9.87084e-008
9.87362e-008
9.87639e-008
9.87915e-008
9.88193e-008
9.88466e-008
9.88738e-008
9.89009e-008
9.8928e-008
9.89548e-008
9.89812e-008
9.90075e-008
9.90334e-008
9.90593e-008
9.90849e-008
9.91101e-008
9.91349e-008
9.91595e-008
9.91837e-008
9.92076e-008
9.92313e-008
9.92548e-008
9.9278e-008
9.93008e-008
9.93235e-008
9.93456e-008
9.93673e-008
9.93886e-008
9.94095e-008
9.94301e-008
9.94501e-008
9.94699e-008
9.94894e-008
9.95083e-008
9.95267e-008
9.95448e-008
9.95623e-008
9.95796e-008
9.95962e-008
9.96124e-008
9.96282e-008
9.96434e-008
9.96583e-008
9.96727e-008
9.96865e-008
9.96998e-008
9.97125e-008
9.97245e-008
9.97364e-008
9.97483e-008
9.97598e-008
9.9771e-008
9.97816e-008
9.97917e-008
9.98012e-008
9.98101e-008
9.98183e-008
9.98259e-008
9.98328e-008
9.9839e-008
9.98442e-008
9.98487e-008
9.98525e-008
9.98555e-008
9.98582e-008
9.98592e-008
9.98598e-008
9.98598e-008
9.9859e-008
9.98572e-008
9.98539e-008
9.98497e-008
9.98457e-008
9.98417e-008
9.98366e-008
9.98306e-008
9.98235e-008
9.98154e-008
9.98058e-008
9.97945e-008
9.97817e-008
9.97663e-008
9.97492e-008
9.97275e-008
9.97027e-008
9.96769e-008
9.96377e-008
9.96126e-008
9.95828e-008
9.95219e-008
9.95755e-008
9.91839e-008
9.46545e-008
8.82316e-008
3.24172e-007
1.96858e-005
0.00150473
0.0320031
0.165249
6.05393e-008
6.05207e-008
6.05194e-008
6.05202e-008
6.05284e-008
6.05233e-008
6.05201e-008
6.05214e-008
6.05196e-008
6.05186e-008
6.05171e-008
6.05164e-008
6.05143e-008
6.05124e-008
6.05115e-008
6.05085e-008
6.05058e-008
6.05037e-008
6.05024e-008
6.04991e-008
6.0496e-008
6.04931e-008
6.04902e-008
6.04877e-008
6.04852e-008
6.04827e-008
6.04806e-008
6.04775e-008
6.04748e-008
6.04724e-008
6.047e-008
6.04678e-008
6.04659e-008
6.0463e-008
6.04605e-008
6.04585e-008
6.04564e-008
6.04544e-008
6.04522e-008
6.04502e-008
6.04486e-008
6.04471e-008
6.04456e-008
6.04447e-008
6.04424e-008
6.04405e-008
6.04392e-008
6.04383e-008
6.0437e-008
6.04354e-008
6.0434e-008
6.04332e-008
6.04329e-008
6.04316e-008
6.04307e-008
6.04295e-008
6.04284e-008
6.0428e-008
6.04277e-008
6.04273e-008
6.04272e-008
6.04276e-008
6.04267e-008
6.04262e-008
6.0426e-008
6.04258e-008
6.04258e-008
6.04257e-008
6.04262e-008
6.04257e-008
6.04252e-008
6.04258e-008
6.04254e-008
6.04252e-008
6.04253e-008
6.04253e-008
6.04259e-008
6.04254e-008
6.04253e-008
6.04252e-008
6.04252e-008
6.04253e-008
6.04254e-008
6.04251e-008
6.04254e-008
6.04244e-008
6.04236e-008
6.04231e-008
6.0423e-008
6.04228e-008
6.04226e-008
6.04225e-008
6.04225e-008
6.04223e-008
6.04223e-008
6.04218e-008
6.04216e-008
6.04212e-008
6.04216e-008
6.04197e-008
6.04189e-008
6.04175e-008
6.04166e-008
6.04155e-008
6.04139e-008
6.04117e-008
6.04105e-008
6.04085e-008
6.04065e-008
6.04043e-008
6.04016e-008
6.03985e-008
6.03955e-008
6.03924e-008
6.03889e-008
6.0385e-008
6.03808e-008
6.03763e-008
6.03712e-008
6.03655e-008
6.03594e-008
6.03523e-008
6.03446e-008
6.03371e-008
6.03248e-008
6.03191e-008
6.03016e-008
6.02958e-008
6.02807e-008
6.02645e-008
6.02398e-008
6.0098e-008
8.40176e-008
7.98369e-007
6.18344e-005
0.00290583
0.0439007
0.197992
0.452705