/*--------------------------------*- C++ -*----------------------------------*\
| =========                 |                                                 |
| \\      /  F ield         | OpenFOAM: The Open Source CFD Toolbox           |
|  \\    /   O peration     | Version:  5.x                                   |
|   \\  /    A nd           | Web:      www.OpenFOAM.org                      |
|    \\/     M anipulation  |                                                 |
\*---------------------------------------------------------------------------*/
/*   Windows 32 and 64 bit porting by blueCAPE: http://www.bluecape.com.pt   *\
|  Based on Windows porting (2.0.x v4) by Symscape: http://www.symscape.com   |
\*---------------------------------------------------------------------------*/
FoamFile
{
    version     2.0;
    format      ascii;
    class       volScalarField;
    location    "130";
    object      p;
}
// * * * * * * * * * * * * * * * * * * * * * * * * * * * * * * * * * * * * * //

dimensions      [0 2 -2 0 0 0 0];

internalField   nonuniform List<scalar> 
43900
(
0.419076
0.418748
0.418681
0.41855
0.418368
0.418109
0.417934
0.417598
0.417347
0.417043
0.41672
0.416399
0.416061
0.415712
0.415355
0.414989
0.414615
0.414234
0.413846
0.413452
0.413053
0.412647
0.412237
0.411821
0.411401
0.410977
0.410548
0.410115
0.409678
0.417063
0.424748
0.418933
0.422034
0.419701
0.420414
0.419575
0.419379
0.419
0.418587
0.418209
0.417808
0.417401
0.416995
0.416586
0.416175
0.41576
0.415342
0.414921
0.414496
0.414069
0.413638
0.413204
0.412767
0.412327
0.411885
0.411439
0.41099
0.410538
0.410697
0.431831
0.420695
0.42717
0.421846
0.424592
0.422106
0.422565
0.421468
0.4211
0.420558
0.420038
0.419543
0.419058
0.418578
0.418104
0.417634
0.417167
0.416703
0.41624
0.415777
0.415314
0.414851
0.414386
0.413921
0.413453
0.412984
0.412513
0.41204
0.405671
0.432185
0.425807
0.425665
0.425251
0.424825
0.423643
0.423698
0.422842
0.422524
0.421951
0.421447
0.420946
0.420444
0.419943
0.419444
0.418948
0.418453
0.417959
0.417466
0.416974
0.416482
0.415989
0.415496
0.415001
0.414505
0.414007
0.413507
0.413005
0.40695
0.430008
0.42507
0.424422
0.424479
0.424119
0.423917
0.423672
0.423162
0.422865
0.422419
0.422014
0.421591
0.421156
0.420711
0.420257
0.419796
0.419327
0.418852
0.418371
0.417885
0.417394
0.416898
0.416397
0.415892
0.415383
0.41487
0.414353
0.413831
0.411438
0.428809
0.425782
0.425532
0.425448
0.425017
0.424814
0.424602
0.424344
0.424074
0.423755
0.423444
0.423116
0.422774
0.422418
0.422046
0.42166
0.42126
0.420847
0.420422
0.419984
0.419535
0.419074
0.418604
0.418124
0.417634
0.417134
0.416626
0.416109
0.417237
0.430565
0.428707
0.428249
0.428238
0.42811
0.427843
0.427477
0.427222
0.427001
0.426738
0.426472
0.426194
0.4259
0.425589
0.425264
0.424924
0.42457
0.424199
0.423814
0.423414
0.422999
0.42257
0.422126
0.421668
0.421196
0.420711
0.420212
0.419701
0.423445
0.433685
0.432539
0.432031
0.431919
0.431824
0.431651
0.431356
0.431063
0.430776
0.430495
0.430214
0.42992
0.42961
0.429283
0.428941
0.428582
0.428208
0.427817
0.42741
0.426987
0.426549
0.426094
0.425624
0.425138
0.424637
0.42412
0.423589
0.423043
0.431942
0.438003
0.437483
0.436982
0.43672
0.436508
0.436271
0.435993
0.435648
0.435252
0.434876
0.434526
0.434174
0.43381
0.433429
0.433031
0.432615
0.432182
0.431731
0.431263
0.430777
0.430274
0.429754
0.429217
0.428663
0.428091
0.427504
0.4269
0.426279
0.440828
0.444371
0.444081
0.443589
0.443239
0.442931
0.442603
0.442246
0.441857
0.441432
0.440973
0.440536
0.440136
0.439728
0.439301
0.438851
0.438379
0.437884
0.437367
0.436829
0.436269
0.435689
0.435088
0.434467
0.433827
0.433167
0.432487
0.431789
0.431073
0.450033
0.452717
0.452468
0.451976
0.451585
0.451228
0.45085
0.45044
0.449999
0.449527
0.449043
0.448553
0.448107
0.447684
0.447238
0.446761
0.446252
0.445712
0.445144
0.444545
0.443919
0.443265
0.442585
0.441879
0.441147
0.440391
0.439611
0.438807
0.437982
0.460608
0.462131
0.461889
0.461423
0.461007
0.460602
0.460169
0.4597
0.459191
0.458641
0.458067
0.457499
0.456978
0.456502
0.456011
0.455483
0.454918
0.454318
0.453681
0.453011
0.452306
0.451568
0.450799
0.449997
0.449166
0.448304
0.447413
0.446495
0.445549
0.472009
0.47271
0.472412
0.47194
0.471481
0.471012
0.470503
0.469943
0.469327
0.468653
0.467931
0.46721
0.466542
0.465942
0.46533
0.464684
0.463998
0.463272
0.462512
0.461709
0.460874
0.460003
0.459092
0.458154
0.457175
0.456167
0.455128
0.454053
0.452952
0.484297
0.484552
0.484173
0.483661
0.483143
0.4826
0.482007
0.481351
0.480625
0.479824
0.478955
0.478075
0.477253
0.4765
0.47575
0.474956
0.474116
0.473237
0.472306
0.471343
0.470333
0.469281
0.4682
0.467065
0.465904
0.464707
0.463463
0.462199
0.460891
0.497608
0.497646
0.497192
0.496627
0.496041
0.495418
0.494737
0.493986
0.493156
0.492237
0.491231
0.490199
0.489229
0.488349
0.487458
0.486518
0.485536
0.484483
0.48339
0.482242
0.481048
0.479818
0.478514
0.477198
0.475828
0.474396
0.472958
0.471456
0.469917
0.511971
0.511908
0.511385
0.510756
0.510098
0.509389
0.50861
0.507751
0.5068
0.505746
0.504594
0.503415
0.502293
0.501249
0.500213
0.499129
0.497961
0.496746
0.495454
0.49412
0.492745
0.491276
0.489799
0.488247
0.486627
0.485008
0.4833
0.481556
0.479784
0.527382
0.527282
0.526692
0.525986
0.525242
0.524438
0.523549
0.522564
0.521473
0.520268
0.518946
0.517566
0.516248
0.515034
0.513813
0.512513
0.511167
0.509721
0.50823
0.506687
0.505035
0.503379
0.501627
0.499802
0.497984
0.496052
0.494076
0.492079
0.490008
0.543861
0.543758
0.543099
0.542305
0.541463
0.540548
0.539534
0.538405
0.53715
0.535754
0.534219
0.532618
0.531098
0.529656
0.528217
0.526711
0.5251
0.523437
0.521704
0.519858
0.518
0.516034
0.513974
0.511923
0.509752
0.507514
0.505271
0.502928
0.500535
0.561354
0.561269
0.560537
0.559642
0.558689
0.557649
0.556494
0.555204
0.553769
0.552176
0.550432
0.548612
0.546804
0.545147
0.543469
0.541691
0.53984
0.537912
0.535857
0.533762
0.531578
0.529257
0.526941
0.524519
0.52198
0.519459
0.516815
0.514088
0.511371
0.57985
0.579794
0.578983
0.577982
0.576911
0.57574
0.574435
0.572977
0.571351
0.569542
0.567542
0.565412
0.563374
0.561418
0.559457
0.557407
0.5553
0.553015
0.550662
0.548267
0.545672
0.543071
0.540397
0.53752
0.534693
0.531761
0.528665
0.525643
0.52247
0.599242
0.599221
0.598328
0.597209
0.596008
0.594689
0.593213
0.591559
0.589706
0.587638
0.585362
0.582978
0.580612
0.578386
0.576137
0.573808
0.57129
0.568683
0.566082
0.563185
0.560277
0.557357
0.554117
0.550986
0.547791
0.54428
0.540896
0.53738
0.533665
0.619436
0.619458
0.618477
0.617233
0.615892
0.614415
0.612757
0.610896
0.608815
0.606497
0.603939
0.601231
0.598503
0.59592
0.593385
0.590644
0.587779
0.584971
0.581723
0.57846
0.575296
0.571685
0.568221
0.564698
0.560747
0.556968
0.553067
0.548916
0.544927
0.640341
0.640411
0.63934
0.63797
0.636487
0.634848
0.633005
0.63093
0.628604
0.626005
0.623115
0.61998
0.616919
0.613961
0.610991
0.607948
0.604847
0.601248
0.597708
0.594257
0.5903
0.586411
0.582438
0.578149
0.573997
0.569636
0.565083
0.560628
0.556014
0.661793
0.661916
0.660752
0.659248
0.657612
0.655797
0.653746
0.651429
0.64882
0.645893
0.642654
0.639244
0.635717
0.632315
0.6291
0.625651
0.621766
0.618007
0.614135
0.60992
0.605618
0.601174
0.596583
0.591942
0.587103
0.582153
0.577174
0.572041
0.566695
0.683643
0.683825
0.68257
0.680931
0.679144
0.677153
0.674898
0.672348
0.669481
0.66628
0.662715
0.658817
0.654954
0.6512
0.647299
0.643273
0.639257
0.634889
0.6304
0.62579
0.620889
0.615933
0.610752
0.605449
0.600109
0.594543
0.588819
0.582978
0.577181
0.70575
0.705992
0.704649
0.702883
0.70095
0.69879
0.696334
0.693549
0.690406
0.686875
0.682948
0.678699
0.674274
0.669866
0.665676
0.661377
0.65661
0.651814
0.646823
0.641473
0.636108
0.63048
0.624693
0.618838
0.612719
0.606515
0.600193
0.593779
0.587306
0.727887
0.72819
0.726763
0.72487
0.72279
0.720454
0.717789
0.714756
0.711327
0.707469
0.703145
0.698412
0.693541
0.688894
0.684173
0.679061
0.67404
0.668551
0.66287
0.657204
0.651074
0.644813
0.638446
0.631752
0.625052
0.618196
0.611109
0.603903
0.596542
0.749893
0.750256
0.748751
0.746743
0.744527
0.742029
0.739169
0.735906
0.732207
0.72804
0.723384
0.718285
0.713039
0.707606
0.702234
0.696955
0.691101
0.685115
0.678974
0.672419
0.665812
0.658866
0.651673
0.644339
0.636915
0.629233
0.62131
0.613402
0.60536
0.771569
0.771986
0.770412
0.768303
0.765965
0.763318
0.760277
0.756798
0.752848
0.748394
0.743392
0.737862
0.731985
0.726196
0.720343
0.714238
0.708038
0.70141
0.694511
0.687496
0.680094
0.672378
0.664473
0.65647
0.648084
0.639513
0.631089
0.622235
0.613163
0.792727
0.793189
0.791559
0.789363
0.786919
0.784139
0.780934
0.777256
0.773066
0.768321
0.762992
0.757089
0.750769
0.744314
0.738007
0.731505
0.724496
0.717249
0.709643
0.701967
0.693966
0.685407
0.676685
0.667761
0.658635
0.649443
0.639792
0.629907
0.620139
0.813187
0.813683
0.812006
0.809741
0.807208
0.804312
0.80096
0.7971
0.792694
0.787694
0.782042
0.77573
0.769023
0.762194
0.755182
0.747866
0.740391
0.732706
0.724595
0.715844
0.706924
0.697881
0.688407
0.67857
0.668422
0.658181
0.64767
0.636987
0.626091
0.832794
0.833308
0.831598
0.829285
0.826685
0.823697
0.820226
0.816217
0.811626
0.806407
0.800517
0.793931
0.786755
0.779154
0.771606
0.76413
0.756186
0.747468
0.738415
0.729298
0.719765
0.709681
0.699238
0.688445
0.677516
0.666264
0.654652
0.642951
0.631012
0.851411
0.851923
0.850194
0.847853
0.845207
0.842152
0.838588
0.834458
0.829717
0.824312
0.818171
0.811231
0.803724
0.79598
0.78792
0.779616
0.770884
0.761626
0.752223
0.742049
0.73147
0.720768
0.709419
0.697731
0.685709
0.673257
0.660614
0.647846
0.634766
0.868926
0.869414
0.867679
0.865332
0.862664
0.859567
0.85594
0.851726
0.846876
0.841334
0.83505
0.827966
0.82006
0.811782
0.803094
0.794108
0.784959
0.775394
0.765078
0.754266
0.74275
0.730971
0.7189
0.706064
0.692878
0.679337
0.665587
0.651537
0.637126
0.885257
0.885697
0.883969
0.881637
0.878969
0.875853
0.872191
0.867923
0.862996
0.857345
0.850893
0.843589
0.835483
0.826665
0.817629
0.808361
0.798671
0.788351
0.7772
0.765443
0.753408
0.740586
0.727213
0.713515
0.699231
0.684524
0.669377
0.653896
0.638209
0.90035
0.900718
0.899008
0.896709
0.894061
0.89095
0.887279
0.882988
0.87802
0.872313
0.865793
0.858356
0.850035
0.841174
0.831764
0.821799
0.811309
0.800305
0.788705
0.776413
0.763266
0.749383
0.73498
0.720062
0.704491
0.688382
0.671946
0.655092
0.637874
0.914182
0.914452
0.912773
0.910525
0.907916
0.904832
0.90118
0.896901
0.891936
0.886216
0.879663
0.872188
0.863795
0.854423
0.844627
0.834359
0.823566
0.812076
0.79971
0.786407
0.772438
0.757492
0.741877
0.725606
0.708645
0.691238
0.673311
0.65496
0.635936
0.926753
0.926905
0.925265
0.923085
0.920532
0.917495
0.913888
0.90965
0.904723
0.899035
0.892493
0.884981
0.876455
0.867168
0.85713
0.8465
0.835112
0.822911
0.809683
0.795618
0.78075
0.765044
0.748112
0.730326
0.711927
0.692895
0.673163
0.652867
0.632326
0.93809
0.938103
0.936512
0.934413
0.931931
0.928961
0.925422
0.921255
0.916399
0.91078
0.904312
0.896874
0.88839
0.878922
0.868666
0.857785
0.845954
0.833072
0.819255
0.804561
0.788576
0.771404
0.75338
0.734139
0.714042
0.693237
0.671696
0.649621
0.627031
0.948235
0.948094
0.946561
0.944555
0.942158
0.939272
0.935823
0.931755
0.927003
0.921493
0.915129
0.9078
0.899344
0.889903
0.879521
0.868385
0.856307
0.842942
0.828398
0.812587
0.795449
0.777126
0.757694
0.737146
0.715216
0.692368
0.668831
0.6446
0.619973
0.957245
0.956942
0.955475
0.953571
0.951271
0.948486
0.945149
0.941205
0.936588
0.931219
0.925006
0.917804
0.90955
0.900078
0.889791
0.878364
0.865822
0.852129
0.836871
0.820054
0.801858
0.782376
0.761361
0.738822
0.715213
0.690276
0.664502
0.637889
0.610594
0.965187
0.964722
0.963328
0.961536
0.959344
0.956674
0.953469
0.949674
0.945221
0.94003
0.933996
0.926997
0.918845
0.909624
0.899206
0.887718
0.874904
0.860608
0.844769
0.827103
0.80772
0.786725
0.764005
0.739634
0.713912
0.686921
0.658574
0.629368
0.599291
0.972133
0.971515
0.970203
0.96853
0.966456
0.963915
0.960861
0.957239
0.95298
0.947999
0.942186
0.935407
0.927484
0.918363
0.908055
0.896361
0.883371
0.868584
0.851857
0.833454
0.812877
0.790399
0.765936
0.739644
0.711705
0.681999
0.650943
0.618787
0.585818
0.978169
0.9774
0.976184
0.974637
0.972688
0.970291
0.967406
0.96398
0.959941
0.955201
0.949637
0.943097
0.9354
0.926465
0.916142
0.904496
0.891005
0.875871
0.85865
0.839021
0.817482
0.793367
0.767164
0.738786
0.708239
0.675857
0.641524
0.606232
0.569761
0.983374
0.98246
0.981358
0.979941
0.978124
0.975884
0.973187
0.969978
0.966182
0.961701
0.956409
0.950122
0.942669
0.93386
0.923656
0.911823
0.898272
0.882415
0.864522
0.844092
0.821271
0.795831
0.76757
0.736956
0.703649
0.668207
0.630759
0.591421
0.551312
0.987823
0.986778
0.985809
0.984522
0.982844
0.980774
0.978282
0.975309
0.971774
0.967572
0.962554
0.956527
0.949296
0.940656
0.930495
0.918538
0.90466
0.888413
0.86975
0.848545
0.824406
0.797381
0.767286
0.734223
0.6982
0.659354
0.618121
0.574685
0.529774
0.991589
0.990435
0.989617
0.988457
0.986923
0.985037
0.982765
0.980043
0.976784
0.972867
0.968116
0.962355
0.955289
0.946805
0.936593
0.92453
0.910335
0.893687
0.874404
0.852324
0.826954
0.798521
0.766364
0.730744
0.691705
0.649351
0.603694
0.555477
0.505525
0.994739
0.99351
0.992856
0.991813
0.990431
0.988741
0.986705
0.984247
0.981266
0.977626
0.973149
0.967544
0.960682
0.952235
0.941911
0.929836
0.915186
0.898208
0.8784
0.855403
0.829119
0.799085
0.765099
0.72673
0.684425
0.637918
0.587657
0.533829
0.477922
0.997331
0.99608
0.995592
0.994654
0.993432
0.991951
0.990162
0.987969
0.985261
0.981888
0.9776
0.9722
0.965369
0.95697
0.946466
0.934315
0.919345
0.901908
0.881776
0.857939
0.83085
0.799231
0.763345
0.722375
0.676439
0.625565
0.569784
0.509927
0.446664
0.999421
0.998221
0.997878
0.997031
0.995986
0.994722
0.993186
0.991252
0.988797
0.985643
0.981538
0.976141
0.969472
0.960816
0.950396
0.937967
0.922798
0.905076
0.884495
0.860089
0.831998
0.799216
0.761325
0.71778
0.668144
0.612302
0.550557
0.483052
0.411815
1.00106
0.999994
0.999756
0.998994
0.998145
0.9971
0.995816
0.994112
0.991878
0.988886
0.984862
0.979498
0.972792
0.964011
0.953615
0.940969
0.925545
0.907794
0.886636
0.861746
0.832765
0.79894
0.7593
0.713176
0.659844
0.598606
0.529707
0.453788
0.371947
1.00231
1.00144
1.00125
1.00058
0.999957
0.999114
0.998068
0.996556
0.994463
0.991609
0.987563
0.98219
0.975487
0.966542
0.956201
0.943321
0.927857
0.909854
0.888243
0.863029
0.833339
0.798422
0.757225
0.70874
0.651692
0.58491
0.507931
0.421329
0.327598
1.00323
1.00257
1.0024
1.00184
1.00145
1.00077
0.999947
0.99853
0.996579
0.993758
0.989645
0.984334
0.977508
0.968562
0.95814
0.945125
0.929702
0.911339
0.889596
0.863946
0.83363
0.797704
0.755222
0.704515
0.644086
0.571429
0.485864
0.386584
0.276776
1.00385
1.00337
1.00323
1.0028
1.00263
1.00207
1.00142
1.00004
0.998204
0.995303
0.991235
0.985927
0.978963
0.970149
0.959593
0.946479
0.931096
0.912446
0.890579
0.864419
0.833667
0.796855
0.753313
0.70046
0.636955
0.55843
0.463717
0.350211
0.219714
1.00422
1.00386
1.00379
1.00351
1.00348
1.00302
1.00246
1.00113
0.99935
0.996363
0.992435
0.986983
0.980018
0.971336
0.960578
0.947493
0.932015
0.913224
0.891181
0.8646
0.833504
0.795831
0.751254
0.696431
0.63002
0.545903
0.441626
0.31068
0.155372
1.0044
1.00414
1.00413
1.00402
1.00404
1.00369
1.00313
1.0019
1.00007
0.997137
0.993232
0.987744
0.980728
0.972149
0.961083
0.948094
0.932192
0.913421
0.890752
0.864
0.83188
0.793746
0.747273
0.691184
0.620874
0.532401
0.417021
0.26545
0.0709747
1.00448
1.0043
1.00434
1.00438
1.00434
1.00415
1.00348
1.00244
1.00044
0.997609
0.99357
0.988105
0.980872
0.972329
0.960881
0.947757
0.931302
0.912312
0.888884
0.861705
0.828457
0.789505
0.74114
0.683243
0.609235
0.515775
0.38995
0.214868
-0.0382605
1.00451
1.00438
1.00444
1.00464
1.00446
1.00446
1.00357
1.00271
1.00055
0.997702
0.993445
0.987786
0.980282
0.971396
0.959628
0.94611
0.929231
0.909736
0.885753
0.857905
0.823807
0.783761
0.733972
0.67389
0.597005
0.498178
0.365405
0.173112
-0.139405
1.00453
1.00442
1.0045
1.0047
1.00444
1.00434
1.00337
1.00241
0.999831
0.996715
0.9921
0.986051
0.978204
0.96895
0.956798
0.942958
0.925663
0.90577
0.88119
0.852891
0.817912
0.77741
0.726051
0.665636
0.585262
0.486213
0.34648
0.162353
-0.0548804
0.409158
0.408554
0.407943
0.407326
0.406704
0.406077
0.405444
0.404806
0.404164
0.403518
0.402867
0.402212
0.401554
0.400892
0.400227
0.399559
0.398888
0.398214
0.397537
0.396858
0.396177
0.395494
0.394809
0.394123
0.393434
0.392745
0.392055
0.391363
0.390671
0.389979
0.389286
0.388593
0.3879
0.387207
0.386514
0.385823
0.385132
0.384442
0.383753
0.383066
0.38238
0.381696
0.381014
0.380335
0.379657
0.378983
0.378312
0.377643
0.376978
0.376317
0.375659
0.375005
0.374356
0.373711
0.37307
0.372434
0.371804
0.371178
0.370559
0.369944
0.369336
0.368733
0.368137
0.367547
0.366963
0.366387
0.365817
0.365254
0.364698
0.36415
0.36361
0.363077
0.362552
0.362036
0.361527
0.361028
0.360536
0.360054
0.35958
0.359115
0.358659
0.358213
0.357776
0.357348
0.356931
0.356522
0.356124
0.355736
0.355358
0.35499
0.354633
0.354286
0.35395
0.353624
0.353309
0.353004
0.35271
0.352427
0.352155
0.351894
0.351643
0.351404
0.351175
0.350957
0.350751
0.350554
0.350369
0.350194
0.35003
0.349876
0.349732
0.349599
0.349476
0.349362
0.349258
0.349163
0.349078
0.349002
0.348936
0.348879
0.348831
0.348791
0.348758
0.348734
0.348715
0.348705
0.348697
0.348704
0.348707
0.348724
0.348742
0.348769
0.348804
0.348837
0.348886
0.348923
0.349004
0.349021
0.349186
0.410003
0.409381
0.408755
0.408123
0.407487
0.406845
0.406199
0.405547
0.404891
0.404231
0.403566
0.402897
0.402223
0.401546
0.400864
0.400179
0.39949
0.398798
0.398103
0.397405
0.396704
0.396001
0.395295
0.394587
0.393878
0.393166
0.392454
0.39174
0.391025
0.390309
0.389592
0.388876
0.388159
0.387443
0.386726
0.386011
0.385296
0.384583
0.383871
0.383161
0.382452
0.381746
0.381041
0.38034
0.379641
0.378945
0.378252
0.377562
0.376877
0.376195
0.375516
0.374842
0.374173
0.373508
0.372848
0.372193
0.371543
0.370898
0.370259
0.369625
0.368998
0.368377
0.367762
0.367154
0.366553
0.365959
0.365372
0.364793
0.36422
0.363656
0.363099
0.362551
0.362011
0.361479
0.360955
0.36044
0.359934
0.359437
0.358949
0.358471
0.358002
0.357542
0.357092
0.356652
0.356222
0.355802
0.355392
0.354992
0.354603
0.354224
0.353856
0.353498
0.35315
0.352814
0.352488
0.352173
0.351869
0.351576
0.351294
0.351023
0.350764
0.350516
0.350279
0.350053
0.349839
0.349637
0.349446
0.349266
0.349098
0.348941
0.348795
0.348662
0.34854
0.348429
0.34833
0.348242
0.348166
0.348101
0.348046
0.348001
0.347967
0.347943
0.347929
0.347923
0.347928
0.347936
0.347961
0.347975
0.348015
0.34804
0.348072
0.348106
0.348142
0.348171
0.34822
0.34821
0.348219
0.348188
0.348172
0.411479
0.41083
0.410177
0.409519
0.408855
0.408188
0.407515
0.406838
0.406156
0.405469
0.404778
0.404082
0.403382
0.402677
0.401969
0.401256
0.400539
0.399819
0.399095
0.398367
0.397636
0.396902
0.396166
0.395426
0.394684
0.39394
0.393194
0.392446
0.391697
0.390946
0.390195
0.389443
0.38869
0.387937
0.387184
0.386431
0.385679
0.384928
0.384177
0.383428
0.38268
0.381934
0.38119
0.380448
0.379709
0.378972
0.378239
0.377509
0.376782
0.376059
0.37534
0.374626
0.373916
0.37321
0.37251
0.371815
0.371126
0.370442
0.369764
0.369092
0.368427
0.367769
0.367117
0.366472
0.365834
0.365204
0.364581
0.363966
0.363359
0.36276
0.36217
0.361588
0.361015
0.36045
0.359895
0.359349
0.358812
0.358285
0.357768
0.35726
0.356762
0.356275
0.355797
0.35533
0.354873
0.354427
0.353991
0.353566
0.353152
0.352749
0.352358
0.351977
0.351608
0.351251
0.350905
0.350571
0.350249
0.349939
0.349642
0.349356
0.349083
0.348822
0.348574
0.348338
0.348115
0.347905
0.347708
0.347525
0.347354
0.347196
0.347052
0.346921
0.346804
0.346701
0.346611
0.346535
0.346472
0.346422
0.346386
0.346364
0.346355
0.34636
0.346379
0.346409
0.346457
0.346512
0.346584
0.346674
0.346762
0.346875
0.346995
0.347111
0.34723
0.347399
0.347363
0.347834
0.347461
0.348612
0.347235
0.412411
0.411722
0.411028
0.410328
0.409624
0.408914
0.408199
0.407478
0.406752
0.406021
0.405284
0.404542
0.403795
0.403043
0.402286
0.401525
0.40076
0.39999
0.399217
0.39844
0.397659
0.396875
0.396088
0.395298
0.394505
0.39371
0.392913
0.392113
0.391313
0.39051
0.389707
0.388902
0.388097
0.387292
0.386486
0.38568
0.384875
0.384071
0.383268
0.382466
0.381665
0.380867
0.38007
0.379276
0.378485
0.377697
0.376912
0.37613
0.375352
0.374579
0.37381
0.373046
0.372286
0.371532
0.370783
0.37004
0.369303
0.368573
0.367848
0.367131
0.36642
0.365717
0.365021
0.364333
0.363653
0.36298
0.362317
0.361661
0.361015
0.360377
0.359748
0.359129
0.35852
0.35792
0.35733
0.35675
0.356181
0.355622
0.355073
0.354536
0.354009
0.353494
0.35299
0.352497
0.352017
0.351548
0.351091
0.350646
0.350214
0.349794
0.349387
0.348994
0.348613
0.348245
0.347891
0.34755
0.347223
0.346909
0.34661
0.346324
0.346052
0.345795
0.345552
0.345323
0.345109
0.34491
0.344726
0.344557
0.344402
0.344264
0.34414
0.344033
0.343941
0.343864
0.343803
0.343759
0.34373
0.343718
0.343723
0.343744
0.343782
0.343838
0.343912
0.344013
0.344116
0.344267
0.344416
0.344596
0.344824
0.345045
0.345257
0.345725
0.345517
0.346795
0.345469
0.348553
0.345008
0.351523
0.343228
0.413212
0.41249
0.411761
0.411025
0.410281
0.409529
0.40877
0.408003
0.407228
0.406447
0.405657
0.404861
0.404058
0.403248
0.402432
0.401609
0.400781
0.399947
0.399107
0.398263
0.397413
0.39656
0.395702
0.39484
0.393975
0.393106
0.392235
0.391362
0.390486
0.389609
0.38873
0.387851
0.386971
0.386091
0.385211
0.384332
0.383453
0.382575
0.381699
0.380825
0.379953
0.379084
0.378217
0.377354
0.376494
0.375639
0.374787
0.373939
0.373097
0.372259
0.371427
0.3706
0.369779
0.368964
0.368156
0.367354
0.366559
0.365772
0.364991
0.364219
0.363455
0.362699
0.361951
0.361213
0.360483
0.359762
0.359051
0.35835
0.357658
0.356976
0.356304
0.355643
0.354993
0.354353
0.353724
0.353107
0.352501
0.351906
0.351324
0.350753
0.350194
0.349648
0.349114
0.348593
0.348085
0.34759
0.347109
0.34664
0.346186
0.345745
0.345318
0.344905
0.344505
0.344121
0.34375
0.343394
0.343053
0.342727
0.342415
0.342119
0.341838
0.341573
0.341323
0.34109
0.340872
0.340671
0.340486
0.340318
0.340167
0.340033
0.339916
0.339818
0.339738
0.339677
0.339635
0.339614
0.339612
0.339632
0.339674
0.339738
0.339825
0.339939
0.340073
0.340239
0.340431
0.340645
0.34092
0.341193
0.341465
0.342052
0.341909
0.343496
0.342087
0.345882
0.341646
0.349425
0.33967
0.354362
0.3306
0.41549
0.414763
0.414023
0.413269
0.412503
0.411723
0.410932
0.410129
0.409316
0.408491
0.407657
0.406812
0.405958
0.405095
0.404223
0.403343
0.402454
0.401558
0.400655
0.399745
0.398828
0.397905
0.396977
0.396043
0.395105
0.394162
0.393215
0.392265
0.391312
0.390357
0.389399
0.388439
0.387479
0.386517
0.385555
0.384593
0.383631
0.382669
0.381709
0.380751
0.379794
0.37884
0.377889
0.37694
0.375996
0.375055
0.374119
0.373187
0.37226
0.371339
0.370424
0.369514
0.368611
0.367715
0.366826
0.365944
0.36507
0.364204
0.363346
0.362497
0.361657
0.360826
0.360004
0.359192
0.358389
0.357597
0.356815
0.356044
0.355284
0.354534
0.353796
0.35307
0.352355
0.351652
0.350961
0.350283
0.349616
0.348963
0.348322
0.347695
0.34708
0.346479
0.345891
0.345316
0.344756
0.344209
0.343676
0.343157
0.342652
0.342162
0.341686
0.341225
0.340779
0.340347
0.339931
0.339531
0.339146
0.338776
0.338423
0.338085
0.337765
0.33746
0.337173
0.336902
0.336649
0.336413
0.336195
0.335996
0.335814
0.335652
0.335509
0.335385
0.335281
0.335199
0.335137
0.335097
0.335079
0.335084
0.335112
0.335168
0.335245
0.335351
0.33548
0.335635
0.335832
0.336032
0.33627
0.336614
0.336668
0.337488
0.336985
0.338661
0.337257
0.340002
0.337761
0.341329
0.337247
0.348088
0.316581
0.419084
0.418353
0.417602
0.416829
0.416037
0.415226
0.414397
0.41355
0.412688
0.41181
0.410916
0.410009
0.409088
0.408155
0.407209
0.406252
0.405285
0.404307
0.40332
0.402324
0.40132
0.400308
0.399289
0.398263
0.397231
0.396194
0.395152
0.394105
0.393055
0.392001
0.390944
0.389884
0.388823
0.38776
0.386696
0.385632
0.384568
0.383506
0.382444
0.381384
0.380327
0.379272
0.37822
0.377172
0.376128
0.375088
0.374054
0.373024
0.372001
0.370984
0.369973
0.36897
0.367974
0.366985
0.366004
0.365032
0.364068
0.363114
0.362168
0.361232
0.360306
0.359391
0.358485
0.357591
0.356707
0.355835
0.354974
0.354125
0.353288
0.352463
0.351651
0.350852
0.350065
0.349291
0.348531
0.347784
0.347051
0.346332
0.345626
0.344935
0.344257
0.343595
0.342947
0.342313
0.341695
0.341091
0.340503
0.339929
0.339371
0.338828
0.338301
0.337789
0.337293
0.336813
0.336349
0.335902
0.33547
0.335055
0.334657
0.334275
0.333911
0.333563
0.333233
0.33292
0.332624
0.332347
0.332087
0.331846
0.331623
0.331418
0.331232
0.331066
0.330918
0.330789
0.33068
0.33059
0.33052
0.330469
0.330439
0.330427
0.330434
0.330461
0.330509
0.330566
0.330653
0.33076
0.330803
0.331081
0.330944
0.3315
0.331115
0.331917
0.331447
0.332118
0.332279
0.332252
0.332532
0.33918
0.307957
0.422384
0.4216
0.42079
0.419955
0.419096
0.418215
0.417312
0.416387
0.415442
0.414477
0.413492
0.41249
0.41147
0.410434
0.409383
0.408316
0.407236
0.406143
0.405037
0.403921
0.402793
0.401656
0.40051
0.399356
0.398195
0.397028
0.395855
0.394676
0.393494
0.392309
0.391121
0.389931
0.38874
0.387549
0.386357
0.385167
0.383978
0.382791
0.381607
0.380426
0.379248
0.378075
0.376907
0.375743
0.374586
0.373435
0.37229
0.371153
0.370023
0.368902
0.367788
0.366684
0.365589
0.364503
0.363427
0.362362
0.361308
0.360264
0.359232
0.358211
0.357202
0.356206
0.355221
0.35425
0.353291
0.352346
0.351413
0.350495
0.34959
0.348698
0.347821
0.346958
0.34611
0.345276
0.344456
0.343652
0.342862
0.342088
0.341329
0.340585
0.339857
0.339144
0.338448
0.337767
0.337102
0.336453
0.33582
0.335203
0.334603
0.334019
0.333452
0.3329
0.332366
0.331848
0.331346
0.330861
0.330393
0.329942
0.329507
0.329089
0.328688
0.328303
0.327936
0.327585
0.327251
0.326934
0.326634
0.32635
0.326083
0.325833
0.325599
0.325381
0.32518
0.324994
0.324824
0.324669
0.32453
0.324404
0.324293
0.324193
0.324119
0.324039
0.32399
0.323943
0.323885
0.323922
0.323802
0.323969
0.323768
0.32406
0.323824
0.324151
0.324058
0.324018
0.324513
0.32347
0.322743
0.329733
0.302102
0.425529
0.424637
0.423715
0.422767
0.421792
0.420793
0.419768
0.41872
0.417648
0.416555
0.41544
0.414306
0.413151
0.411978
0.410788
0.40958
0.408357
0.40712
0.405869
0.404606
0.403332
0.402047
0.400753
0.399451
0.398141
0.396824
0.395502
0.394175
0.392844
0.391509
0.390173
0.388835
0.387496
0.386158
0.384821
0.383485
0.382152
0.380823
0.379497
0.378176
0.37686
0.37555
0.374247
0.372951
0.371663
0.370382
0.369111
0.367849
0.366597
0.365355
0.364124
0.362904
0.361696
0.3605
0.359316
0.358145
0.356986
0.355842
0.35471
0.353593
0.35249
0.351402
0.350328
0.349269
0.348225
0.347197
0.346184
0.345186
0.344204
0.343239
0.342289
0.341355
0.340438
0.339537
0.338653
0.337785
0.336934
0.3361
0.335283
0.334483
0.333699
0.332933
0.332184
0.331452
0.330736
0.330038
0.329357
0.328693
0.328047
0.327417
0.326804
0.326209
0.325631
0.32507
0.324526
0.323998
0.323488
0.322995
0.322518
0.322059
0.321616
0.321189
0.320779
0.320386
0.320008
0.319647
0.319302
0.318972
0.318659
0.31836
0.318077
0.31781
0.317557
0.317318
0.317095
0.316885
0.31669
0.316509
0.316342
0.316185
0.316048
0.315922
0.31581
0.315715
0.315594
0.3156
0.315434
0.315543
0.315349
0.31554
0.315352
0.315545
0.315656
0.315297
0.315722
0.314919
0.313588
0.319574
0.297138
0.430207
0.429177
0.428116
0.427025
0.425905
0.424755
0.423579
0.422376
0.421148
0.419896
0.41862
0.417323
0.416006
0.414669
0.413315
0.411943
0.410556
0.409154
0.407738
0.406308
0.404865
0.40341
0.401945
0.400471
0.398988
0.397499
0.396005
0.394506
0.393004
0.391499
0.389994
0.388489
0.386984
0.385481
0.383981
0.382484
0.380991
0.379503
0.378021
0.376545
0.375077
0.373616
0.372163
0.37072
0.369287
0.367864
0.366452
0.365051
0.363663
0.362287
0.360924
0.359574
0.358238
0.356917
0.35561
0.354318
0.353041
0.35178
0.350535
0.349307
0.348094
0.346899
0.345721
0.34456
0.343417
0.342291
0.341184
0.340094
0.339023
0.33797
0.336935
0.335919
0.334921
0.333942
0.332982
0.33204
0.331118
0.330213
0.329328
0.328461
0.327613
0.326784
0.325973
0.32518
0.324407
0.323651
0.322914
0.322196
0.321495
0.320813
0.320149
0.319503
0.318875
0.318265
0.317672
0.317097
0.31654
0.316
0.315478
0.314972
0.314484
0.314013
0.313558
0.313121
0.312699
0.312294
0.311906
0.311533
0.311177
0.310836
0.310511
0.310202
0.309908
0.309629
0.309366
0.309119
0.308887
0.30867
0.308469
0.308283
0.308106
0.307972
0.307796
0.307729
0.307543
0.307508
0.307338
0.307378
0.30721
0.307277
0.307199
0.307018
0.307502
0.30718
0.306882
0.306325
0.305441
0.309789
0.292913
0.436983
0.435795
0.43457
0.433308
0.432012
0.430682
0.429321
0.42793
0.42651
0.425063
0.423591
0.422095
0.420575
0.419034
0.417469
0.415884
0.414281
0.412661
0.411026
0.40938
0.407723
0.406059
0.404389
0.402712
0.40103
0.399344
0.397654
0.395961
0.394267
0.392571
0.390876
0.389182
0.38749
0.385801
0.384117
0.382438
0.380765
0.3791
0.377443
0.375795
0.374157
0.37253
0.370915
0.369312
0.367722
0.366145
0.364583
0.363036
0.361505
0.359989
0.358489
0.357007
0.355541
0.354093
0.352663
0.351252
0.349858
0.348484
0.347129
0.345793
0.344476
0.343179
0.341902
0.340645
0.339409
0.338192
0.336996
0.335821
0.334667
0.333533
0.33242
0.331327
0.330256
0.329205
0.328175
0.327166
0.326178
0.32521
0.324262
0.323335
0.322428
0.321542
0.320676
0.31983
0.319004
0.318199
0.317413
0.316646
0.315899
0.315172
0.314464
0.313775
0.313106
0.312455
0.311822
0.311209
0.310613
0.310036
0.309477
0.308936
0.308413
0.307907
0.307419
0.306948
0.306494
0.306057
0.305636
0.305233
0.304845
0.304475
0.30412
0.303781
0.303458
0.303151
0.30286
0.302584
0.302324
0.302078
0.301848
0.301634
0.301426
0.301259
0.30105
0.300945
0.300719
0.30072
0.300362
0.300356
0.300169
0.300119
0.300079
0.299757
0.299831
0.299045
0.298754
0.298349
0.297577
0.300861
0.288719
0.444405
0.44304
0.441631
0.44018
0.438687
0.437153
0.435582
0.433975
0.432335
0.430662
0.428956
0.427222
0.425461
0.42368
0.421884
0.420075
0.418253
0.416418
0.414569
0.412705
0.410827