/*--------------------------------*- C++ -*----------------------------------*\
| =========                 |                                                 |
| \\      /  F ield         | OpenFOAM: The Open Source CFD Toolbox           |
|  \\    /   O peration     | Version:  5.x                                   |
|   \\  /    A nd           | Web:      www.OpenFOAM.org                      |
|    \\/     M anipulation  |                                                 |
\*---------------------------------------------------------------------------*/
/*   Windows 32 and 64 bit porting by blueCAPE: http://www.bluecape.com.pt   *\
|  Based on Windows porting (2.0.x v4) by Symscape: http://www.symscape.com   |
\*---------------------------------------------------------------------------*/
FoamFile
{
    version     2.0;
    format      ascii;
    class       surfaceScalarField;
    location    "130";
    object      phi;
}
// * * * * * * * * * * * * * * * * * * * * * * * * * * * * * * * * * * * * * //

dimensions      [0 3 -1 0 0 0 0];

internalField   nonuniform List<scalar> 
87341
(
0.363552
39.5595
0.507601
39.779
0.490305
39.9403
0.58357
39.8298
0.618363
39.8882
0.654177
39.8872
0.691261
39.886
0.710702
39.9036
0.739896
39.8938
0.75698
39.906
0.774108
39.9059
0.790325
39.9068
0.805845
39.9075
0.820789
39.9081
0.835113
39.9087
0.848798
39.9094
0.861835
39.91
0.874238
39.9106
0.885778
39.9115
0.896499
39.9123
0.906603
39.9129
0.916272
39.9134
0.925549
39.9138
0.93447
39.9141
0.943074
39.9144
0.951405
39.9147
0.959506
39.9149
0.967429
39.9151
39.9151
0.975355
0.935424
38.6241
1.3184
39.396
1.42006
39.8387
1.58118
39.6686
1.62847
39.841
1.80003
39.7157
1.90266
39.7833
2.04771
39.7585
2.14473
39.7968
2.24615
39.8045
2.33833
39.8137
2.42212
39.823
2.49806
39.8316
2.56632
39.8398
2.62786
39.8472
2.68357
39.8536
2.73429
39.8593
2.78069
39.8642
2.82389
39.8683
2.86454
39.8717
2.90302
39.8745
2.93963
39.8768
2.97458
39.8788
3.00808
39.8806
3.04022
39.8823
3.0711
39.8838
3.1008
39.8852
3.12935
39.8866
39.8873
3.15717
1.9544
36.6697
3.17262
38.1778
3.85368
39.1576
3.86496
39.6574
4.00805
39.6979
3.94173
39.782
3.96371
39.7613
3.96316
39.7591
3.99362
39.7664
4.03677
39.7614
4.0793
39.7712
4.12507
39.7773
4.17156
39.7851
4.21862
39.7928
4.266
39.7998
4.31343
39.8062
4.36074
39.812
4.4079
39.8171
4.45473
39.8215
4.50096
39.8254
4.54634
39.8291
4.59051
39.8326
4.63349
39.8358
4.67529
39.8388
4.71596
39.8416
4.75557
39.8442
4.79417
39.8466
4.83183
39.8489
39.8514
4.86768
1.6537
35.016
3.38945
36.442
4.71583
37.8312
5.46656
38.9066
5.64827
39.5161
5.67931
39.751
5.66392
39.7767
5.63005
39.793
5.60642
39.79
5.57648
39.7913
5.55819
39.7895
5.54687
39.7886
5.54333
39.7886
5.54839
39.7877
5.56146
39.7867
5.58153
39.7861
5.60746
39.786
5.63825
39.7863
5.67205
39.7877
5.70797
39.7895
5.7454
39.7916
5.78415
39.7938
5.82381
39.7962
5.86408
39.7985
5.90478
39.8009
5.94555
39.8034
5.98615
39.806
6.02648
39.8086
39.812
6.06594
1.05772
33.9582
2.39032
35.1094
3.91733
36.3042
5.2831
37.5409
6.19812
38.6011
6.6118
39.3373
6.73237
39.6562
6.76874
39.7566
6.79143
39.7673
6.81693
39.7658
6.83995
39.7665
6.8613
39.7672
6.88438
39.7655
6.90713
39.7649
6.93022
39.7637
6.95392
39.7624
6.97847
39.7615
7.00383
39.7609
7.03112
39.7604
7.06072
39.7599
7.09256
39.7598
7.12655
39.7599
7.16252
39.7602
7.20021
39.7609
7.23938
39.7617
7.27994
39.7629
7.32176
39.7642
7.36466
39.7657
39.7664
7.41025
0.830692
33.1275
1.8214
34.1187
2.96702
35.1586
4.26779
36.2401
5.53866
37.3303
6.52357
38.3524
7.06072
39.119
7.27516
39.5422
7.37577
39.6667
7.46722
39.6744
7.55563
39.678
7.63169
39.6912
7.70466
39.6926
7.77633
39.6933
7.84634
39.6936
7.91481
39.694
7.98201
39.6943
8.04814
39.6948
8.11379
39.6947
8.17919
39.6945
8.24451
39.6945
8.3097
39.6947
8.37486
39.695
8.44006
39.6957
8.50531
39.6965
8.57068
39.6975
8.63618
39.6987
8.70173
39.7001
39.6996
8.76853
0.713097
32.4145
1.52657
33.3053
2.44213
34.243
3.46377
35.2185
4.58105
36.213
5.73257
37.2009
6.69486
38.1567
7.30075
38.9363
7.5556
39.4118
7.66372
39.5662
7.75656
39.5852
7.8554
39.5923
7.95379
39.5942
8.05224
39.5948
8.15078
39.5951
8.24956
39.5952
8.34865
39.5952
8.44826
39.5952
8.54815
39.5948
8.64806
39.5946
8.74811
39.5944
8.84808
39.5947
8.94784
39.5953
9.04749
39.596
9.14694
39.597
9.24606
39.5984
9.34486
39.5999
9.4432
39.6018
39.6024
9.54037
0.616472
31.798
1.29315
32.6286
2.03835
33.4978
2.8541
34.4027
3.73717
35.3299
4.67471
36.2633
5.64752
37.1839
6.51938
38.0644
7.10709
38.8241
7.36406
39.3093
7.49611
39.4532
7.62587
39.4626
7.75803
39.462
7.89156
39.4613
8.02626
39.4604
8.16176
39.4597
8.29798
39.459
8.43484
39.4583
8.57156
39.4581
8.70809
39.4581
8.84416
39.4584
8.97949
39.4594
9.11433
39.4604
9.24824
39.4621
9.38127
39.464
9.51352
39.4661
9.64447
39.469
9.77429
39.472
39.4762
9.90053
0.549229
31.2487
1.14324
32.0346
1.78014
32.8609
2.4616
33.7213
3.18646
34.605
3.95002
35.4998
4.74332
36.3906
5.54913
37.2586
6.2992
38.0741
6.81843
38.7901
7.06119
39.2104
7.22608
39.2977
7.39322
39.2949
7.564
39.2905
7.73705
39.2874
7.91236
39.2844
8.08906
39.2823
8.26631
39.2811
8.44435
39.2801
8.62163
39.2808
8.79842
39.2816
8.97486
39.2829
9.14941
39.2859
9.32311
39.2884
9.49554
39.2916
9.6656
39.2961
9.8345
39.3001
10.0015
39.305
39.3116
10.166
0.514023
30.7347
1.05923
31.4893
1.63355
32.2866
2.23742
33.1174
2.87019
33.9723
3.5293
34.8407
4.20965
35.7102
4.9021
36.5661
5.58757
37.3886
6.23062
38.147
6.65684
38.7842
6.89476
39.0598
7.1034
39.0863
7.31226
39.0816
7.52382
39.0758
7.73575
39.0724
7.94818
39.0699
8.16204
39.0672
8.37404
39.0681
8.58679
39.068
8.79921
39.0691
9.00899
39.0732
9.21966
39.0752
9.42824
39.0798
9.63415
39.0857
9.8405
39.0897
10.0436
39.097
10.2441
39.1044
39.1089
10.4468
0.478568
30.2562
0.977002
30.9909
1.49699
31.7666
2.03748
32.5769
2.59702
33.4127
3.17379
34.2639
3.76485
35.1192
4.36531
35.9657
4.96693
36.787
5.5536
37.5603
6.08161
38.2562
6.4337
38.7077
6.71659
38.8034
6.99522
38.803
7.26857
38.8024
7.54104
38.8
7.81206
38.7988
8.07684
38.8025
8.34323
38.8017
8.60511
38.8062
8.86234
38.8119
9.12185
38.8136
9.37453
38.8225
9.62481
38.8296
9.87615
38.8343
10.1197
38.8462
10.3623
38.8544
10.6042
38.8625
38.8734
10.8398
0.442686
29.8135
0.902263
30.5313
1.37804
31.2909
1.86939
32.0856
2.37458
32.9075
2.89122
33.7472
3.41684
34.5936
3.94857
35.434
4.4819
36.2536
5.009
37.0332
5.5184
37.7468
5.93903
38.287
6.29806
38.4443
6.63974
38.4613
6.98215
38.46
7.3172
38.4649
7.64308
38.4729
7.97274
38.4728
8.28959
38.4848
8.60342
38.4923
8.91871
38.4966
9.21929
38.5131
9.52134
38.5205
9.8214
38.5295
10.1073
38.5484
10.3963
38.5571
10.6799
38.5708
10.9515
38.5909
38.5993
11.2257
0.430308
29.3832
0.873813
30.0878
1.32978
30.8349
1.79805
31.6173
2.27804
32.4275
2.7681
33.2572
3.26551
34.0962
3.76713
34.9323
4.2696
35.7512
4.7685
36.5343
5.25875
37.2565
5.70661
37.8392
6.09882
38.0521
6.49161
38.0685
6.8688
38.0828
7.24138
38.0923
7.61965
38.0947
7.97652
38.1159
8.33788
38.1235
8.69679
38.1334
9.03542
38.158
9.38302
38.1655
9.72195
38.1815
10.0446
38.2068
10.3767
38.2164
10.6954
38.2383
11.0022
38.2641
11.3161
38.277
38.3008
11.6146
0.438086
28.9451
0.887402
29.6385
1.34709
30.3752
1.81633
31.148
2.29469
31.9492
2.78184
32.77
3.27663
33.6014
3.77655
34.4324
4.27806
35.2497
4.77706
36.0353
5.26788
36.7657
5.72687
37.3802
6.16216
37.6168
6.56867
37.662
6.97954
37.672
7.39149
37.6804
7.77765
37.7085
8.17665
37.7169
8.56712
37.733
8.93752
37.763
9.32235
37.7732
9.69295
37.7949
10.0473
37.8272
10.4154
37.8387
10.7648
37.8669
11.1034
37.8997
11.4518
37.9157
11.7798
37.949
37.9779
12.1027
0.455963
28.4891
0.922358
29.1721
1.39826
29.8993
1.88259
30.6637
2.37418
31.4576
2.87206
32.2722
3.37557
33.0979
3.88384
33.9242
4.39477
34.7387
4.90465
35.5254
5.40916
36.2612
5.90064
36.8887
6.34585
37.1716
6.79238
37.2155
7.23393
37.2304
7.65054
37.2638
8.08494
37.2741
8.50905
37.2928
8.9075
37.3346
9.32522
37.3453
9.72574
37.3726
10.1061
37.4145
10.5066
37.4267
10.8817
37.4637
11.2445
37.5041
11.6224
37.5218
11.9745
37.5636
12.3189
37.6046
37.6243
12.6726
0.479872
28.0092
0.969983
28.682
1.46919
29.4001
1.97629
30.1566
2.49001
30.9439
3.00897
31.7532
3.53184
32.575
4.0576
33.3984
4.5854
34.2109
5.11311
34.9977
5.63553
35.7388
6.13281
36.3914
6.61656
36.6879
7.09743
36.7346
7.54656
36.7813
8.01572
36.7946
8.47077
36.8191
8.8967
36.8669
9.3537
36.8776
9.78557
36.9134
10.1912
36.967
10.6273
36.9785
11.0284
37.0255
11.4173
37.0748
11.8286
37.0928
12.2074
37.1431
12.575
37.196
12.9594
37.2201
37.2716
13.3121
0.509548
27.4997
1.02946
28.1621
1.55846
28.8711
2.09516
29.6199
2.63806
30.401
3.18559
31.2057
3.73602
32.0246
4.28738
32.847
4.83751
33.6608
5.38416
34.4511
5.92493
35.198
6.46248
35.8539
6.99172
36.1586
7.46291
36.2635
7.96856
36.2756
8.46113
36.302
8.91862
36.3616
9.41236
36.3731
9.87038
36.4195
10.3028
36.481
10.7778
36.492
11.2137
36.5426
11.6331
36.6061
12.077
36.6309
12.4842
36.6856
12.8775
36.7498
13.2963
36.7772
13.6775
36.839
36.8999
14.0492
0.543409
26.9563
1.09774
27.6078
1.66143
28.3074
2.23289
29.0485
2.81046
29.8234
3.39245
30.6237
3.97711
31.4399
4.56273
32.2614
5.14781
33.0757
5.73148
33.8674
6.31358
34.6159
6.88633
35.2811
7.38918
35.6558
7.94064
35.712
8.47118
35.7451
8.95099
35.8222
9.47596
35.8366
9.97062
35.8785
10.4384
35.9517
10.9494
35.97
11.4161
36.0253
11.8512
36.1074
12.3218
36.1356
12.764
36.1887
13.1811
36.2685
13.6273
36.3035
14.0352
36.3693
14.416
36.4582
36.4872
14.8287
0.581384
26.3749
1.17427
27.0149
1.77713
27.7046
2.38825
28.4373
3.00592
29.2057
3.62833
30.0013
4.25359
30.8146
4.87961
31.6354
5.50379
32.4516
6.12214
33.249
6.72604
34.012
7.29474
34.7124
7.8995
35.051
8.47214
35.1393
8.97645
35.2408
9.53973
35.259
10.0833
35.2931
10.5774
35.3843
11.1125
35.4166
11.6158
35.4668
12.0756
35.5655
12.5887
35.5943
13.0818
35.6425
13.5172
35.7532
13.9865
35.7993
14.4301
35.8598
14.8338
35.9656
15.2882
36.0038
36.0733
15.7021
0.620713
25.7542
1.25374
26.3818
1.89725
27.061
2.5493
27.7853
3.20786
28.5472
3.87074
29.3384
4.53553
30.1498
5.19956
30.9714
5.85985
31.7913
6.51367
32.5952
7.16239
33.3633
7.82913
34.0457
8.44417
34.436
8.96992
34.6136
9.5735
34.6372
10.1798
34.6527
10.6974
34.7755
11.2544
34.8273
11.8147
34.8564
12.3045
34.977
12.855
35.015
13.3869
35.0624
13.8328
35.1967
14.3316
35.2544
14.8253
35.3056
15.2563
35.4289
15.7362
35.4857
16.1682
35.5718
35.6871
16.5544
0.661432
25.0928
1.33601
25.7073
2.02176
26.3753
2.71666
27.0904
3.41864
27.8452
4.12562
28.6314
4.83558
29.4399
5.54668
30.2603
6.25745
31.0805
6.96674
31.8859
7.67013
32.6599
8.33142
33.3844
8.90517
33.8622
9.57237
33.9464
10.234
33.9756
10.7648
34.1218
11.3452
34.1951
11.9748
34.1977
12.4996
34.3316
13.0814
34.3952
13.6381
34.4583
14.1071
34.5934
14.647
34.6567
15.1828
34.7186
15.6435
34.8449
16.1435
34.9289
16.5976
35.0317
17.0308
35.1385
35.2275
17.4904
0.703481
24.3893
1.4209
24.9899
2.15029
25.6459
2.88955
26.3511
3.63644
27.0983
4.38862
27.8792
5.1435
28.685
5.89796
29.5058
6.64765
30.3308
7.38554
31.148
8.10045
31.945
8.78469
32.7001
9.53381
33.1131
10.2169
33.2633
10.7584
33.4341
11.3897
33.4905
12.0822
33.5025
12.6477
33.6322
13.2516
33.7276
13.8274
33.8194
14.3609
33.9248
14.9526
34.0017
15.4968
34.1125
16.0107
34.2047
16.5319
34.3236
17.009
34.4518
17.4927
34.548
17.9677
34.6634
34.7766
18.4187
0.744413
23.6449
1.50364
24.2306
2.27541
24.8741
3.05735
25.5692
3.84691
26.3087
4.64138
27.0848
5.43781
27.8886
6.23314
28.7105
7.02445
29.5395
7.81038
30.3621
8.59601
31.1594
9.40517
31.891
10.1153
32.403
10.7023
32.6764
11.4101
32.7263
12.1218
32.7789
12.7369
32.8874
13.3578
33.0112
13.9587
33.1268
14.5792
33.199
15.2001
33.3039
15.7546
33.4472
16.3216
33.5455
16.8377
33.6887
17.3362
33.8251
17.8815
33.9065
18.395
34.0345
18.8634
34.195
34.328
19.312
0.785149
22.8597
1.58601
23.4298
2.40031
24.0598
3.22572
24.7438
4.05983
25.4746
4.90025
26.2444
5.74462
27.0442
6.59075
27.8643
7.43665
28.6936
8.27961
29.5192
9.11033
30.3286
9.87521
31.1261
10.5645
31.7137
11.3528
31.8881
12.0585
32.0206
12.7477
32.0897
13.387
32.2481
14.022
32.3762
14.7218
32.427
15.3654
32.5554
15.9453
32.724
16.5493
32.8431
17.0872
33.0076
17.6658
33.1101
18.2548
33.2361
18.7674
33.3939
19.252
33.5499
19.7494
33.6976
33.8638
20.2136
0.824827
22.0349
1.66604
22.5886
2.52151
23.2044
3.3888
23.8765
4.26531
24.5981
5.14817
25.3615
6.03415
26.1582
6.91934
26.9792
7.79845
27.8145
8.66395
28.6537
9.50719
29.4854
10.3409
30.2924
11.1879
30.8667
11.9305
31.1455
12.6749
31.2762
13.339
31.4255
14.0267
31.5604
14.7985
31.6044
15.4316
31.7939
16.0476
31.9393
16.6881
32.0835
17.3026
32.2287
17.9452
32.365
18.5246
32.5307
19.0575
32.7031
19.5982
32.8533
20.1041
33.0439
20.6039
33.1979
33.3785
21.0892
0.860707
21.1742
1.73876
21.7105
2.63169
22.3114
3.53695
22.9712
4.45181
23.6833
5.37333
24.44
6.29835
25.2332
7.22357
26.0539
8.146
26.8921
9.06395
27.7357
9.97846
28.5709
10.8775
29.3934
11.7142
30.0299
12.5212
30.3385
13.222
30.5754
13.9538
30.6938
14.7448
30.7694
15.3897
30.9595
16.0946
31.0891
16.7735
31.2604
17.4339
31.4231
18.1008
31.5618
18.6859
31.7799
19.2761
31.9405
19.8562
32.123
20.3747
32.3349
20.9351
32.4835
21.4422
32.6907
32.9217
21.899
0.894741
20.2794
1.80739
20.7978
2.7358
21.383
3.67755
22.0295
4.63006
22.7307
5.59059
23.4794
6.55625
24.2675
7.52403
25.0862
8.49057
25.9255
9.45144
26.7749
10.3992
27.6231
11.3336
28.459
12.2072
29.1563
12.9465
29.5991
13.7725
29.7494
14.5734
29.8928
15.3102
30.0326
16.0824
30.1874
16.745
30.4265
17.4289
30.5765
18.1289
30.7231
18.7828
30.9079
19.458
31.1047
20.0311
31.3674
20.6052
31.5488
21.188
31.7521
21.7166
31.9548
22.2581
32.1492
32.4253
22.7545
0.924431
19.355
1.86752
19.8548
2.82712
20.4234
3.80091
21.0557
4.78633
21.7453
5.78053
22.4852
6.78038
23.2677
7.78233
24.0842
8.7824
24.9254
9.7764
25.7808
10.7614
26.6381
11.7133
27.5071
12.5837
28.2859
13.5095
28.6733
14.312
28.947
15.1182
29.0866
15.8817
29.269
16.5783
29.4908
17.3676
29.6372
18.0957
29.8484
18.7976
30.0212
19.4506
30.2549
20.0664
30.489
20.7536
30.6802
21.3502
30.9523
21.921
31.1813
22.4724
31.4034
22.9425
31.6791
31.9103
23.4575
0.949371
18.4056
1.91789
18.8862
2.9036
19.4377
3.90428
20.055
4.91746
20.7321
5.94036
21.4623
6.96992
22.2381
8.00273
23.0514
9.03465
23.8935
10.0598
24.7557
11.0672
25.6307
12.0681
26.5062
13.0502
27.3038
13.9046
27.8189
14.8014
28.0502
15.5854
28.3026
16.3667
28.4878
17.1943
28.6631
17.8985
28.933
18.6861
29.0608
19.3858
29.3216
20.0776
29.563
20.7474
29.8192
21.3491
30.0784
22.0126
30.2888
22.613
30.5809
23.1281
30.8882
23.6727
31.1345
31.451
24.1321
0.968944
17.4367
1.95749
17.8977
2.9638
18.4314
3.98583
19.033
5.02118
19.6968
6.06714
20.4164
7.12061
21.1847
8.17814
21.9939
9.23605
22.8356
10.2913
23.7005
11.3459
24.5761
12.378
25.4741
13.3803
26.3016
14.3545
26.8448
15.1565
27.2481
16.013
27.4461
16.8186
27.6821
17.6504
27.8314
18.5018
28.0816
19.1762
28.3864
19.8947
28.6032
20.5966
28.8611
21.322
29.0937
22.0266
29.3738
22.6023
29.7132
23.1831
30.0001
23.7628
30.3085
24.275
30.6223
30.9434
24.7826
0.983232
16.4535
1.98634
16.8946
3.00785
17.4099
4.04603
17.9948
5.0988
18.644
6.1638
19.3514
7.23844
20.11
8.31995
20.9124
9.40535
21.7502
10.4913
22.6146
11.5693
23.498
12.6516
24.3919
13.6667
25.2865
14.5443
25.9672
15.4993
26.2931
16.3879
26.5575
17.2948
26.7752
18.0585
27.0677
18.8058
27.3343
19.6614
27.5307
20.4125
27.8521
21.1266
28.1469
21.8027
28.4176
22.4599
28.7166
23.1911
28.982
23.7841
29.4071
24.3177
29.775
24.8538
30.0862
30.448
25.3491
0.991307
15.4622
2.00266
15.8832
3.03288
16.3797
4.0805
16.9472
5.14368
17.5808
6.22021
18.2749
7.30751
19.0227
8.4025
19.8174
9.50143
20.6513
10.5992
21.5167
11.6926
22.4047
12.7574
23.327
13.8231
24.2208
14.887
24.9033
15.7529
25.4272
16.6254
25.685
17.4789
25.9217
18.4099
26.1367
19.2821
26.4621
19.9645
26.8483
20.7725
27.0441
21.5591
27.3604
22.3242
27.6524
22.9963
28.0446
23.5261
28.4522
24.2204
28.7127
24.8488
29.1466
25.3583
29.5767
29.9638
25.8425
0.993112
14.469
2.00626
14.8701
3.03857
15.3474
4.08889
15.8969
5.15565
16.5141
6.23689
17.1936
7.33033
17.9293
8.43335
18.7143
9.54303
19.5416
10.6566
20.4032
11.7699
21.2914
12.9088
22.1881
13.9687
23.1609
14.947
23.925
15.9801
24.3941
16.8983
24.7668
17.7944
25.0257
18.5841
25.347
19.4813
25.5649
20.4275
25.902
21.1291
26.3426
21.8827
26.6067
22.5836
26.9515
23.3584
27.2698
24.0602
27.7505
24.5658
28.2071
25.2449
28.4675
25.8463
28.9753
29.4818
26.3284
0.988799
13.4802
1.99744
13.8614
3.02543
14.3194
4.07199
14.8503
5.13586
15.4502
6.21542
16.1141
7.30868
16.836
8.41332
17.6097
9.52662
18.4283
10.645
19.2848
11.7638
20.1726
12.8484
21.1036
13.9898
22.0195
15.0861
22.8287
16.028
23.4522
17.0149
23.7798
17.9238
24.1168
18.8729
24.3979
19.6764
24.7615
20.5226
25.0558
21.4499
25.4153
22.1826
25.874
22.9169
26.2173
23.5798
26.6068
24.3678
26.9625
25.0679
27.5071
25.5189
28.0164
26.172
28.3223
28.9347
26.719
0.97837
12.5019
1.97625
12.8636
2.9935
13.3021
4.02968
13.8141
5.08389
14.396
6.15485
15.0431
7.24099
15.7499
8.34045
16.5102
9.45105
17.3177
10.5706
18.1652
11.6972
19.046
12.8505
19.9502
13.9549
20.9151
15.0509
21.7328
16.1245
22.3786
17.0072
22.8971
17.9449
23.1792
18.8394
23.5034
19.8281
23.7727
20.7002
24.1837
21.5083
24.6072
22.4051
24.9772
23.1666
25.4558
23.9119
25.8616
24.5421
26.3322
25.2959
26.7533
25.9666
27.3458
26.37
27.9188
28.3129
26.9918
0.962208
11.5397
1.94341
11.8824
2.94385
12.3017
3.96349
12.7945
5.00176
13.3577
6.05781
13.9871
7.13054
14.6772
8.21867
15.4221
9.32081
16.2156
10.4351
17.051
11.5579
17.9232
12.6675
18.8406
13.8231
19.7595
14.8705
20.6853
15.911
21.3382
17.011
21.7971
17.9812
22.2089
18.9466
22.5379
19.7937
22.9256
20.7453
23.2321
21.6638
23.6887
22.4535
24.1875
23.3024
24.6069
24.0603
25.1036
24.8211
25.5715
25.4297
26.1447
26.1316
26.6439
26.7504
27.3
27.9628
27.1005
0.9406
10.5991
1.89952
10.9235
2.87738
11.3238
3.87445
11.7974
4.89049
12.3417
5.92497
12.9526
6.97713
13.625
8.04595
14.3533
9.13016
15.1313
10.2281
15.953
11.3383
16.8131
12.4697
17.7091
13.5655
18.6637
14.7566
19.4942
15.848
20.2468
16.8104
20.8347
17.8311
21.1882
18.8015
21.5675
19.8024
21.9247
20.6523
22.3822
21.6159
22.7251
22.5759
23.2275
23.3715
23.8113
24.174
24.3011
24.8865
24.859
25.6393
25.3919
26.1995
26.0836
26.8406
26.6589
27.4148
27.3887
0.913981
9.68509
1.84547
9.99197
2.79544
10.3738
3.76445
10.8284
4.75256
11.3536
5.75954
11.9456
6.78504
12.5995
7.82854
13.3098
8.88937
14.0705
9.96708
14.8753
11.0619
15.7182
12.1756
16.5955
13.3228
17.5165
14.3548
18.4622
15.4935
19.108
16.6313
19.6969
17.6142
20.2053
18.646
20.5358
19.6328
20.9379
20.6767
21.3383
21.5102
21.8917
22.447
22.2907
23.3878
22.8705
24.1724
23.5164
24.9358
24.0956
25.6115
24.7163
26.3604
25.3347
26.9136
26.1057
26.8386
27.4898
0.882844
8.80224
1.78228
9.09253
2.69964
9.45648
3.63569
9.89235
4.59076
10.3985
5.56497
10.9714
6.55833
11.6061
7.57079
12.2973
8.60223
13.0391
9.65244
13.8251
10.7223
14.6484
11.8119
15.5059
12.9233
16.4051
14.1034
17.2821
15.1273
18.0842
16.2606
18.5636
17.3876
19.0784
18.3768
19.5465
19.3905
19.9242
20.3687
20.3601
21.4493
20.8111
22.296
21.444
23.2591
21.9074
24.1693
22.6062
24.9431
23.3217
25.6739
23.9856
26.293
24.7155
26.9699
25.4288
26.3035
27.505
0.847698
7.95455
1.71104
8.22918
2.59165
8.57588
3.49047
8.99353
4.40804
9.48094
5.34479
10.0346
6.30116
10.6498
7.27766
11.3208
8.27472
12.042
9.29314
12.8067
10.3339
13.6076
11.3972
14.4426
12.5056
15.2967
13.6049
16.1828
14.7907
16.8984
15.8095
17.5448
16.9439
17.9439
18.0751
18.4153
19.1117
18.8875
20.1476
19.3243
21.1403
19.8184
22.2187
20.3656
23.0472
21.0789
24.0089
21.6445
24.8706
22.46
25.6205
23.2357
26.3408
23.9953
26.8792
24.8904
25.6715
27.5111
0.809082
7.14546
1.63285
7.40541
2.47318
7.73555
3.33111
8.1356
4.20732
8.60473
5.10253
9.13942
6.01762
9.73467
6.95364
10.3848
7.91186
11.0838
8.89341
11.8251
9.90022
12.6008
10.9373
13.4055
11.9929
14.2411
13.1136
15.0621
14.247
15.765
15.4413
16.3504
16.4977
16.8875
17.6379
17.2752
18.7753
17.7501
19.832
18.2676
20.8576
18.7927
21.8581
19.3652
22.9085
20.0285
23.7455
20.8075
24.7117
21.4939
25.5089
22.4385
26.226
23.2781
26.8951
24.2213
25.2351
27.3315
0.767644
6.37782
1.54886
6.62419
2.34596
6.93845
3.15999
7.32157
3.99165
7.77307
4.84193
8.28914
5.71216
8.86444
6.60403
9.49295
7.51949
10.1683
8.4613
10.8833
9.43005
11.632
10.4279
12.4077
11.4843
13.1846
12.5705
13.9759
13.7001
14.6354
14.8479
15.2027
16.0665
15.6689
17.1509
16.1908
18.2865
16.6145
19.4284
17.1257
20.5001
17.721
21.5501
18.3152
22.5536
19.025
23.5614
19.7996
24.4106
20.6446
25.3356
21.5135
26.0557
22.558
26.7522
23.5249
24.6968
27.2905
0.723935
5.65388
1.46014
5.88799
2.21175
6.18684
2.97952
6.5538
3.76411
6.98848
4.56675
7.48651
5.38923
8.04196
6.23381
8.64837
7.10338
9.29876
7.9998
9.9869
8.92926
10.7026
9.89932
11.4376
10.8941
12.1899
12.0149
12.8552
13.1261
13.5241
14.2769
14.0519
15.4305
14.5153
16.6881
14.9332
17.7977
15.5049
18.958
15.9654
20.0826
16.5965
21.1356
17.2622
22.2186
17.942
23.2017
18.8166
24.174
19.6722
25.0415
20.6461
25.8807
21.7188
26.574
22.8316
24.115
27.1559
0.678165
4.97572
1.36762
5.19853
2.07225
5.48222
2.79213
5.83391
3.52782
6.25278
4.28087
6.73346
5.05354
7.26929
5.84882
7.85309
6.67008
8.4775
7.52284
9.13413
8.40885
9.81655
9.345
10.5014
10.3545
11.1804
11.386
11.8237
12.543
12.3671
13.7032
12.8917
14.8668
13.3518
16.0233
13.7767
17.2777
14.2504
18.3914
14.8517
19.6123
15.3756
20.7145
16.1599
21.7799
16.8766
22.8751
17.7214
23.8087
18.7386
24.766
19.6888
25.5565
20.9283
26.3213
22.0667
23.4906
26.9457
0.630857
4.34486
1.27244
4.55695
1.9293
4.82536
2.60033
5.16288
3.28601
5.5671
3.98835
6.03113
4.71032
6.54732
5.45558
7.10783
6.2294
7.70368
7.03631
8.32722
7.88792
8.96494
8.79415
9.59521
9.76627
10.2082
10.8354
10.7546
11.919
11.2835
13.0826
11.728
14.268
12.1664
15.44
12.6048
16.6268
13.0635
17.8521
13.6264
18.9752
14.2525
20.2104
14.9247
21.2852
15.8018
22.419
16.5876
23.4657
17.6919
24.3865
18.768
25.2915
20.0234
25.9685
21.3896
22.8047
26.6545
0.582425
3.76244
1.17578
3.96359
1.78488
4.21626
2.40674
4.54102
3.04195
4.93189
3.69329
5.3798
4.36462
5.87598
5.06101
6.41144
5.78774
6.97695
6.55573
7.55922
7.36869
8.15198
8.24793
8.71597
9.21292
9.24326
10.2167
9.75087
11.3297
10.1704
12.4572
10.6005
13.6518
10.9718
14.8273
11.4293
15.9936
11.8973
17.2087
12.4113
18.3957
13.0655
19.5795
13.741
20.7864
14.5949
21.8647
15.5093
22.9889
16.5677
23.994
17.7629
24.9131
19.1043
25.7023
20.6004
22.2238
26.2831
0.533188
3.22925
1.07899
3.41779
1.64118
3.65407
2.21403
3.96816
2.79891
4.34702
3.39974
4.77896
4.02197
5.25376
4.67095
5.76246
5.35643
6.29147
6.07952
6.83613
6.87713
7.35437
7.72587
7.86723
8.64658
8.32256
9.69408
8.70336
10.7228
9.14175
11.8824
9.44086
13.0012
9.85296
14.1989
10.2316
15.3453
10.7509
16.5447
11.2119
17.7434
11.8668
18.9483
12.5361
20.1453
13.3979
21.343
14.3117
22.4628
15.4478
23.5124
16.7133
24.4952
18.1215
25.3195
19.7761
21.5462
25.9972
0.483469
2.74578
0.983764
2.91749
1.50057
3.13726
2.02486
3.44388
2.56014
3.81173
3.11212
4.22699
3.68739
4.67848
4.2951
5.15475
4.93785
5.64872
5.64313
6.13085
6.39792
6.59958
7.2499
7.01524
8.16138
7.41108
9.13219
7.73256
10.21
8.06391
11.2842
8.36673
12.3925
8.74461
13.5126
9.11143
14.6829
9.5806
15.8306
10.0643
17.0486
10.6487
18.2394
11.3453
19.5048
12.1325
20.6601
13.1563
21.8984
14.2095
22.9967
15.615
24.0239
17.0944
24.9263
18.8737
20.8592
25.6132
0.433823
2.31196
0.892331
2.45899
1.36547
2.66413
1.84162
2.96773
2.32897
3.32438
2.83461
3.72135
3.36888
4.14422
3.93774
4.58588
4.55602
5.03043
5.23179
5.45508
5.9902
5.84118
6.7909
6.21454
7.72534
6.47663
8.66747
6.79042
9.64278
7.0886
10.735
7.27453
11.7508
7.7288
12.8522
8.01004
13.9664
8.46635
15.1037
8.92695
16.3071
9.44541
17.5085
10.1439
18.7668
10.8742
20.0228
11.9004
21.2066
13.0257
22.4292
14.3923
23.51
16.0136
24.4797
17.9039
20.0956
25.2434
0.385511
1.92644
0.80732
2.03718
1.2378
2.23365
1.66608
2.53945
2.10834
2.88212
2.57259
3.2571
3.07203
3.64478
3.61399
4.04392
4.20769
4.43674
4.88578
4.777
5.61258
5.11438
6.41828
5.40885
7.30565
5.58926
8.20189
5.89418
9.16636
6.12413
10.1066
6.33428
11.1505
6.6849
12.1506
7.00998
13.2639
7.35305
14.35
7.84083
15.5244
8.27098
16.7363
8.93199
17.9744
9.63615
19.2906
10.5841
20.5685
11.7479
21.8029
13.1578
22.977
14.8396
24.0143
16.8666
19.2723
24.8376
0.34108
1.58537
0.730905
1.64735
1.11819
1.84636
1.49876
2.15888
1.90127
2.47961
2.33154
2.82683
2.80438
3.17194
3.32817
3.52013
3.91894
3.84596
4.56995
4.12598
5.30009
4.38424
6.05882
4.65011
6.92076
4.72732
7.73023
5.08471
8.65969
5.19468
9.56111
5.43286
10.4974
5.74861
11.5059
6.00147
12.5022
6.35678
13.6346
6.70835
14.7139
7.19173
15.9309
7.71494
17.1402
8.42693
18.4445
9.27985
19.7975
10.3948
21.1385
11.8168
22.3962
13.5819
23.5365
15.7263
18.3723
24.4365
0.304285
1.28108
0.662267
1.28937
1.0048
1.50382
1.33864
1.82505
1.71181
2.10643
2.11496
2.42368
2.57643
2.71047
3.08472
3.01184
3.66178
3.26891
4.31695
3.47081
4.97477
3.72642
5.75117
3.87371
6.50518
3.97331
7.29254
4.29736
8.1388
4.34842
8.98954
4.58211
9.90231
4.83585
10.821
5.08278
11.8276
5.35014
12.8359
5.70007
13.9454
6.08223
15.055
6.60539
16.2991
7.18276
17.5531
8.02588
18.9401
9.00785
20.3571
10.3998
21.7766
12.1624
23.0263
14.4766
17.3349
24.0638
0.27763
1.00345
0.595794
0.971204
0.892284
1.20733
1.18628
1.53105
1.54598
1.74674
1.91976
2.0499
2.38517
2.24506
2.8779
2.5191
3.43762
2.70919
4.05852
2.84991
4.69003
3.09491
5.39057
3.17317
6.1257
3.23819
6.82131
3.60175
7.65214
3.51759
8.40439
3.82986
9.31022
3.93002
10.1502
4.2428
11.1101
4.39026
12.0763
4.7339
13.1174
5.04108
14.2155
5.50732
15.3876
6.01058
16.6549
6.75859
18.0339
7.62893
19.486
8.94766
21.065
10.5834
22.484
13.0576
16.0823
23.7366
0.256667
0.746783
0.522092
0.705779
0.777756
0.951669
1.04172
1.26709
1.38657
1.40188
1.75395
1.68252
2.2183
1.78072
2.66714
2.07026
3.23336
2.14297
3.77846
2.30481
4.40979
2.46358
5.03611
2.54685
5.71062
2.56368
6.39045
2.92192
7.12095
2.78709
7.87142
3.0794
8.69152
3.10992
9.50665
3.42767
10.4036
3.4933
11.3101
3.8274
12.3229
4.02832
13.3381
4.49214
14.5258
4.82288
15.6886
5.59572
17.1473
6.17026
18.5337
7.56128
20.3438
8.77334
21.8407
11.5607
14.512
23.4109
0.225788
0.520995
0.433884
0.497683
0.657152
0.728401
0.906919
1.01732
1.24734
1.06146
1.58982
1.34005
2.05291
1.31763
2.46561
1.65756
3.00901
1.59957
3.51202
1.8018
4.10609
1.86952
4.68095
1.97198
5.30399
1.94063
5.95593
2.26998
6.6344
2.10862
7.32464
2.38916
8.10228
2.33228
8.85411
2.67585
9.71642
2.63099
10.5446
2.99922
11.5421
3.03078
12.4907
3.54361
13.67
3.64352
14.8028
4.46293
16.2528
4.72025
17.7105
6.10359
19.5695
6.91435
21.337
9.79323
12.6535
23.1955
0.180355
0.34064
0.338979
0.339059
0.554844
0.512535
0.790119
0.782047
1.11099
0.740588
1.45745
0.993588
1.86631
0.908763
2.28891
1.23497
2.76597
1.12251
3.2453
1.32247
3.78517
1.32965
4.33814
1.41901
4.89435
1.38443
5.54805
1.61628
6.15411
1.50255
6.85095
1.69232
7.51878
1.66445
8.30753
1.8871
9.05543
1.88308
9.92422
2.13043
10.782
2.17303
11.7884
2.53717
12.8038
2.62816
14.0412
3.22546
15.3174
3.44408
16.9545
4.46652
18.7059
5.16288
21.0937
7.40551
10.2167
23.5304
0.1354
0.20524
0.271
0.203459
0.465144
0.318392
0.705931
0.54126
0.982135
0.464384
1.35729
0.618429
1.69176
0.574296
2.12892
0.797802
2.53588
0.71555
3.01356
0.844787
3.50237
0.840845
4.03798
0.883393
4.54474
0.877673
5.16279
0.998227
5.71248
0.952866
6.34852
1.05627
6.95444
1.05853
7.65886
1.18268
8.3445
1.19744
9.13158
1.34336
9.92118
1.38343
10.8517
1.60666
11.8009
1.67897
12.971
2.05532
14.2009
2.21416
15.7938
2.87369
17.6006
3.35609
20.3976
4.60843
7.07399
23.5403
0.108988
0.0962522
0.221579
0.0908679
0.385008
0.154963
0.65633
0.269938
0.902702
0.218012
1.23716
0.283975
1.54123
0.270223
1.95495
0.384076
2.33601
0.334497
2.78248
0.398313
3.23019
0.393132
3.69859
0.414997
4.16231
0.413955
4.68957
0.470962
5.19469
0.447753
5.74897
0.501986
6.30829
0.499207
6.92867
0.562306
7.56127
0.564839
8.26451
0.64012
8.99543
0.65251
9.83383
0.768264
10.7222
0.790556
11.7887
0.988845
12.9614
1.04146
14.4415
1.39365
16.1882
1.60939
19.011
1.78555
3.84474
22.2403
0.0962522
0.18712
0.342083
0.612021
0.830033
1.11401
1.38423
1.76831
2.1028
2.50112
2.89425
3.30925
3.7232
4.19416
4.64192
5.1439
5.64311
6.20542
6.77025
7.41037
8.06288
8.83115
9.6217
10.6105
11.652
13.0457
14.6551
16.4406
20.2853
0.985922
54.1297
0.996292
54.1299
1.00668
54.1299
1.01715
54.1298
1.02774
54.1296
1.0385
54.1295
1.04943
54.1293
1.06055
54.1291
1.07184
54.1289
1.0833
54.1288
1.09488
54.1287
1.10655
54.1286
1.11828
54.1285
1.13002
54.1285
1.14172
54.1285
1.15334
54.1286
1.16488
54.1287
1.17631
54.1288
1.18758
54.129
1.19866
54.1292
1.20949
54.1294
1.22004
54.1297
1.23027
54.13
1.24014
54.1304
1.24962
54.1308
1.25866
54.1312
1.26724
54.1317
1.27533
54.1321
1.2829
54.1327
1.28992
54.1332
1.29636
54.1338
1.3022
54.1344
1.30745
54.135
1.31207
54.1356
1.31599
54.1363
1.31918
54.137
1.32164
54.1378
1.32338
54.1385
1.32444
54.1392
1.32485
54.1398
1.32463
54.1405
1.32379
54.1411
1.32236
54.1417
1.32035
54.1422
1.31779
54.1428
1.31467
54.1433
1.31104
54.1439
1.30688
54.1444
1.30222
54.1449
1.29705
54.1454
1.29138
54.1459
1.28521
54.1464
1.27855
54.1469
1.27138
54.1474
1.26371
54.1479
1.25551
54.1484
1.24679
54.149
1.23752
54.1495
1.2277
54.1501
1.21728
54.1506
1.20627
54.1512
1.1947
54.1518
1.18257
54.1524
1.16992
54.1529
1.15677
54.1534
1.14314
54.1539
1.12905
54.1543
1.11452
54.1548
1.09957
54.1552
1.08421
54.1556
1.06846
54.156
1.05233
54.1564
1.03582
54.1567
1.01896
54.1571
1.00174
54.1574
0.984177
54.1578
0.966271
54.1581
0.948025
54.1585
0.92946
54.1588
0.91058
54.1591
0.891416
54.1594
0.871982
54.1597
0.852297
54.1599
0.832366
54.1602
0.812209
54.1604
0.791835
54.1606
0.771249
54.1608
0.750443
54.161
0.729637
54.161
0.708936
54.1609
0.688334
54.1608
0.667804
54.1608
0.64733
54.1607
0.626881
54.1607
0.606446
54.1607
0.586001
54.1607
0.565542
54.1607
0.545056
54.1607
0.524549
54.1607
0.504018
54.1608
0.483473
54.1608
0.462908
54.1608
0.442296
54.1608
0.421626
54.1609
0.400875
54.161
0.380028
54.1611
0.359073
54.1612
0.33802
54.1613
0.316883
54.1614
0.29568
54.1614
0.274369
54.1615
0.253209
54.1614
0.232611
54.1608
0.212828
54.16
0.193942
54.1591
0.176004
54.1582
0.159027
54.1572
0.142941
54.1563
0.127049
54.1561
0.110934