/*--------------------------------*- C++ -*----------------------------------*\
| =========                 |                                                 |
| \\      /  F ield         | OpenFOAM: The Open Source CFD Toolbox           |
|  \\    /   O peration     | Version:  5.x                                   |
|   \\  /    A nd           | Web:      www.OpenFOAM.org                      |
|    \\/     M anipulation  |                                                 |
\*---------------------------------------------------------------------------*/
/*   Windows 32 and 64 bit porting by blueCAPE: http://www.bluecape.com.pt   *\
|  Based on Windows porting (2.0.x v4) by Symscape: http://www.symscape.com   |
\*---------------------------------------------------------------------------*/
FoamFile
{
    version     2.0;
    format      ascii;
    class       volVectorField;
    location    "130";
    object      U;
}
// * * * * * * * * * * * * * * * * * * * * * * * * * * * * * * * * * * * * * //

dimensions      [0 1 -1 0 0 0 0];

internalField   nonuniform List<vector> 
43900
(
(1.16113 -0.000549426 -1.99646e-027)
(1.16745 0.0019934 -5.35073e-027)
(1.16977 0.000429115 1.68825e-030)
(1.16877 0.00176807 2.66454e-030)
(1.16998 0.000886966 3.76201e-030)
(1.17015 0.00175381 3.70769e-030)
(1.17031 0.00132593 7.14521e-027)
(1.16996 0.00160252 -1.42747e-026)
(1.16998 0.00169313 9.49467e-030)
(1.16981 0.00155892 -1.42428e-026)
(1.16984 0.00177571 1.42645e-026)
(1.16989 0.0017286 1.12698e-029)
(1.16995 0.00177746 -1.42088e-026)
(1.16999 0.00181586 2.41479e-029)
(1.17003 0.00184793 2.47344e-029)
(1.17006 0.00187918 2.52892e-029)
(1.17009 0.00190938 -2.83167e-026)
(1.17011 0.00193805 5.25647e-029)
(1.17012 0.00196496 2.83429e-026)
(1.17013 0.00198923 2.71451e-029)
(1.17014 0.00201298 2.75331e-029)
(1.17015 0.00203556 2.78974e-029)
(1.17015 0.00205673 2.82433e-029)
(1.17016 0.00207708 2.85735e-029)
(1.17016 0.00209663 2.88878e-029)
(1.17017 0.00211576 -2.80628e-026)
(1.17017 0.00213392 5.89495e-029)
(1.17017 0.002152 5.95004e-029)
(1.17017 0.0021698 1.1207e-025)
(1.15894 0.0106345 0)
(1.16574 -0.00439727 0)
(1.17073 0.00837937 0)
(1.16636 0.000166249 0)
(1.16849 0.00578403 0)
(1.16772 0.00301617 0)
(1.16824 0.00464953 0)
(1.16908 0.00483211 0)
(1.16895 0.00459691 0)
(1.16959 0.00535353 0)
(1.1696 0.00538042 0)
(1.16958 0.00555623 0)
(1.16955 0.00581992 0)
(1.16952 0.00597507 0)
(1.1695 0.00612297 0)
(1.16949 0.00626052 0)
(1.16949 0.0063852 0)
(1.16949 0.00649972 0)
(1.16952 0.00660582 0)
(1.16955 0.0067042 0)
(1.16958 0.00679717 0)
(1.16959 0.00688404 0)
(1.16961 0.00696799 0)
(1.16962 0.00704857 0)
(1.16963 0.007126 0)
(1.16965 0.00719973 0)
(1.16966 0.00727145 0)
(1.16967 0.00734005 0)
(1.16968 0.00740675 0)
(1.10468 0.0313099 0)
(1.1468 -0.0173013 0)
(1.16328 0.0277992 0)
(1.16349 -0.00417253 0)
(1.16601 0.0196984 0)
(1.1644 0.00329763 0)
(1.16543 0.0139185 0)
(1.16509 0.00756922 0)
(1.1659 0.0108663 0)
(1.16588 0.00978331 0)
(1.1661 0.0099213 0)
(1.16634 0.0102704 0)
(1.16656 0.0103422 0)
(1.16677 0.0104389 0)
(1.16695 0.0105582 0)
(1.1671 0.010676 0)
(1.16723 0.010793 0)
(1.16735 0.010908 0)
(1.16741 0.0110247 0)
(1.16746 0.0111404 0)
(1.1675 0.0112531 0)
(1.16753 0.0113633 0)
(1.16756 0.0114705 0)
(1.16759 0.011575 0)
(1.16762 0.0116773 0)
(1.16765 0.0117774 0)
(1.16768 0.0118735 0)
(1.1677 0.0119659 0)
(1.16773 0.0120567 1.96821e-027)
(1.04499 0.0201009 0)
(1.0918 -0.00721751 0)
(1.13489 0.0201977 0)
(1.15868 0.00677733 0)
(1.16411 0.0214409 0)
(1.16558 0.00902223 0)
(1.16513 0.0193394 0)
(1.1645 0.0118761 0)
(1.16464 0.0164219 0)
(1.16465 0.013891 0)
(1.16495 0.0147843 0)
(1.16523 0.0146249 0)
(1.16543 0.0145256 0)
(1.16556 0.0145374 0)
(1.16567 0.0145689 0)
(1.16576 0.0146125 0)
(1.16584 0.0146735 0)
(1.1659 0.0147506 0)
(1.16598 0.0148357 0)
(1.16607 0.0149278 0)
(1.16615 0.0150234 0)
(1.16623 0.0151236 0)
(1.16631 0.0152262 0)
(1.16639 0.0153306 0)
(1.16647 0.0154344 0)
(1.16654 0.0155411 0)
(1.16661 0.0156499 0)
(1.16668 0.0157583 0)
(1.16675 0.0158627 2.08546e-027)
(1.00864 0.010206 4.19822e-027)
(1.04517 -0.00119584 0)
(1.08309 0.0108136 0)
(1.12229 0.0122173 0)
(1.15057 0.0178587 0)
(1.16296 0.0157643 0)
(1.1648 0.0212138 0)
(1.16555 0.0165444 0)
(1.16573 0.02014 0)
(1.1657 0.0181196 0)
(1.1656 0.0191303 0)
(1.16548 0.0189732 0)
(1.16547 0.0190014 0)
(1.16552 0.0190779 0)
(1.16559 0.0191372 0)
(1.16566 0.0192019 0)
(1.16575 0.0192695 0)
(1.16584 0.0193384 0)
(1.16595 0.0194109 0)
(1.16606 0.0194912 0)
(1.16617 0.0195766 0)
(1.16627 0.0196686 0)
(1.16637 0.0197675 0)
(1.16647 0.0198724 0)
(1.16656 0.0199809 0)
(1.16666 0.0200899 0)
(1.16674 0.0202021 0)
(1.16683 0.0203188 0)
(1.16691 0.0204392 -8.79969e-027)
(0.98259 0.00673064 -4.38218e-027)
(1.01343 0.000547445 0)
(1.04574 0.00747064 0)
(1.0793 0.0107411 0)
(1.11294 0.0145353 0)
(1.14308 0.0173051 0)
(1.15916 0.0211569 0)
(1.16403 0.0201622 0)
(1.1643 0.0221093 0)
(1.16426 0.0212438 0)
(1.16422 0.0220875 0)
(1.16415 0.0222184 0)
(1.16412 0.0223914 0)
(1.16412 0.0225919 0)
(1.16413 0.022801 0)
(1.16416 0.0230075 0)
(1.16419 0.0232063 0)
(1.16425 0.0233994 0)
(1.1643 0.0235911 0)
(1.16435 0.0237833 0)
(1.1644 0.0239741 0)
(1.16446 0.0241643 0)
(1.16452 0.0243542 0)
(1.16459 0.0245443 0)
(1.16466 0.0247374 0)
(1.16473 0.0249288 0)
(1.1648 0.0251181 0)
(1.16488 0.0253086 0)
(1.16496 0.025503 4.65209e-027)
(0.959768 0.00512956 0)
(0.987127 0.0012372 0)
(1.01586 0.00618507 0)
(1.04577 0.00922567 0)
(1.07615 0.0124137 0)
(1.10605 0.0158435 0)
(1.13463 0.0194593 0)
(1.15417 0.0215211 0)
(1.16072 0.0236442 0)
(1.16103 0.0232277 0)
(1.16081 0.0238198 0)
(1.161 0.0241102 0)
(1.16103 0.0243565 0)
(1.16102 0.024657 0)
(1.161 0.024971 0)
(1.16097 0.0252762 0)
(1.16095 0.0255795 0)
(1.16093 0.0258848 0)
(1.1609 0.0261923 0)
(1.16087 0.0265002 0)
(1.16085 0.0268079 0)
(1.16085 0.027116 0)
(1.16085 0.0274228 0)
(1.16087 0.027728 0)
(1.16089 0.028035 0)
(1.16093 0.0283422 0)
(1.16098 0.0286471 0)
(1.16103 0.0289488 0)
(1.16109 0.0292504 0)
(0.940522 0.00406444 0)
(0.965567 0.0015568 0)
(0.991848 0.00533501 0)
(1.01919 0.00802086 0)
(1.04715 0.0107206 0)
(1.07518 0.0136574 0)
(1.10266 0.016805 0)
(1.12863 0.019818 0)
(1.1493 0.0226378 0)
(1.15715 0.0236132 0)
(1.15791 0.0242672 0)
(1.15777 0.0246601 0)
(1.15774 0.0250203 0)
(1.1577 0.0254553 0)
(1.15766 0.0258998 0)
(1.15761 0.0263379 0)
(1.15756 0.026778 0)
(1.15752 0.0272233 0)
(1.15747 0.0276685 0)
(1.15744 0.0281124 0)
(1.15741 0.0285564 0)
(1.15739 0.0289973 0)
(1.15739 0.0294369 0)
(1.1574 0.0298743 0)
(1.15741 0.0303062 0)
(1.15744 0.0307393 0)
(1.15747 0.0311692 0)
(1.15752 0.0315923 0)
(1.15758 0.0320081 0)
(0.923808 0.00292494 0)
(0.947339 0.0020011 0)
(0.972058 0.00486098 0)
(0.997796 0.00729365 0)
(1.02421 0.00969988 0)
(1.0509 0.0122353 0)
(1.07736 0.0149203 0)
(1.10297 0.017696 0)
(1.12661 0.0204274 0)
(1.14664 0.0227314 0)
(1.15396 0.0241119 0)
(1.15462 0.0246218 0)
(1.15457 0.0251082 0)
(1.15452 0.025688 0)
(1.15446 0.0262825 0)
(1.15442 0.0268785 0)
(1.15438 0.027484 0)
(1.15434 0.0280925 0)
(1.15433 0.0287032 0)
(1.15433 0.0293149 0)
(1.15434 0.0299219 0)
(1.15438 0.0305297 0)
(1.15442 0.0311339 0)
(1.15449 0.0317303 0)
(1.15456 0.0323268 0)
(1.15464 0.0329133 0)
(1.15476 0.0334954 0)
(1.15487 0.0340788 0)
(1.155 0.0346427 0)
(0.908183 0.00226156 0)
(0.930739 0.0023054 0)
(0.954476 0.0047313 0)
(0.979189 0.00701232 0)
(1.0046 0.00926495 0)
(1.03038 0.0115945 0)
(1.05613 0.0140249 0)
(1.0814 0.0165285 0)
(1.10552 0.0190513 0)
(1.12746 0.0214862 0)
(1.14476 0.0236131 0)
(1.14943 0.0248129 0)
(1.14946 0.0254207 0)
(1.14933 0.0261498 0)
(1.14927 0.0269082 0)
(1.1492 0.0276771 0)
(1.14916 0.0284441 0)
(1.14917 0.02922 0)
(1.14916 0.0299953 0)
(1.14923 0.0307597 0)
(1.14929 0.0315377 0)
(1.14935 0.0323027 0)
(1.1495 0.0330588 0)
(1.14959 0.0338317 0)
(1.14972 0.0345739 0)
(1.14992 0.0353229 0)
(1.15005 0.0360717 0)
(1.15024 0.036796 0)
(1.15048 0.0375353 -1.21074e-026)
(0.893589 0.0020011 0)
(0.915381 0.0023704 0)
(0.938393 0.00460526 0)
(0.962394 0.00676207 0)
(0.987113 0.00888261 0)
(1.01226 0.0110495 0)
(1.0375 0.0132861 0)
(1.06243 0.0155756 0)
(1.08653 0.0178868 0)
(1.10906 0.0201611 0)
(1.12882 0.0223829 0)
(1.1397 0.024219 0)
(1.14112 0.0253158 0)
(1.14107 0.026291 0)
(1.14089 0.0273304 0)
(1.14087 0.0283687 0)
(1.14084 0.0294167 0)
(1.14077 0.030443 0)
(1.14091 0.031452 0)
(1.14091 0.0324775 0)
(1.141 0.0334645 0)
(1.14123 0.0344462 0)
(1.14127 0.0354525 0)
(1.1415 0.0363863 0)
(1.14177 0.0373657 0)
(1.14187 0.0383188 0)
(1.1422 0.0392263 0)
(1.14249 0.0401785 0)
(1.14268 0.0410824 1.27885e-026)
(0.880195 0.00162088 0)
(0.901451 0.00246296 0)
(0.923922 0.00451302 0)
(0.947427 0.00656147 0)
(0.97171 0.00859273 0)
(0.996462 0.0106552 0)
(1.02136 0.0127648 0)
(1.04606 0.0149099 0)
(1.07008 0.0170683 0)
(1.09282 0.0192017 0)
(1.11336 0.0213121 0)
(1.12778 0.023353 0)
(1.13131 0.0249464 0)
(1.13126 0.0262282 0)
(1.1314 0.0275721 0)
(1.13129 0.0289499 0)
(1.13127 0.030285 0)
(1.13157 0.0315977 0)
(1.13142 0.032935 0)
(1.13171 0.0341843 0)
(1.13199 0.0354572 0)
(1.1319 0.0367452 0)
(1.13242 0.0378939 0)
(1.13264 0.0391765 0)
(1.13271 0.040343 0)
(1.13334 0.0414717 0)
(1.13354 0.042697 0)
(1.13378 0.0437632 0)
(1.13444 0.0448868 1.39684e-026)
(0.867581 0.00137027 0)
(0.888419 0.00263683 0)
(0.910475 0.00464282 0)
(0.933558 0.00667837 0)
(0.957462 0.00871736 0)
(0.981931 0.0107905 0)
(1.00663 0.0129039 0)
(1.03119 0.0150447 0)
(1.05519 0.0171944 0)
(1.07808 0.0193206 0)
(1.09901 0.021405 0)
(1.11533 0.0235618 0)
(1.12032 0.0254455 0)
(1.12119 0.0269793 0)
(1.12094 0.0285809 0)
(1.12128 0.0301861 0)
(1.12174 0.0317624 0)
(1.12142 0.0333953 0)
(1.12224 0.0348668 0)
(1.12238 0.0364259 0)
(1.12235 0.0379834 0)
(1.12338 0.0393072 0)
(1.12331 0.0409342 0)
(1.12363 0.0422581 0)
(1.12465 0.0436338 0)
(1.12457 0.0451447 0)
(1.12518 0.0463433 0)
(1.12611 0.0477567 0)
(1.12614 0.0490611 -1.47596e-026)
(0.854968 0.00127497 0)
(0.875459 0.00289433 0)
(0.897197 0.00500177 0)
(0.919977 0.00714229 0)
(0.943571 0.00929228 0)
(0.967735 0.011473 0)
(0.992208 0.0136938 0)
(1.01666 0.0159472 0)
(1.04064 0.018213 0)
(1.06362 0.0204596 0)
(1.08479 0.0226495 0)
(1.10199 0.0249287 0)
(1.10899 0.0270767 0)
(1.10901 0.028848 0)
(1.11009 0.0306453 0)
(1.11032 0.0324279 0)
(1.11004 0.0343757 0)
(1.11158 0.035983 0)
(1.11123 0.0378612 0)
(1.1117 0.0396548 0)
(1.11314 0.0411053 0)
(1.11261 0.0431512 0)
(1.11364 0.0445383 0)
(1.11478 0.0462044 0)
(1.1144 0.0480177 0)
(1.11575 0.0492789 0)
(1.11667 0.0510658 0)
(1.11657 0.0525133 0)
(1.11805 0.053935 -1.61574e-026)
(0.841922 0.00128945 0)
(0.862098 0.00320916 0)
(0.883548 0.00550645 0)
(0.906071 0.00783357 0)
(0.929438 0.0101721 0)
(0.953391 0.012536 0)
(0.977649 0.0149298 0)
(1.00191 0.0173508 0)
(1.02583 0.0197886 0)
(1.04888 0.0222126 0)
(1.07031 0.0245737 0)
(1.08848 0.0270669 0)
(1.09488 0.0295223 0)
(1.0974 0.0314778 0)
(1.09697 0.0334217 0)
(1.09731 0.035733 0)
(1.09926 0.0374119 0)
(1.09831 0.0397482 0)
(1.09965 0.0416952 0)
(1.10094 0.0432985 0)
(1.10024 0.045865 0)
(1.10206 0.0471475 0)
(1.10293 0.0492465 0)
(1.10264 0.0513457 0)
(1.10464 0.0525491 0)
(1.10527 0.0548578 0)
(1.10543 0.0563345 0)
(1.10745 0.0579683 0)
(1.10793 0.0598157 1.70824e-026)
(0.828261 0.00138104 0)
(0.848138 0.00358045 0)
(0.869318 0.00612692 0)
(0.891605 0.00870046 0)
(0.914772 0.0112858 0)
(0.938567 0.0138946 0)
(0.962706 0.0165285 0)
(0.986871 0.0191818 0)
(1.0107 0.021844 0)
(1.03373 0.0244912 0)
(1.05517 0.0270699 0)
(1.07305 0.0298163 0)
(1.0826 0.0324379 0)
(1.08256 0.034624 0)
(1.08384 0.0372457 0)
(1.08547 0.0389796 0)
(1.08429 0.041945 0)
(1.08634 0.0438212 0)
(1.08739 0.0458252 0)
(1.08691 0.0488565 0)
(1.08922 0.0500477 0)
(1.08988 0.0527079 0)
(1.08988 0.0549599 0)
(1.09226 0.0562387 0)
(1.09276 0.059171 0)
(1.09329 0.0605226 0)
(1.09552 0.0625576 0)
(1.09608 0.0646831 0)
(1.097 0.0662137 0)
(0.813814 0.00153559 0)
(0.833392 0.00402301 0)
(0.854307 0.00687734 0)
(0.876367 0.00975816 0)
(0.899345 0.0126496 0)
(0.92299 0.0155635 0)
(0.947017 0.0184995 0)
(0.971111 0.0214477 0)
(0.994902 0.0243927 0)
(1.01795 0.0273092 0)
(1.03969 0.0301443 0)
(1.05921 0.0330523 0)
(1.06641 0.0362366 0)
(1.06901 0.0389334 0)
(1.07039 0.040769 0)
(1.06966 0.0443519 0)
(1.07234 0.046292 0)
(1.07305 0.0487117 0)
(1.07274 0.0520949 0)
(1.07527 0.0533217 0)
(1.07617 0.0566176 0)
(1.07632 0.0589011 0)
(1.07889 0.0605473 0)
(1.07961 0.063969 0)
(1.08029 0.065238 0)
(1.08259 0.0678019 0)
(1.08368 0.0701117 0)
(1.08457 0.0718357 0)
(1.08693 0.074259 0)
(0.798428 0.00173773 0)
(0.817695 0.00453795 0)
(0.838343 0.00775627 0)
(0.860179 0.0110026 0)
(0.882982 0.0142582 0)
(0.906505 0.0175358 0)
(0.930473 0.0208357 0)
(0.954583 0.0241485 0)
(0.978478 0.027459 0)
(1.0017 0.0307377 0)
(1.02346 0.0339207 0)
(1.04162 0.0373554 0)
(1.05162 0.0408267 0)
(1.05494 0.0429357 0)
(1.05437 0.0469965 0)
(1.05666 0.0488877 0)
(1.0575 0.0519845 0)
(1.05762 0.0554574 0)
(1.06045 0.0570402 0)
(1.06165 0.0609033 0)
(1.06163 0.0632677 0)
(1.06422 0.0653237 0)
(1.06561 0.068901 0)
(1.06639 0.0704693 0)
(1.06885 0.0734761 0)
(1.07054 0.0758575 0)
(1.07105 0.0780272 0)
(1.07384 0.0805843 0)
(1.0754 0.0824368 0)
(0.781989 0.0019846 4.91093e-026)
(0.800929 0.005134 0)
(0.821296 0.00877654 0)
(0.842899 0.0124512 0)
(0.865519 0.0161351 0)
(0.888903 0.0198437 0)
(0.912773 0.0235775 0)
(0.936809 0.0273245 0)
(0.960633 0.0310646 0)
(0.983776 0.0347627 0)
(1.00565 0.0383527 0)
(1.02576 0.0420345 0)
(1.03702 0.0453395 0)
(1.03694 0.0497047 0)
(1.03928 0.051649 0)
(1.04152 0.0555261 0)
(1.04181 0.0589707 0)
(1.04397 0.06132 0)
(1.04556 0.0652119 0)
(1.0456 0.0680046 0)
(1.04869 0.0705448 0)
(1.0511 0.0740964 0)
(1.05137 0.0765431 0)
(1.05373 0.0796564 0)
(1.05614 0.0822399 0)
(1.05653 0.0850167 0)
(1.0599 0.0874078 0)
(1.06241 0.0900274 0)
(1.06297 0.0929003 0)
(0.764395 0.00226227 1.72676e-027)
(0.782984 0.00579802 0)
(0.803049 0.00991457 0)
(0.824402 0.0140667 0)
(0.846825 0.0182256 0)
(0.870072 0.0224081 0)
(0.893877 0.0266134 0)
(0.917947 0.0308263 0)
(0.941957 0.0350234 0)
(0.965524 0.039162 0)
(0.988084 0.043153 0)
(1.00821 0.0472795 0)
(1.0164 0.0522819 0)
(1.02127 0.0548764 0)
(1.02487 0.058802 0)
(1.02389 0.0625521 0)
(1.0255 0.0661187 0)
(1.02878 0.0692942 0)
(1.02911 0.0732551 0)
(1.032 0.0761611 0)
(1.03493 0.0795929 0)
(1.03432 0.0833442 0)
(1.03691 0.0858856 0)
(1.04101 0.0891137 0)
(1.04153 0.0926275 0)
(1.04475 0.0946968 0)
(1.04771 0.0983927 0)
(1.04781 0.101139 0)
(1.05147 0.103059 0)
(0.745641 0.00257342 -5.68959e-026)
(0.76386 0.00653668 0)
(0.783613 0.0111817 0)
(0.804715 0.0158673 0)
(0.826951 0.0205596 0)
(0.85008 0.0252797 0)
(0.873834 0.0300296 0)
(0.897908 0.0347964 0)
(0.921937 0.0395596 0)
(0.945435 0.0442812 0)
(0.967634 0.0488906 0)
(0.986965 0.0538769 0)
(1.00087 0.057929 0)
(1.00624 0.0618602 0)
(1.00414 0.0666006 0)
(1.00595 0.0705976 0)
(1.01146 0.0733443 0)
(1.01138 0.078922 0)
(1.0129 0.0816496 0)
(1.01694 0.0852868 0)
(1.01657 0.0905344 0)
(1.02001 0.0920863 0)
(1.02507 0.0963892 0)
(1.02496 0.100763 0)
(1.02735 0.102171 0)
(1.0313 0.10718 0)
(1.03213 0.109834 0)
(1.03684 0.111926 0)
(1.0404 0.116316 0)
(0.725663 0.00292106 0)
(0.743483 0.00735697 0)
(0.762894 0.0125896 0)
(0.783711 0.0178687 0)
(0.80572 0.0231549 0)
(0.828675 0.0284723 0)
(0.852307 0.0338217 0)
(0.876315 0.0391842 0)
(0.900357 0.0445292 0)
(0.92405 0.0497969 0)
(0.947007 0.0548408 0)
(0.969292 0.0598185 0)
(0.982889 0.0651494 0)
(0.982532 0.0707048 0)
(0.986173 0.0745104 0)
(0.992587 0.0775772 0)
(0.991883 0.084568 0)
(0.992261 0.0871073 0)
(0.997908 0.0912484 0)
(0.998295 0.0976679 0)
(1.00238 0.098517 0)
(1.0066 0.10428 0)
(1.00615 0.109154 0)
(1.00935 0.110059 0)
(1.01432 0.116655 0)
(1.01605 0.119129 0)
(1.0209 0.12131 0)
(1.02291 0.12687 0)
(1.02502 0.12862 0)
(0.704456 0.00329401 -7.05303e-026)
(0.721855 0.00824191 0)
(0.740906 0.0141083 0)
(0.761433 0.020025 0)
(0.783224 0.0259457 0)
(0.806046 0.0318969 0)
(0.829645 0.0378782 0)
(0.853748 0.0438676 0)
(0.878055 0.0498335 0)
(0.902219 0.0557319 0)
(0.925712 0.0614975 0)
(0.947146 0.0673767 0)
(0.957278 0.0742851 0)
(0.965947 0.0782913 0)
(0.972069 0.0821705 0)
(0.96991 0.0900936 0)
(0.971221 0.0922037 0)
(0.977589 0.0978165 0)
(0.978715 0.104252 0)
(0.983218 0.10539 0)
(0.985157 0.11267 0)
(0.986344 0.117077 0)
(0.992452 0.118693 0)
(0.995374 0.12656 0)
(0.998015 0.12787 0)
(1.003 0.131364 0)
(1.00456 0.137665 0)
(1.00965 0.139358 0)
(1.01397 0.143252 6.47606e-026)
(0.682068 0.00370092 -2.48564e-027)
(0.699021 0.00920557 0)
(0.717696 0.0157638 0)
(0.737917 0.0223797 0)
(0.759476 0.0290027 0)
(0.78214 0.0356663 0)
(0.805651 0.0423749 0)
(0.829714 0.0491114 0)
(0.853977 0.0558496 0)
(0.877977 0.0625352 0)
(0.901012 0.0690145 0)
(0.921956 0.0759953 0)
(0.941003 0.0813582 0)
(0.94835 0.0871324 0)
(0.946055 0.0947604 0)
(0.950445 0.0966868 0)
(0.955189 0.10529 0)
(0.957575 0.109638 0)
(0.961863 0.112503 0)
(0.962129 0.121745 0)
(0.96695 0.124129 0)
(0.973175 0.128437 0)
(0.974134 0.135694 0)
(0.979321 0.136672 0)
(0.984232 0.143608 0)
(0.985351 0.147942 0)
(0.991053 0.150589 0)
(0.995314 0.155296 0)
(0.999057 0.159337 1.29275e-027)
(0.658475 0.00413977 8.18931e-026)
(0.674954 0.0102437 0)
(0.693219 0.0175463 0)
(0.713096 0.0249131 0)
(0.734379 0.0322881 0)
(0.756835 0.0397078 0)
(0.780207 0.0471726 0)
(0.804217 0.0546531 0)
(0.828563 0.0621068 0)
(0.852955 0.069472 0)
(0.877235 0.0766386 0)
(0.902293 0.0831 0)
(0.917528 0.0918917 0)
(0.920481 0.0978573 0)
(0.929246 0.102407 0)
(0.93007 0.112022 0)
(0.935327 0.114297 0)
(0.938756 0.120734 0)
(0.939096 0.129801 0)
(0.945875 0.130925 0)
(0.950419 0.138919 0)
(0.952454 0.143625 0)
(0.960079 0.147223 0)
(0.961827 0.155914 0)
(0.964975 0.157476 0)
(0.972193 0.163163 0)
(0.976379 0.167696 0)
(0.981374 0.171265 0)
(0.987221 0.176552 -7.406e-026)
(0.633777 0.00459233 0)
(0.649761 0.0113291 0)
(0.667603 0.0194108 0)
(0.687134 0.0275617 0)
(0.708157 0.035721 0)
(0.730452 0.0439297 0)
(0.753783 0.0521898 0)
(0.777895 0.0604739 0)
(0.802504 0.0687423 0)
(0.827254 0.0769333 0)
(0.851526 0.0848933 0)
(0.873628 0.0936529 0)
(0.891014 0.10062 0)
(0.903606 0.108837 0)
(0.904554 0.116737 0)
(0.91146 0.119355 0)
(0.913513 0.12917 0)
(0.914679 0.135827 0)
(0.92364 0.138522 0)
(0.926194 0.14943 0)
(0.930622 0.151617 0)
(0.936139 0.158845 0)
(0.938142 0.165784 0)
(0.945275 0.167765 0)
(0.952299 0.176537 0)
(0.955186 0.179575 0)
(0.962104 0.184082 0)
(0.966558 0.190597 0)
(0.970595 0.192242 0)
(0.608054 0.00507526 0)
(0.62352 0.0124841 0)
(0.640913 0.0213939 0)
(0.660065 0.0303818 0)
(0.680782 0.0393844 0)
(0.702844 0.0484505 0)
(0.726004 0.0575849 0)
(0.749992 0.0667598 0)
(0.774496 0.0759399 0)
(0.799173 0.0850741 0)
(0.823733 0.094057 0)
(0.848946 0.10238 0)
(0.868979 0.112916 0)
(0.875438 0.120026 0)
(0.886117 0.124359 0)
(0.88741 0.137112 0)
(0.890717 0.140751 0)
(0.89875 0.147702 0)
(0.899582 0.158146 0)
(0.906316 0.159817 0)
(0.911208 0.1698 0)
(0.914968 0.174938 0)
(0.924537 0.18035 0)
(0.928232 0.188579 0)
(0.932179 0.19169 0)
(0.941187 0.198442 0)
(0.943727 0.203602 0)
(0.951282 0.207494 0)
(0.960491 0.214529 8.74398e-026)
(0.581381 0.00556786 0)
(0.59631 0.0136799 0)
(0.61323 0.0234478 0)
(0.631982 0.0333016 0)
(0.652377 0.0431763 0)
(0.674207 0.0531268 0)
(0.697244 0.0631571 0)
(0.721243 0.0732349 0)
(0.745936 0.0833139 0)
(0.771023 0.0933225 0)
(0.796071 0.103068 0)
(0.820181 0.113233 0)
(0.840294 0.122346 0)
(0.857876 0.130016 0)
(0.858419 0.142887 0)
(0.864834 0.145856 0)
(0.868955 0.156615 0)
(0.872225 0.164378 0)
(0.883215 0.167875 0)
(0.886376 0.181312 0)
(0.890517 0.184199 0)
(0.896944 0.192397 0)
(0.900436 0.199317 0)
(0.911397 0.204133 0)
(0.918548 0.212773 0)
(0.921959 0.216699 0)
(0.931154 0.223687 0)
(0.936135 0.228538 0)
(0.94244 0.23228 1.27986e-027)
(0.553903 0.00606687 0)
(0.568275 0.0149059 0)
(0.584701 0.0255509 0)
(0.603023 0.0362897 0)
(0.62306 0.0470574 0)
(0.644608 0.0579153 0)
(0.66744 0.0688684 0)
(0.691306 0.0798816 0)
(0.715927 0.0909093 0)
(0.740996 0.101892 0)
(0.766223 0.112718 0)
(0.792166 0.122878 0)
(0.817156 0.134216 0)
(0.824248 0.145769 0)
(0.837597 0.150529 0)
(0.840072 0.164833 0)
(0.847412 0.169467 0)
(0.855393 0.177911 0)
(0.855616 0.189889 0)
(0.863813 0.192308 0)
(0.869687 0.205387 0)
(0.877825 0.20942 0)
(0.887435 0.217808 0)
(0.889112 0.225588 0)
(0.897564 0.229161 0)
(0.907822 0.240195 0)
(0.912522 0.243279 0)
(0.922822 0.24869 0)
(0.929393 0.256355 -2.00679e-025)
(0.525769 0.0065633 0)
(0.539572 0.0161488 0)
(0.555486 0.0276817 0)
(0.573361 0.0393162 0)
(0.593025 0.0509893 0)
(0.614286 0.0627688 0)
(0.636934 0.0746599 0)
(0.660742 0.0866265 0)
(0.685479 0.0986201 0)
(0.710912 0.110569 0)
(0.736763 0.122292 0)
(0.762523 0.134486 0)
(0.784333 0.145816 0)
(0.805282 0.156569 0)
(0.807652 0.169979 0)
(0.819401 0.17383 0)
(0.822323 0.187223 0)
(0.82627 0.195221 0)
(0.839563 0.202888 0)
(0.840867 0.216803 0)
(0.850345 0.218357 0)
(0.855934 0.230835 0)
(0.862491 0.236551 0)
(0.875174 0.244837 0)
(0.880622 0.254859 0)
(0.887514 0.256834 0)
(0.899707 0.266479 0)
(0.905266 0.272604 0)
(0.916483 0.276486 -1.12019e-027)
(0.497133 0.00705388 0)
(0.510357 0.0174021 0)
(0.525741 0.029828 0)
(0.543142 0.0423657 0)
(0.562398 0.0549584 0)
(0.583325 0.0676826 0)
(0.605715 0.0805471 0)
(0.629339 0.0935182 0)
(0.653937 0.106558 0)
(0.679206 0.119619 0)
(0.704823 0.132596 0)
(0.731226 0.144906 0)
(0.757749 0.159259 0)
(0.770211 0.170595 0)
(0.788476 0.177952 0)
(0.789259 0.195316 0)
(0.801301 0.200242 0)
(0.805595 0.213976 0)
(0.809162 0.221955 0)
(0.822538 0.227823 0)
(0.827041 0.245684 0)
(0.837797 0.246969 0)
(0.844576 0.259264 0)
(0.849495 0.265501 0)
(0.862598 0.273022 0)
(0.873406 0.285082 0)
(0.880481 0.286952 0)
(0.892334 0.296662 0)
(0.898968 0.300729 1.14908e-025)
(0.468162 0.00752385 0)
(0.480798 0.0186416 0)
(0.495635 0.0319469 0)
(0.512534 0.0453732 0)
(0.531346 0.0588717 0)
(0.551895 0.0725256 0)
(0.573985 0.0863439 0)
(0.597403 0.10029 0)
(0.621929 0.114314 0)
(0.647344 0.128345 0)
(0.673427 0.142198 0)
(0.699825 0.156324 0)
(0.725139 0.16906 0)
(0.750732 0.183162 0)
(0.755187 0.19862 0)
(0.769284 0.204698 0)
(0.769131 0.219318 0)
(0.781186 0.226306 0)
(0.792186 0.24281 0)
(0.794656 0.251858 0)
(0.806881 0.256273 0)
(0.812807 0.274254 0)
(0.823088 0.277247 0)
(0.835672 0.29117 0)
(0.839908 0.297258 0)
(0.853215 0.301811 0)
(0.867344 0.316469 0)
(0.87462 0.31834 0)
(0.888151 0.328145 1.23697e-025)
(0.439043 0.00796565 0)
(0.451091 0.0198529 0)
(0.46537 0.0340121 0)
(0.481751 0.0483013 0)
(0.500096 0.0626824 0)
(0.52024 0.0772449 0)
(0.541997 0.0919991 0)
(0.565164 0.10691 0)
(0.58952 0.121935 0)
(0.614822 0.13703 0)
(0.640822 0.152128 0)
(0.66794 0.166537 0)
(0.695902 0.183527 0)
(0.712343 0.197036 0)
(0.734674 0.207005 0)
(0.736343 0.227032 0)
(0.75088 0.232747 0)
(0.75312 0.249552 0)
(0.761888 0.255623 0)
(0.777638 0.27017 0)
(0.780252 0.285354 0)
(0.7933 0.288172 0)
(0.799904 0.304437 0)
(0.811459 0.308981 0)
(0.829595 0.322882 0)
(0.83286 0.330414 0)
(0.844694 0.335182 0)
(0.86221 0.349177 0)
(0.870242 0.351701 -1.31543e-025)
(0.409959 0.00837229 0)
(0.42142 0.0210238 0)
(0.435135 0.036002 0)
(0.450979 0.0511199 0)
(0.468829 0.0663532 0)
(0.488531 0.0817978 0)
(0.509909 0.0974659 0)
(0.532772 0.113325 0)
(0.556918 0.129331 0)
(0.582146 0.145425 0)
(0.608244 0.161445 0)
(0.634561 0.17795 0)
(0.662685 0.191878 0)
(0.688794 0.210797 0)
(0.697369 0.225847 0)
(0.716187 0.235538 0)
(0.71759 0.255963 0)
(0.733315 0.261637 0)
(0.737633 0.280663 0)
(0.744948 0.28896 0)
(0.763648 0.3001 0)
(0.767688 0.319231 0)
(0.78247 0.321319 0)
(0.78935 0.337556 0)
(0.801259 0.343227 0)
(0.823196 0.357493 0)
(0.827081 0.36558 0)
(0.839999 0.369062 0)
(0.860325 0.384707 1.40908e-025)
(0.381088 0.00873383 0)
(0.391972 0.0221376 0)
(0.405118 0.037887 0)
(0.420412 0.0537853 0)
(0.437743 0.0698249 0)
(0.45697 0.0861069 0)
(0.477926 0.102645 0)
(0.500427 0.119411 0)
(0.524279 0.136372 0)
(0.549266 0.153485 0)
(0.57521 0.170684 0)
(0.602683 0.187423 0)
(0.62954 0.207007 0)
(0.652422 0.221103 0)
(0.677521 0.239635 0)
(0.680409 0.256231 0)
(0.69724 0.264928 0)
(0.698584 0.285578 0)
(0.71491 0.291715 0)
(0.723557 0.314449 0)
(0.730639 0.323365 0)
(0.750302 0.332917 0)
(0.755817 0.354358 0)
(0.773568 0.357047 0)
(0.781998 0.373494 0)
(0.793682 0.3801 0)
(0.818194 0.393414 0)
(0.823746 0.40213 0)
(0.838564 0.4052 -2.99609e-025)
(0.352607 0.00904433 0)
(0.362925 0.023183 0)
(0.375504 0.0396462 0)
(0.390238 0.0562681 0)
(0.407031 0.0730604 0)
(0.425751 0.0901283 0)
(0.446238 0.107489 0)
(0.468317 0.12512 0)
(0.4918 0.142993 0)
(0.516499 0.161072 0)
(0.542243 0.179301 0)
(0.568524 0.197644 0)
(0.597515 0.214795 0)
(0.622451 0.236531 0)
(0.637613 0.25004 0)
(0.660835 0.267378 0)
(0.662139 0.288193 0)
(0.680035 0.29839 0)
(0.681845 0.319979 0)
(0.697389 0.325589 0)
(0.711074 0.348584 0)
(0.717813 0.360205 0)
(0.73911 0.370055 0)
(0.744451 0.389147 0)
(0.76516 0.395575 0)
(0.777497 0.411642 0)
(0.789647 0.418916 0)
(0.816525 0.431043 0)
(0.823639 0.439563 2.89955e-028)
(0.324679 0.00929595 0)
(0.334449 0.0241459 0)
(0.346467 0.0412543 0)
(0.360637 0.058531 0)
(0.376877 0.0760078 0)
(0.395064 0.0937917 0)
(0.415045 0.111901 0)
(0.436651 0.130316 0)
(0.459701 0.149017 0)
(0.484009 0.167972 0)
(0.509435 0.187098 0)
(0.536623 0.206225 0)
(0.562444 0.226924 0)
(0.590904 0.243362 0)
(0.61271 0.268703 0)
(0.621062 0.28374 0)
(0.641885 0.298681 0)
(0.642831 0.319718 0)
(0.66211 0.332032 0)
(0.666442 0.355786 0)
(0.681475 0.362061 0)
(0.699388 0.385354 0)
(0.706684 0.399927 0)
(0.730419 0.409316 0)
(0.737035 0.428126 0)
(0.759729 0.435507 0)
(0.775746 0.451586 0)
(0.789154 0.458948 0)
(0.817829 0.469503 7.44798e-028)
(0.297458 0.00948227 0)
(0.306703 0.0250142 0)
(0.31817 0.0426902 0)
(0.331779 0.0605442 0)
(0.34746 0.0786294 0)
(0.365098 0.0970521 0)
(0.384549 0.115832 0)
(0.405647 0.134955 0)
(0.428218 0.154411 0)
(0.452085 0.174188 0)
(0.477115 0.19426 0)
(0.502703 0.21448 0)
(0.53244 0.234857 0)
(0.554886 0.25854 0)
(0.577577 0.272723 0)
(0.598732 0.298657 0)
(0.601937 0.317917 0)
(0.62293 0.332301 0)
(0.624974 0.355444 0)
(0.646637 0.3695 0)
(0.653006 0.39479 0)
(0.667384 0.401854 0)
(0.689477 0.424044 0)
(0.697548 0.441234 0)
(0.724004 0.450549 0)
(0.732299 0.468776 0)
(0.757796 0.476579 0)
(0.77704 0.494208 0)
(0.793698 0.501911 1.79553e-025)
(0.271085 0.00959718 0)
(0.27983 0.025777 0)
(0.290763 0.0439351 0)
(0.303817 0.0622821 0)
(0.318938 0.0808921 0)
(0.336017 0.0998689 0)
(0.354914 0.119233 0)
(0.375468 0.13898 0)
(0.397505 0.159105 0)
(0.420841 0.179613 0)
(0.44527 0.200437 0)
(0.471225 0.221698 0)
(0.496171 0.243346 0)
(0.527447 0.264924 0)
(0.543928 0.291339 0)
(0.560289 0.306543 0)
(0.582128 0.331579 0)
(0.583069 0.354073 0)
(0.605223 0.369435 0)
(0.607178 0.392584 0)
(0.631437 0.407781 0)
(0.640217 0.436066 0)
(0.656433 0.444146 0)
(0.682514 0.467171 0)
(0.692018 0.484627 0)
(0.720973 0.495359 0)
(0.732415 0.51302 0)
(0.759377 0.519884 0)
(0.781802 0.538439 -1.88012e-025)
(0.245685 0.00963437 0)
(0.253957 0.0264234 0)
(0.264374 0.0449716 0)
(0.276885 0.0637208 0)
(0.291451 0.0827658 0)
(0.307968 0.102204 0)
(0.326295 0.12206 0)
(0.346274 0.142336 0)
(0.367732 0.163043 0)
(0.390487 0.184192 0)
(0.414381 0.205811 0)
(0.438807 0.227825 0)
(0.466476 0.250144 0)
(0.488356 0.275122 0)
(0.5177 0.29607 0)
(0.527981 0.324707 0)
(0.540838 0.341564 0)
(0.562964 0.367212 0)
(0.564126 0.39178 0)
(0.58823 0.409759 0)
(0.591658 0.434265 0)
(0.619239 0.451397 0)
(0.629146 0.479049 0)
(0.648748 0.490182 0)
(0.677763 0.512304 0)
(0.689039 0.530113 0)
(0.721037 0.542866 0)
(0.736495 0.558829 0)
(0.764857 0.567017 2.00341e-025)
(0.221368 0.00958784 0)
(0.229195 0.026943 0)
(0.239116 0.0457832 0)
(0.251101 0.0648383 0)
(0.265123 0.084222 0)
(0.281078 0.104023 0)
(0.298825 0.124267 0)
(0.3182 0.14497 0)
(0.339031 0.166158 0)
(0.361131 0.187866 0)
(0.384206 0.210088 0)
(0.408789 0.232879 0)
(0.431915 0.256733 0)
(0.461153 0.279634 0)
(0.475662 0.308642 0)
(0.502882 0.329577 0)
(0.509821 0.360699 0)
(0.520851 0.380776 0)
(0.543788 0.405887 0)
(0.546366 0.434028 0)
(0.572738 0.453295 0)
(0.57838 0.478916 0)
(0.608839 0.496151 0)
(0.620843 0.525805 0)
(0.645251 0.539484 0)
(0.676886 0.560283 0)
(0.690765 0.579579 0)
(0.727734 0.590621 0)
(0.743342 0.607784 0)
(0.198227 0.00945453 0)
(0.20564 0.0273274 0)
(0.215085 0.0463555 0)
(0.226563 0.0656155 0)
(0.240057 0.0852371 0)
(0.255459 0.105296 0)
(0.27262 0.12582 0)
(0.29137 0.146842 0)
(0.31153 0.168407 0)
(0.332898 0.190566 0)
(0.355377 0.213388 0)
(0.378184 0.236923 0)
(0.403669 0.26064 0)
(0.424208 0.288632 0)
(0.449415 0.311343 0)
(0.458552 0.344478 0)
(0.483631 0.365981 0)
(0.490255 0.399572 0)
(0.501017 0.422419 0)
(0.525508 0.448003 0)
(0.530175 0.478945 0)
(0.559105 0.499381 0)
(0.569313 0.527896 0)
(0.601992 0.545048 0)
(0.615953 0.576553 0)
(0.64525 0.590228 0)
(0.678702 0.613031 0)
(0.699062 0.630165 0)
(0.739794 0.641122 2.16488e-025)
(0.176336 0.00923798 0)
(0.18337 0.0275722 0)
(0.192357 0.0466747 0)
(0.20335 0.0660354 0)
(0.216337 0.0857914 0)
(0.2312 0.105999 0)
(0.247777 0.126691 0)
(0.265886 0.147917 0)
(0.285334 0.169741 0)
(0.305937 0.19228 0)
(0.327359 0.215426 0)
(0.350136 0.239727 0)
(0.371003 0.265059 0)
(0.396055 0.29038 0)
(0.411136 0.323142 0)
(0.433417 0.346508 0)
(0.437584 0.382924 0)
(0.462611 0.405473 0)
(0.4709 0.442997 0)
(0.482804 0.467662 0)
(0.510114 0.495631 0)
(0.516522 0.526507 0)
(0.549021 0.550521 0)
(0.563363 0.579317 0)
(0.598095 0.598843 0)
(0.616949 0.628792 0)
(0.650298 0.645425 0)
(0.685451 0.667353 0)
(0.713825 0.683746 -5.77692e-027)
(0.155758 0.00894492 0)
(0.162448 0.0276765 0)
(0.170989 0.0467269 0)
(0.181521 0.0660855 0)
(0.194028 0.0858724 0)
(0.208371 0.106118 0)
(0.224369 0.126865 0)
(0.241823 0.148185 0)
(0.26053 0.170177 0)
(0.280263 0.192902 0)
(0.300959 0.21673 0)
(0.321385 0.241102 0)
(0.344452 0.26782 0)
(0.359809 0.296626 0)
(0.383483 0.324085 0)
(0.393288 0.360357 0)
(0.413558 0.38633 0)
(0.415499 0.425344 0)
(0.442092 0.449305 0)
(0.450606 0.488317 0)
(0.467521 0.517639 0)
(0.496583 0.545546 0)
(0.505443 0.581284 0)
(0.54282 0.60348 0)
(0.559698 0.636942 0)
(0.599074 0.655556 0)