/*--------------------------------*- C++ -*----------------------------------*\
| =========                 |                                                 |
| \\      /  F ield         | OpenFOAM: The Open Source CFD Toolbox           |
|  \\    /   O peration     | Version:  5.x                                   |
|   \\  /    A nd           | Web:      www.OpenFOAM.org                      |
|    \\/     M anipulation  |                                                 |
\*---------------------------------------------------------------------------*/
/*   Windows 32 and 64 bit porting by blueCAPE: http://www.bluecape.com.pt   *\
|  Based on Windows porting (2.0.x v4) by Symscape: http://www.symscape.com   |
\*---------------------------------------------------------------------------*/
FoamFile
{
    version     2.0;
    format      ascii;
    class       volScalarField;
    location    "60";
    object      epsilon;
}
// * * * * * * * * * * * * * * * * * * * * * * * * * * * * * * * * * * * * * //

dimensions      [0 2 -3 0 0 0 0];

internalField   nonuniform List<scalar> 
43900
(
0.00155879
0.00151973
0.00151976
0.00151966
0.00151966
0.00151966
0.00151966
0.00151967
0.00151967
0.00151967
0.00151967
0.00151967
0.00151967
0.00151967
0.00151967
0.00151967
0.00151968
0.00151968
0.00151968
0.00151968
0.00151968
0.00151968
0.00151968
0.00151968
0.00151968
0.00151968
0.00151968
0.00151968
0.00151968
6.08317e-005
3.1726e-005
3.15463e-005
3.27526e-005
3.27962e-005
3.27937e-005
3.2795e-005
3.27975e-005
3.27988e-005
3.28001e-005
3.28013e-005
3.28025e-005
3.28037e-005
3.28048e-005
3.28059e-005
3.2807e-005
3.2808e-005
3.28089e-005
3.28098e-005
3.28107e-005
3.28116e-005
3.28123e-005
3.28131e-005
3.28138e-005
3.28145e-005
3.28152e-005
3.28158e-005
3.28164e-005
3.28168e-005
0.0225554
0.000992819
1.49438e-005
1.51679e-006
1.33321e-006
1.34941e-006
1.35131e-006
1.35136e-006
1.35168e-006
1.35194e-006
1.35217e-006
1.35239e-006
1.35259e-006
1.35277e-006
1.35294e-006
1.35309e-006
1.35324e-006
1.35337e-006
1.3535e-006
1.35362e-006
1.35373e-006
1.35383e-006
1.35393e-006
1.35402e-006
1.35411e-006
1.3542e-006
1.35428e-006
1.35436e-006
1.35443e-006
0.0973906
0.0177009
0.00146837
3.16038e-005
6.002e-007
2.34105e-007
2.30395e-007
2.30384e-007
2.3042e-007
2.30456e-007
2.30488e-007
2.30518e-007
2.30545e-007
2.3057e-007
2.30592e-007
2.30612e-007
2.30629e-007
2.30644e-007
2.30657e-007
2.30669e-007
2.30681e-007
2.30689e-007
2.30697e-007
2.30702e-007
2.30712e-007
2.30698e-007
2.30695e-007
2.30692e-007
2.30692e-007
0.151203
0.049813
0.0116827
0.00106345
1.91518e-005
4.41315e-007
3.18666e-007
3.18019e-007
3.1804e-007
3.18093e-007
3.1815e-007
3.18201e-007
3.18243e-007
3.18283e-007
3.18313e-007
3.18339e-007
3.18357e-007
3.18384e-007
3.18451e-007
3.184e-007
3.18402e-007
3.18376e-007
3.18364e-007
3.18345e-007
3.18322e-007
3.1828e-007
3.18238e-007
3.18192e-007
3.18171e-007
0.168438
0.063225
0.0204653
0.00375401
0.000159219
1.89334e-006
9.53557e-007
9.50017e-007
9.50093e-007
9.50284e-007
9.5049e-007
9.50671e-007
9.50814e-007
9.50914e-007
9.51021e-007
9.51098e-007
9.51225e-007
9.51586e-007
9.51411e-007
9.5141e-007
9.51428e-007
9.51525e-007
9.51096e-007
9.50984e-007
9.50856e-007
9.50694e-007
9.50503e-007
9.50295e-007
9.50212e-007
0.174073
0.0682385
0.0239495
0.00551672
0.000369845
5.05877e-006
2.17638e-006
2.16733e-006
2.16733e-006
2.16736e-006
2.16743e-006
2.1675e-006
2.16764e-006
2.168e-006
2.168e-006
2.168e-006
2.16805e-006
2.16768e-006
2.16756e-006
2.16747e-006
2.16743e-006
2.16743e-006
2.16716e-006
2.16699e-006
2.16683e-006
2.16664e-006
2.16642e-006
2.16618e-006
2.16605e-006
0.172716
0.0683709
0.0244934
0.00599583
0.000456341
6.98977e-006
2.84954e-006
2.83611e-006
2.83611e-006
2.83611e-006
2.83619e-006
2.83618e-006
2.83623e-006
2.83594e-006
2.83594e-006
2.83595e-006
2.83601e-006
2.83568e-006
2.83559e-006
2.83548e-006
2.83537e-006
2.83529e-006
2.83517e-006
2.83502e-006
2.83487e-006
2.83469e-006
2.8345e-006
2.83436e-006
2.83437e-006
0.169851
0.0676434
0.0243625
0.00601333
0.000466434
7.4821e-006
3.13945e-006
3.12517e-006
3.12517e-006
3.12513e-006
3.12513e-006
3.12513e-006
3.12491e-006
3.12491e-006
3.12491e-006
3.12497e-006
3.12459e-006
3.12448e-006
3.1244e-006
3.12432e-006
3.12423e-006
3.12415e-006
3.1241e-006
3.1241e-006
3.12411e-006
3.12414e-006
3.12408e-006
3.12411e-006
3.12357e-006
0.166207
0.0661304
0.0238553
0.00590413
0.000456609
7.43247e-006
3.24787e-006
3.23391e-006
3.23391e-006
3.23391e-006
3.2339e-006
3.2339e-006
3.23381e-006
3.23381e-006
3.2338e-006
3.23382e-006
3.23364e-006
3.23364e-006
3.2336e-006
3.2336e-006
3.23354e-006
3.23354e-006
3.23343e-006
3.23344e-006
3.23327e-006
3.23327e-006
3.23336e-006
3.23306e-006
3.23306e-006
0.162475
0.0644774
0.0231329
0.00564894
0.000426569
7.21177e-006
3.28543e-006
3.27107e-006
3.27106e-006
3.27108e-006
3.27092e-006
3.27092e-006
3.27093e-006
3.27102e-006
3.27095e-006
3.27096e-006
3.27098e-006
3.2709e-006
3.27091e-006
3.2709e-006
3.27092e-006
3.27075e-006
3.27075e-006
3.2708e-006
3.27074e-006
3.27074e-006
3.27057e-006
3.27058e-006
3.27064e-006
0.158385
0.0627061
0.0223927
0.00538157
0.000393742
6.98808e-006
3.29851e-006
3.28292e-006
3.28291e-006
3.28295e-006
3.28276e-006
3.28276e-006
3.28278e-006
3.2829e-006
3.28268e-006
3.28268e-006
3.28269e-006
3.28281e-006
3.28273e-006
3.28274e-006
3.28255e-006
3.28256e-006
3.28258e-006
3.28272e-006
3.28271e-006
3.28271e-006
3.28253e-006
3.28254e-006
3.28262e-006
0.153935
0.0607905
0.0216012
0.00510838
0.000362775
6.80265e-006
3.30373e-006
3.28657e-006
3.28656e-006
3.2866e-006
3.28639e-006
3.28639e-006
3.28641e-006
3.28657e-006
3.28631e-006
3.28631e-006
3.28632e-006
3.28647e-006
3.28645e-006
3.28645e-006
3.28639e-006
3.28639e-006
3.28638e-006
3.28639e-006
3.28637e-006
3.28638e-006
3.28618e-006
3.28618e-006
3.28633e-006
0.149195
0.0587556
0.0207646
0.00482533
0.000332315
6.63111e-006
3.30669e-006
3.28779e-006
3.28777e-006
3.28781e-006
3.2877e-006
3.2877e-006
3.2877e-006
3.2877e-006
3.28776e-006
3.28758e-006
3.28759e-006
3.28768e-006
3.28762e-006
3.28762e-006
3.28761e-006
3.28762e-006
3.28758e-006
3.28759e-006
3.28753e-006
3.28754e-006
3.28744e-006
3.28744e-006
3.28732e-006
0.144159
0.0566054
0.0198864
0.00453444
0.000302712
6.48499e-006
3.30941e-006
3.28836e-006
3.28834e-006
3.28837e-006
3.28832e-006
3.28833e-006
3.2883e-006
3.2883e-006
3.28804e-006
3.28804e-006
3.28805e-006
3.28809e-006
3.28813e-006
3.28824e-006
3.28816e-006
3.28816e-006
3.28813e-006
3.28814e-006
3.2881e-006
3.28811e-006
3.28802e-006
3.28808e-006
3.28777e-006
0.138809
0.054334
0.0189656
0.00423644
0.000274125
6.36239e-006
3.31253e-006
3.28895e-006
3.28891e-006
3.28896e-006
3.2889e-006
3.2889e-006
3.28887e-006
3.28888e-006
3.2885e-006
3.28849e-006
3.28851e-006
3.28872e-006
3.28864e-006
3.28864e-006
3.2886e-006
3.28865e-006
3.28858e-006
3.28859e-006
3.28836e-006
3.28838e-006
3.28847e-006
3.28823e-006
3.28817e-006
0.13314
0.0519404
0.0180024
0.00393224
0.000246669
6.25769e-006
3.31625e-006
3.28954e-006
3.28949e-006
3.28951e-006
3.28943e-006
3.28944e-006
3.28944e-006
3.28949e-006
3.28939e-006
3.28939e-006
3.28938e-006
3.2894e-006
3.28927e-006
3.28928e-006
3.28927e-006
3.28928e-006
3.28921e-006
3.28922e-006
3.28885e-006
3.28885e-006
3.289e-006
3.28859e-006
3.28859e-006
0.127157
0.0494285
0.0169989
0.00362358
0.000220526
6.16789e-006
3.32075e-006
3.29042e-006
3.29024e-006
3.29024e-006
3.29025e-006
3.29051e-006
3.29018e-006
3.29018e-006
3.29007e-006
3.29009e-006
3.29009e-006
3.29029e-006
3.29024e-006
3.29025e-006
3.29e-006
3.29e-006
3.28991e-006
3.29001e-006
3.2897e-006
3.28972e-006
3.28989e-006
3.28924e-006
3.28926e-006
0.120875
0.0468058
0.0159589
0.00331279
0.000195892
6.08976e-006
3.32615e-006
3.29183e-006
3.29168e-006
3.29169e-006
3.29183e-006
3.29142e-006
3.29141e-006
3.29143e-006
3.29142e-006
3.29153e-006
3.29121e-006
3.29122e-006
3.2912e-006
3.29122e-006
3.29093e-006
3.29093e-006
3.29107e-006
3.29069e-006
3.29053e-006
3.29054e-006
3.29074e-006
3.29011e-006
3.29013e-006
0.114314
0.0440825
0.0148875
0.00300255
0.000172942
6.02184e-006
3.33262e-006
3.2935e-006
3.29302e-006
3.29302e-006
3.29307e-006
3.29271e-006
3.29271e-006
3.29266e-006
3.29266e-006
3.2928e-006
3.29245e-006
3.29245e-006
3.29242e-006
3.29242e-006
3.29261e-006
3.29232e-006
3.29232e-006
3.2924e-006
3.29155e-006
3.29158e-006
3.29173e-006
3.29146e-006
3.29183e-006
0.107503
0.0412724
0.0137909
0.00269584
0.000151801
5.96131e-006
3.34038e-006
3.29584e-006
3.2949e-006
3.29475e-006
3.29471e-006
3.29471e-006
3.29477e-006
3.29475e-006
3.29476e-006
3.29496e-006
3.29482e-006
3.29483e-006
3.29476e-006
3.29477e-006
3.29384e-006
3.29381e-006
3.29382e-006
3.294e-006
3.29357e-006
3.29358e-006
3.29346e-006
3.29369e-006
3.29296e-006
0.100481
0.0383925
0.0126767
0.00239583
0.000132549
5.9069e-006
3.34964e-006
3.29894e-006
3.29768e-006
3.29748e-006
3.29733e-006
3.29713e-006
3.29694e-006
3.2968e-006
3.2968e-006
3.29689e-006
3.29686e-006
3.29693e-006
3.29689e-006
3.29691e-006
3.29657e-006
3.29658e-006
3.29641e-006
3.29662e-006
3.29615e-006
3.29617e-006
3.29639e-006
3.2956e-006
3.29562e-006
0.093293
0.0354632
0.0115536
0.00210582
0.000115211
5.85561e-006
3.36057e-006
3.30297e-006
3.30134e-006
3.30108e-006
3.30083e-006
3.30061e-006
3.30048e-006
3.3005e-006
3.30055e-006
3.30046e-006
3.30046e-006
3.30071e-006
3.30045e-006
3.30068e-006
3.30013e-006
3.30014e-006
3.30037e-006
3.29983e-006
3.30007e-006
3.29879e-006
3.29877e-006
3.29912e-006
3.29809e-006
0.0859952
0.0325077
0.0104315
0.00182904
9.97557e-005
5.80743e-006
3.37344e-006
3.30813e-006
3.306e-006
3.30567e-006
3.30537e-006
3.30501e-006
3.30484e-006
3.30486e-006
3.3049e-006
3.30528e-006
3.30478e-006
3.30478e-006
3.30533e-006
3.30479e-006
3.30508e-006
3.30365e-006
3.30362e-006
3.30441e-006
3.30265e-006
3.30225e-006
3.30343e-006
3.30252e-006
3.30252e-006
0.0786495
0.0295519
0.00932115
0.00156858
8.61056e-005
5.75993e-006
3.38858e-006
3.31479e-006
3.31201e-006
3.3116e-006
3.31161e-006
3.31162e-006
3.31177e-006
3.31141e-006
3.31169e-006
3.31112e-006
3.31113e-006
3.3116e-006
3.31052e-006
3.31117e-006
3.3088e-006
3.30832e-006
3.30997e-006
3.30807e-006
3.308e-006
3.3093e-006
3.3075e-006
3.30824e-006
3.30635e-006
0.0713246
0.0266234
0.00823419
0.00132719
7.41433e-005
5.71166e-006
3.40621e-006
3.32306e-006
3.31958e-006
3.31957e-006
3.3197e-006
3.31918e-006
3.31917e-006
3.31972e-006
3.31899e-006
3.31941e-006
3.31728e-006
3.31709e-006
3.31847e-006
3.31605e-006
3.31585e-006
3.31754e-006
3.31557e-006
3.31586e-006
3.31418e-006
3.31372e-006
3.31524e-006
3.31239e-006
3.3109e-006
0.0640932
0.0237511
0.00718255
0.00110714
6.3724e-005
5.66243e-006
3.42643e-006
3.33355e-006
3.32976e-006
3.32975e-006
3.32911e-006
3.32914e-006
3.32956e-006
3.32836e-006
3.32913e-006
3.32638e-006
3.3255e-006
3.32777e-006
3.32576e-006
3.32574e-006
3.32465e-006
3.32388e-006
3.32484e-006
3.32307e-006
3.32031e-006
3.32269e-006
3.32035e-006
3.31881e-006
3.32099e-006
0.0570303
0.0209641
0.00617831
0.000910079
5.46897e-005
5.61037e-006
3.45012e-006
3.34604e-006
3.34115e-006
3.34112e-006
3.34169e-006
3.33959e-006
3.33953e-006
3.34103e-006
3.33824e-006
3.3382e-006
3.33961e-006
3.33759e-006
3.33777e-006
3.33624e-006
3.33365e-006
3.33386e-006
3.33508e-006
3.33072e-006
3.33273e-006
3.33126e-006
3.32823e-006
3.3303e-006
3.32798e-006
0.0502105
0.0182908
0.00523323
0.000736932
4.68838e-005
5.55539e-006
3.47628e-006
3.36269e-006
3.35644e-006
3.35674e-006
3.35476e-006
3.35475e-006
3.35606e-006
3.35338e-006
3.35403e-006
3.35179e-006
3.35078e-006
3.35066e-006
3.3512e-006
3.34678e-006
3.34665e-006
3.35066e-006
3.34411e-006
3.3463e-006
3.3447e-006
3.34037e-006
3.34428e-006
3.33929e-006
3.3392e-006
0.0437052
0.0157578
0.00435828
0.000587848
4.01595e-005
5.49674e-006
3.50767e-006
3.38008e-006
3.37333e-006
3.37232e-006
3.3733e-006
3.37062e-006
3.36931e-006
3.37215e-006
3.36814e-006
3.36682e-006
3.3678e-006
3.37087e-006
3.36358e-006
3.36439e-006
3.36765e-006
3.3604e-006
3.36395e-006
3.36096e-006
3.35529e-006
3.36055e-006
3.35484e-006
3.35412e-006
3.35391e-006
0.0375792
0.0133889
0.00356304
0.000462185
3.43873e-005
5.43612e-006
3.53984e-006
3.40595e-006
3.39323e-006
3.39487e-006
3.39165e-006
3.39151e-006
3.39404e-006
3.38978e-006
3.39084e-006
3.3895e-006
3.38596e-006
3.38338e-006
3.38845e-006
3.38601e-006
3.37883e-006
3.38412e-006
3.37968e-006
3.37511e-006
3.38174e-006
3.37443e-006
3.37445e-006
3.37446e-006
3.36608e-006
0.0318884
0.0112048
0.00285514
0.000358553
2.9454e-005
5.37221e-006
3.58101e-006
3.429e-006
3.42059e-006
3.41812e-006
3.4181e-006
3.41642e-006
3.41458e-006
3.41931e-006
3.41176e-006
3.41173e-006
3.41438e-006
3.41408e-006
3.40671e-006
3.40529e-006
3.4111e-006
3.40274e-006
3.40052e-006
3.40659e-006
3.39742e-006
3.40011e-006
3.3954e-006
3.38678e-006
3.38937e-006
0.0266773
0.00922171
0.00223956
0.000274957
2.52632e-005
5.3119e-006
3.62004e-006
3.46621e-006
3.44866e-006
3.44833e-006
3.44653e-006
3.44495e-006
3.44599e-006
3.44115e-006
3.44754e-006
3.446e-006
3.43613e-006
3.4361e-006
3.44204e-006
3.43933e-006
3.43077e-006
3.43201e-006
3.43619e-006
3.42528e-006
3.42642e-006
3.41997e-006
3.41966e-006
3.41962e-006
3.41288e-006
0.0219768
0.00745153
0.00171809
0.000208947
2.17292e-005
5.25157e-006
3.67048e-006
3.49922e-006
3.48299e-006
3.48082e-006
3.47814e-006
3.47757e-006
3.47904e-006
3.48409e-006
3.47484e-006
3.47213e-006
3.47795e-006
3.47472e-006
3.46605e-006
3.46526e-006
3.47145e-006
3.46396e-006
3.45703e-006
3.46111e-006
3.45671e-006
3.45669e-006
3.44491e-006
3.44211e-006
3.44102e-006
0.0178042
0.00590114
0.00128889
0.000157853
1.87742e-005
5.19705e-006
3.72189e-006
3.54496e-006
3.52174e-006
3.51913e-006
3.51703e-006
3.52128e-006
3.51835e-006
3.5126e-006
3.51601e-006
3.5197e-006
3.51343e-006
3.50538e-006
3.51207e-006
3.5098e-006
3.50009e-006
3.50711e-006
3.50245e-006
3.49372e-006
3.48486e-006
3.48392e-006
3.49398e-006
3.47679e-006
3.4747e-006
0.0141628
0.00457218
0.000946393
0.000118993
1.6324e-005
5.15454e-006
3.7776e-006
3.59313e-006
3.56831e-006
3.56069e-006
3.56838e-006
3.56194e-006
3.55763e-006
3.56865e-006
3.56148e-006
3.56219e-006
3.5585e-006
3.56793e-006
3.55162e-006
3.5505e-006
3.56066e-006
3.54808e-006
3.54974e-006
3.53937e-006
3.53992e-006
3.5417e-006
3.52534e-006
3.53207e-006
3.52003e-006
0.0110435
0.0034606
0.000681697
8.98601e-005
1.43172e-005
5.11214e-006
3.84605e-006
3.65152e-006
3.61364e-006
3.62313e-006
3.61406e-006
3.61214e-006
3.62083e-006
3.61173e-006
3.61879e-006
3.61403e-006
3.61563e-006
3.60628e-006
3.62021e-006
3.61391e-006
3.59842e-006
3.60552e-006
3.5997e-006
3.6076e-006
3.59444e-006
3.57853e-006
3.58803e-006
3.57013e-006
3.57134e-006
0.0084256
0.00255634
0.000483535
6.82629e-005
1.26728e-005
5.09522e-006
3.90632e-006
3.70498e-006
3.68785e-006
3.66556e-006
3.66848e-006
3.67828e-006
3.6721e-006
3.67496e-006
3.67239e-006
3.67789e-006
3.67559e-006
3.6834e-006
3.66889e-006
3.67616e-006
3.6708e-006
3.65921e-006
3.67425e-006
3.65847e-006
3.65766e-006
3.65991e-006
3.63869e-006
3.64369e-006
3.62388e-006
0.0062784
0.001843
0.000339478
5.23533e-005
1.13546e-005
5.07074e-006
3.98949e-006
3.78644e-006
3.73139e-006
3.74153e-006
3.74114e-006
3.72725e-006
3.73574e-006
3.74076e-006
3.74476e-006
3.74457e-006
3.73977e-006
3.73926e-006
3.75946e-006
3.74474e-006
3.7462e-006
3.75894e-006
3.73199e-006
3.74549e-006
3.73564e-006
3.72298e-006
3.72305e-006
3.70195e-006
3.71124e-006
0.00456209
0.00129846
0.000237318
4.06756e-005
1.02682e-005
5.0754e-006
4.05855e-006
3.8388e-006
3.82382e-006
3.79706e-006
3.79584e-006
3.82111e-006
3.80432e-006
3.80355e-006
3.82316e-006
3.81283e-006
3.82761e-006
3.83249e-006
3.82139e-006
3.84038e-006
3.83359e-006
3.82553e-006
3.84024e-006
3.81893e-006
3.82793e-006
3.81163e-006
3.80231e-006
3.81383e-006
3.78374e-006
0.00322898
0.000896341
0.000166174
3.20656e-005
9.40555e-006
5.06647e-006
4.14108e-006
3.94554e-006
3.87339e-006
3.88214e-006
3.89351e-006
3.87208e-006
3.89286e-006
3.9091e-006
3.88399e-006
3.91285e-006
3.91103e-006
3.90356e-006
3.93488e-006
3.92029e-006
3.92745e-006
3.9386e-006
3.93152e-006
3.94307e-006
3.91694e-006
3.93053e-006
3.9293e-006
3.89567e-006
3.89968e-006
0.00222539
0.000608645
0.000117141
2.56911e-005
8.68065e-006
5.07382e-006
4.23749e-006
3.99445e-006
3.9802e-006
3.95545e-006
3.94321e-006
3.98011e-006
3.97905e-006
3.96922e-006
3.99631e-006
3.99419e-006
4.00179e-006
4.03857e-006
4.01195e-006
4.0433e-006
4.06078e-006
4.04336e-006
4.05027e-006
4.05161e-006
4.08001e-006
4.04677e-006
4.031e-006
4.03624e-006
4.00931e-006
0.00149432
0.000408455
8.34417e-005
2.0908e-005
8.08039e-006
5.09161e-006
4.28699e-006
4.12007e-006
4.0347e-006
4.03483e-006
4.06045e-006
4.04668e-006
4.06514e-006
4.06986e-006
4.07772e-006
4.1185e-006
4.11393e-006
4.12057e-006
4.16386e-006
4.15509e-006
4.15903e-006
4.19828e-006
4.18538e-006
4.19158e-006
4.18476e-006
4.22337e-006
4.20022e-006
4.17862e-006
4.17668e-006
0.00097936
0.000272238
6.02022e-005
1.72668e-005
7.58812e-006
5.07454e-006
4.41323e-006
4.17014e-006
4.14126e-006
4.13533e-006
4.12032e-006
4.15224e-006
4.13692e-006
4.1699e-006
4.21957e-006
4.20243e-006
4.22414e-006
4.22516e-006
4.25055e-006
4.33166e-006
4.31582e-006
4.31794e-006
4.36832e-006
4.36849e-006
4.37874e-006
4.35425e-006
4.39424e-006
4.37146e-006
4.33841e-006
0.00062822
0.000181046
4.40347e-005
1.44802e-005
7.1215e-006
5.10034e-006
4.44747e-006
4.28798e-006
4.21665e-006
4.20263e-006
4.21825e-006
4.2184e-006
4.27734e-006
4.28806e-006
4.27961e-006
4.3075e-006
4.34089e-006
4.41537e-006
4.40884e-006
4.41642e-006
4.49148e-006
4.51504e-006
4.52063e-006
4.56355e-006
4.55777e-006
4.60193e-006
4.56499e-006
4.596e-006
4.58312e-006
0.000395944
0.000120592
3.26888e-005
1.22697e-005
6.77351e-006
5.07093e-006
4.55075e-006
4.34616e-006
4.29819e-006
4.29769e-006
4.3084e-006
4.35355e-006
4.34112e-006
4.35981e-006
4.41672e-006
4.43541e-006
4.46352e-006
4.491e-006
4.5609e-006
4.60294e-006
4.61194e-006
4.67569e-006
4.74822e-006
4.7657e-006
4.83612e-006
4.82856e-006
4.88787e-006
4.84172e-006
4.86305e-006
0.000246331
8.07239e-005
2.46138e-005
1.0566e-005
6.39024e-006
5.07588e-006
4.5805e-006
4.44077e-006
4.39523e-006
4.39439e-006
4.39094e-006
4.39341e-006
4.47249e-006
4.46588e-006
4.49197e-006
4.57845e-006
4.59381e-006
4.62606e-006
4.66226e-006
4.70971e-006
4.86686e-006
4.88929e-006
4.94929e-006
5.03334e-006
5.05482e-006
5.13532e-006
5.13181e-006
5.1977e-006
5.16424e-006
0.000152088
5.44446e-005
1.88446e-005
9.16487e-006
6.12943e-006
5.03265e-006
4.66509e-006
4.50279e-006
4.45895e-006
4.4591e-006
4.47191e-006
4.52894e-006
4.5257e-006
4.61822e-006
4.61868e-006
4.6369e-006
4.73258e-006
4.76755e-006
4.86164e-006
4.88919e-006
4.95684e-006
5.14487e-006
5.19054e-006
5.24462e-006
5.39287e-006
5.43614e-006
5.58594e-006
5.55394e-006
5.60568e-006
9.37602e-005
3.71428e-005
1.46699e-005
8.09541e-006
5.81865e-006
5.02231e-006
4.67839e-006
4.57743e-006
4.55348e-006
4.54777e-006
4.56274e-006
4.57242e-006
4.65238e-006
4.65599e-006
4.7605e-006
4.78614e-006
4.81474e-006
4.9135e-006
4.97323e-006
5.12955e-006
5.17332e-006
5.2515e-006
5.46117e-006
5.53456e-006
5.70007e-006
5.83851e-006
5.91569e-006
6.13532e-006
6.10462e-006
5.81205e-005
2.57498e-005
1.16681e-005
7.20467e-006
5.61777e-006
4.96767e-006
4.73679e-006
4.61699e-006
4.60843e-006
4.6229e-006
4.62973e-006
4.67617e-006
4.68866e-006
4.78412e-006
4.80976e-006
4.9058e-006
4.97307e-006
5.01852e-006
5.12715e-006
5.20909e-006
5.38828e-006
5.49886e-006
5.61015e-006
5.92722e-006
6.05516e-006
6.38214e-006
6.4665e-006
6.56794e-006
6.83595e-006
3.65218e-005
1.82446e-005
9.48786e-006
6.53275e-006
5.38832e-006
4.94206e-006
4.73629e-006
4.69363e-006
4.66858e-006
4.6766e-006
4.71155e-006
4.72846e-006
4.78202e-006
4.81741e-006
4.93676e-006
4.97181e-006
5.04721e-006
5.19438e-006
5.26134e-006
5.40402e-006
5.48797e-006
5.71936e-006
5.91323e-006
6.09605e-006
6.52231e-006
6.73867e-006
7.29859e-006
7.38335e-006
7.4876e-006
2.34705e-005
1.32824e-005
7.9192e-006
5.98692e-006
5.22386e-006
4.89372e-006
4.76128e-006
4.70721e-006
4.73547e-006
4.73446e-006
4.74901e-006
4.8134e-006
4.838e-006
4.90358e-006
4.94975e-006
5.08066e-006
5.16445e-006
5.25893e-006
5.40673e-006
5.53384e-006
5.73409e-006
5.873e-006
6.16073e-006
6.46541e-006
6.72041e-006
7.3267e-006
7.69539e-006
8.61199e-006
8.78641e-006
1.55916e-005
1.00053e-005
6.7941e-006
5.57285e-006
5.08971e-006
4.83083e-006
4.79763e-006
4.74188e-006
4.75462e-006
4.78317e-006
4.82189e-006
4.83462e-006
4.91325e-006
4.98098e-006
5.02527e-006
5.08484e-006
5.26463e-006
5.33323e-006
5.5231e-006
5.6192e-006
5.85328e-006
6.06002e-006
6.40275e-006
6.67864e-006
7.13433e-006
7.55678e-006
8.41415e-006
9.08785e-006
1.04523e-005
1.08145e-005
7.83833e-006
5.98902e-006
5.26033e-006
4.95464e-006
4.80487e-006
4.79956e-006
4.75808e-006
4.82297e-006
4.81053e-006
4.8644e-006
4.893e-006
4.97191e-006
5.00722e-006
5.12369e-006
5.17863e-006
5.32096e-006
5.40136e-006
5.57861e-006
5.6927e-006
5.94297e-006
6.17065e-006
6.59466e-006
6.91151e-006
7.60189e-006
8.19528e-006
9.5638e-006
1.04949e-005
1.26025e-005
7.93534e-006
6.42728e-006
5.43566e-006
5.03242e-006
4.87975e-006
4.77654e-006
4.8207e-006
4.76988e-006
4.86947e-006
4.82643e-006
4.92159e-006
4.93216e-006
5.00599e-006
5.03526e-006
5.15432e-006
5.23439e-006
5.45121e-006
5.69445e-006
6.33256e-006
7.82132e-006
1.13454e-005
1.99008e-005
3.3373e-005
6.6439e-005
9.8061e-005
0.000174078
0.00021603
0.000299967
0.000279163
6.1801e-006
5.50822e-006
5.04985e-006
4.86117e-006
4.77514e-006
4.77648e-006
4.79778e-006
4.78745e-006
4.87529e-006
4.88215e-006
5.04155e-006
5.13665e-006
5.58323e-006
6.58052e-006
9.91954e-006
1.74144e-005
4.08148e-005
8.74987e-005
0.000194485
0.000378849
0.000713827
0.00126473
0.00195592
0.00323334
0.00438195
0.00678467
0.00828203
0.0121098
0.0121245
5.19005e-006
4.9533e-006
4.79435e-006
4.77433e-006
4.77157e-006
4.81486e-006
4.9921e-006
5.31572e-006
6.59031e-006
8.77971e-006
1.98239e-005
3.78462e-005
0.000101461
0.000206456
0.000458602
0.000825001
0.00164512
0.00266697
0.00455833
0.00685572
0.0104602
0.014905
0.0210641
0.0294474
0.0392188
0.0553816
0.0700434
0.10366
0.121702
4.59573e-006
4.68184e-006
4.88299e-006
5.40117e-006
6.70237e-006
1.04235e-005
2.92774e-005
5.43061e-005
0.000142647
0.000251725
0.000633942
0.00105196
0.00214997
0.00344014
0.00578092
0.00859785
0.013162
0.0185917
0.0266016
0.0361196
0.0496925
0.0659488
0.0890771
0.117747
0.158061
0.212803
0.28572
0.411415
0.54088
4.65761e-006
6.6278e-006
1.30446e-005
3.15225e-005
7.47672e-005
0.00017448
0.000491093
0.000874844
0.00182635
0.00284483
0.00535381
0.00774509
0.0127453
0.0180944
0.0263047
0.0358679
0.0497396
0.0659539
0.0888064
0.115418
0.153027
0.19699
0.261591
0.337459
0.455971
0.598766
0.84376
1.15441
1.65121
0.00151968
0.00151968
0.00151968
0.00151968
0.00151969
0.00151969
0.00151969
0.00151969
0.00151969
0.00151969
0.00151969
0.00151969
0.00151969
0.00151969
0.00151969
0.00151969
0.00151969
0.00151969
0.00151969
0.00151969
0.00151969
0.00151969
0.00151969
0.00151969
0.00151969
0.00151969
0.00151969
0.00151969
0.00151969
0.00151969
0.00151969
0.0015197
0.0015197
0.0015197
0.0015197
0.0015197
0.0015197
0.0015197
0.0015197
0.0015197
0.0015197
0.0015197
0.0015197
0.0015197
0.0015197
0.0015197
0.0015197
0.0015197
0.0015197
0.0015197
0.0015197
0.0015197
0.0015197
0.0015197
0.0015197
0.0015197
0.0015197
0.0015197
0.0015197
0.0015197
0.0015197
0.0015197
0.0015197
0.0015197
0.0015197
0.0015197
0.0015197
0.00151971
0.00151971
0.00151971
0.00151971
0.00151971
0.00151971
0.00151971
0.00151971
0.00151971
0.00151971
0.00151971
0.00151971
0.00151971
0.00151971
0.00151971
0.00151971
0.00151971
0.00151971
0.00151971
0.00151971
0.00151971
0.00151971
0.00151971
0.00151971
0.00151971
0.00151971
0.00151971
0.00151971
0.00151971
0.00151971
0.00151971
0.00151971
0.00151971
0.00151971
0.00151971
0.00151971
0.00151971
0.00151971
0.00151971
0.00151971
0.00151971
0.00151971
0.00151971
0.00151971
0.00151971
0.00151971
0.00151971
0.00151971
0.00151971
0.00151971
0.00151971
0.00151971
0.00151971
0.00151971
0.00151971
0.00151971
0.00151971
0.00151971
0.00151971
0.00151971
0.00151971
0.00151971
0.00151971
0.00151971
0.00151971
0.00151971
0.00151971
0.00151972
0.00151972
0.00151972
0.00151979
0.00154198
3.28175e-005
3.28184e-005
3.28191e-005
3.28197e-005
3.28204e-005
3.28209e-005
3.28215e-005
3.28221e-005
3.28226e-005
3.28231e-005
3.28236e-005
3.28241e-005
3.28245e-005
3.2825e-005
3.28254e-005
3.28259e-005
3.28263e-005
3.28267e-005
3.28272e-005
3.28276e-005
3.2828e-005
3.28284e-005
3.28288e-005
3.28292e-005
3.28296e-005
3.283e-005
3.28304e-005
3.28308e-005
3.28312e-005
3.28316e-005
3.2832e-005
3.28324e-005
3.28327e-005
3.28331e-005
3.28335e-005
3.28339e-005
3.28343e-005
3.28347e-005
3.2835e-005
3.28354e-005
3.28358e-005
3.28362e-005
3.28366e-005
3.28369e-005
3.28373e-005
3.28377e-005
3.2838e-005
3.28384e-005
3.28388e-005
3.28391e-005
3.28395e-005
3.28399e-005
3.28402e-005
3.28406e-005
3.28409e-005
3.28413e-005
3.28416e-005
3.2842e-005
3.28423e-005
3.28426e-005
3.2843e-005
3.28433e-005
3.28436e-005
3.28439e-005
3.28442e-005
3.28446e-005
3.28449e-005
3.28452e-005
3.28455e-005
3.28458e-005
3.2846e-005
3.28463e-005
3.28466e-005
3.28469e-005
3.28472e-005
3.28474e-005
3.28477e-005
3.2848e-005
3.28482e-005
3.28485e-005
3.28487e-005
3.2849e-005
3.28492e-005
3.28494e-005
3.28497e-005
3.28499e-005
3.28501e-005
3.28503e-005
3.28505e-005
3.28507e-005
3.28509e-005
3.28511e-005
3.28513e-005
3.28515e-005
3.28517e-005
3.28518e-005
3.2852e-005
3.28522e-005
3.28523e-005
3.28525e-005
3.28526e-005
3.28528e-005
3.28529e-005
3.2853e-005
3.28531e-005
3.28533e-005
3.28534e-005
3.28535e-005
3.28535e-005
3.28536e-005
3.28537e-005
3.28537e-005
3.28537e-005
3.28537e-005
3.28537e-005
3.28536e-005
3.28534e-005
3.28528e-005
3.28522e-005
3.28518e-005
3.28515e-005
3.28514e-005
3.28517e-005
3.28524e-005
3.2853e-005
3.28535e-005
3.28539e-005
3.28542e-005
3.28545e-005
3.28548e-005
3.28551e-005
3.28555e-005
3.28558e-005
3.28565e-005
3.2857e-005
3.28578e-005
3.28591e-005
3.20133e-005
3.37588e-005
1.35451e-006
1.35462e-006
1.35471e-006
1.35479e-006
1.35488e-006
1.35496e-006
1.35503e-006
1.35511e-006
1.35518e-006
1.35526e-006
1.35533e-006
1.3554e-006
1.35547e-006
1.35554e-006
1.35561e-006
1.35568e-006
1.35575e-006
1.35582e-006
1.35589e-006
1.35596e-006
1.35603e-006
1.3561e-006
1.35617e-006
1.35624e-006
1.35631e-006
1.35638e-006
1.35645e-006
1.35653e-006
1.3566e-006
1.35667e-006
1.35674e-006
1.35682e-006
1.35689e-006
1.35696e-006
1.35704e-006
1.35711e-006
1.35718e-006
1.35727e-006
1.35734e-006
1.35742e-006
1.35749e-006
1.35757e-006
1.35764e-006
1.35772e-006
1.35779e-006
1.35786e-006
1.35794e-006
1.35801e-006
1.35808e-006
1.35816e-006
1.35823e-006
1.3583e-006
1.35837e-006
1.35844e-006
1.35852e-006
1.35859e-006
1.35866e-006
1.35873e-006
1.3588e-006
1.35887e-006
1.35894e-006
1.35901e-006
1.35907e-006
1.35914e-006
1.35921e-006
1.35927e-006
1.35934e-006
1.35941e-006
1.35947e-006
1.35953e-006
1.3596e-006
1.35967e-006
1.35973e-006
1.35979e-006
1.35986e-006
1.35992e-006
1.35997e-006
1.36003e-006
1.36009e-006
1.36015e-006
1.3602e-006
1.36026e-006
1.36032e-006
1.36037e-006
1.36042e-006
1.36048e-006
1.36053e-006
1.36058e-006
1.36063e-006
1.36068e-006
1.36073e-006
1.36077e-006
1.36082e-006
1.36087e-006
1.36091e-006
1.36095e-006
1.361e-006
1.36104e-006
1.36108e-006
1.36112e-006
1.36116e-006
1.36119e-006
1.36123e-006
1.36126e-006
1.36129e-006
1.36132e-006
1.36135e-006
1.36138e-006
1.3614e-006
1.36143e-006
1.36145e-006
1.36146e-006
1.36148e-006
1.36149e-006
1.36149e-006
1.3615e-006
1.36149e-006
1.36146e-006
1.36143e-006
1.3614e-006
1.36137e-006
1.36135e-006
1.36134e-006
1.36134e-006
1.36133e-006
1.36132e-006
1.3613e-006
1.36127e-006
1.36123e-006
1.36119e-006
1.36112e-006
1.36108e-006
1.36098e-006
1.36093e-006
1.36086e-006
1.36035e-006
1.34817e-006
4.38134e-006
0.000445691
2.30693e-007
2.3068e-007
2.30673e-007
2.30665e-007
2.30656e-007
2.30645e-007
2.30633e-007
2.30621e-007
2.30607e-007
2.30593e-007
2.30578e-007
2.30562e-007
2.30545e-007
2.30527e-007
2.30509e-007
2.3049e-007
2.30471e-007
2.3045e-007
2.3043e-007
2.30409e-007
2.30388e-007
2.30366e-007
2.30343e-007
2.30321e-007
2.30297e-007
2.30274e-007
2.30251e-007
2.30227e-007
2.30203e-007
2.30179e-007
2.30155e-007
2.30131e-007
2.30107e-007
2.30082e-007
2.30058e-007
2.30033e-007
2.30008e-007
2.29981e-007
2.29956e-007
2.29931e-007
2.29906e-007
2.29881e-007
2.29857e-007
2.29833e-007
2.29809e-007
2.29784e-007
2.2976e-007
2.29736e-007
2.29712e-007
2.29689e-007
2.29666e-007
2.29643e-007
2.29621e-007
2.29598e-007
2.29576e-007
2.29555e-007
2.29534e-007
2.29512e-007
2.29491e-007
2.29471e-007
2.2945e-007
2.2943e-007
2.29411e-007
2.29392e-007
2.29372e-007
2.29354e-007
2.29335e-007
2.29316e-007
2.29298e-007
2.29281e-007
2.29264e-007
2.29243e-007
2.29226e-007
2.29209e-007
2.29193e-007
2.29177e-007
2.29161e-007
2.29146e-007
2.29131e-007
2.29116e-007
2.29101e-007
2.29087e-007
2.29073e-007
2.29059e-007
2.29046e-007
2.29032e-007
2.2902e-007
2.29008e-007
2.28996e-007
2.28984e-007
2.28972e-007
2.2896e-007
2.28949e-007
2.28938e-007
2.28927e-007
2.28917e-007
2.28907e-007
2.28897e-007
2.28887e-007
2.28877e-007
2.28868e-007
2.28859e-007
2.28849e-007
2.28841e-007
2.28832e-007
2.28823e-007
2.28814e-007
2.28806e-007
2.28797e-007
2.28789e-007
2.2878e-007
2.28771e-007
2.28762e-007
2.28752e-007
2.28741e-007
2.2873e-007
2.28717e-007
2.28704e-007
2.2869e-007
2.28676e-007
2.28663e-007
2.2865e-007
2.28638e-007
2.28626e-007
2.28613e-007
2.286e-007
2.28586e-007
2.28571e-007
2.28554e-007
2.28536e-007
2.28519e-007
2.28499e-007
2.28484e-007
2.28452e-007
2.28454e-007
2.29724e-007
6.42076e-007
8.9905e-005
0.00554704
3.18131e-007
3.18065e-007
3.18e-007
3.17932e-007
3.17861e-007
3.17784e-007
3.17704e-007
3.17621e-007
3.17533e-007
3.17439e-007
3.17343e-007
3.17243e-007
3.17138e-007
3.17031e-007
3.16919e-007
3.16805e-007
3.16687e-007
3.16567e-007
3.16444e-007
3.16316e-007
3.16189e-007
3.1606e-007
3.15926e-007
3.15793e-007
3.15657e-007
3.15522e-007
3.15384e-007
3.15246e-007
3.15106e-007
3.14964e-007
3.14823e-007
3.14683e-007
3.14539e-007
3.14395e-007
3.14252e-007
3.14106e-007
3.13964e-007
3.13819e-007
3.13678e-007
3.13532e-007
3.13386e-007
3.13246e-007
3.13104e-007
3.12962e-007
3.12821e-007
3.12681e-007
3.12541e-007
3.12403e-007
3.12265e-007
3.12131e-007
3.11996e-007