/*--------------------------------*- C++ -*----------------------------------*\
| =========                 |                                                 |
| \\      /  F ield         | OpenFOAM: The Open Source CFD Toolbox           |
|  \\    /   O peration     | Version:  5.x                                   |
|   \\  /    A nd           | Web:      www.OpenFOAM.org                      |
|    \\/     M anipulation  |                                                 |
\*---------------------------------------------------------------------------*/
/*   Windows 32 and 64 bit porting by blueCAPE: http://www.bluecape.com.pt   *\
|  Based on Windows porting (2.0.x v4) by Symscape: http://www.symscape.com   |
\*---------------------------------------------------------------------------*/
FoamFile
{
    version     2.0;
    format      ascii;
    class       volScalarField;
    location    "60";
    object      k;
}
// * * * * * * * * * * * * * * * * * * * * * * * * * * * * * * * * * * * * * //

dimensions      [0 2 -2 0 0 0 0];

internalField   nonuniform List<scalar> 
43900
(
0.00102086
0.000990189
0.000990223
0.000990111
0.000990115
0.000990114
0.000990115
0.000990117
0.000990118
0.000990119
0.00099012
0.000990121
0.000990121
0.000990122
0.000990123
0.000990124
0.000990125
0.000990125
0.000990126
0.000990127
0.000990127
0.000990128
0.000990129
0.000990129
0.00099013
0.00099013
0.000990131
0.000990131
0.000990132
0.000113596
3.9151e-005
3.82623e-005
4.08822e-005
4.09734e-005
4.09687e-005
4.09709e-005
4.09738e-005
4.09756e-005
4.09773e-005
4.09789e-005
4.09805e-005
4.0982e-005
4.09834e-005
4.09849e-005
4.09862e-005
4.09875e-005
4.09887e-005
4.09899e-005
4.0991e-005
4.09921e-005
4.09931e-005
4.09941e-005
4.0995e-005
4.09959e-005
4.09967e-005
4.09976e-005
4.09983e-005
4.09988e-005
0.130057
0.00912633
0.000131436
4.00058e-006
3.02306e-006
3.08205e-006
3.08839e-006
3.08855e-006
3.08922e-006
3.08979e-006
3.0903e-006
3.09077e-006
3.09121e-006
3.0916e-006
3.09197e-006
3.09232e-006
3.09264e-006
3.09294e-006
3.09322e-006
3.09348e-006
3.09374e-006
3.09398e-006
3.0942e-006
3.09441e-006
3.09461e-006
3.09481e-006
3.095e-006
3.09519e-006
3.09536e-006
0.568492
0.156433
0.01933
0.000532878
7.2923e-006
1.90502e-006
1.85025e-006
1.84991e-006
1.85018e-006
1.85038e-006
1.85053e-006
1.85066e-006
1.85076e-006
1.85085e-006
1.85091e-006
1.85096e-006
1.85099e-006
1.85101e-006
1.85098e-006
1.85096e-006
1.85088e-006
1.85086e-006
1.85079e-006
1.85072e-006
1.85061e-006
1.85051e-006
1.85036e-006
1.8502e-006
1.85001e-006
0.934121
0.434214
0.144876
0.0184136
0.00041478
1.07131e-005
7.95491e-006
7.93926e-006
7.94235e-006
7.94456e-006
7.94666e-006
7.94858e-006
7.95012e-006
7.95159e-006
7.95266e-006
7.95362e-006
7.95419e-006
7.95456e-006
7.95448e-006
7.95477e-006
7.95448e-006
7.95426e-006
7.95365e-006
7.95281e-006
7.95167e-006
7.95012e-006
7.94826e-006
7.9463e-006
7.94473e-006
1.07231
0.555154
0.247574
0.0637183
0.0036297
6.78139e-005
4.45533e-005
4.44674e-005
4.44856e-005
4.4498e-005
4.45103e-005
4.45215e-005
4.45308e-005
4.45397e-005
4.45459e-005
4.45515e-005
4.45547e-005
4.45565e-005
4.45586e-005
4.45589e-005
4.45566e-005
4.45555e-005
4.45536e-005
4.45488e-005
4.45423e-005
4.45338e-005
4.45237e-005
4.45127e-005
4.45046e-005
1.12406
0.602472
0.287923
0.0922724
0.00852375
0.000195446
0.000116975
0.000116722
0.000116734
0.000116743
0.000116751
0.000116757
0.000116762
0.000116766
0.000116768
0.000116769
0.000116769
0.000116769
0.000116767
0.000116763
0.000116759
0.000116755
0.000116749
0.000116741
0.000116733
0.000116722
0.00011671
0.000116697
0.000116685
1.12286
0.607229
0.29562
0.100345
0.0105632
0.000272821
0.000157313
0.000156923
0.000156926
0.000156927
0.000156929
0.00015693
0.00015693
0.00015693
0.000156929
0.000156927
0.000156924
0.000156922
0.000156918
0.000156913
0.000156908
0.000156904
0.000156899
0.000156891
0.000156884
0.000156876
0.000156867
0.000156857
0.000156846
1.11437
0.604505
0.295238
0.101139
0.0108985
0.000297874
0.000174867
0.000174443
0.000174443
0.000174442
0.000174442
0.000174442
0.000174441
0.000174439
0.000174438
0.000174436
0.000174434
0.000174432
0.000174429
0.000174426
0.000174421
0.000174419
0.000174416
0.000174412
0.000174406
0.0001744
0.000174393
0.000174388
0.000174383
1.09741
0.595454
0.291226
0.0997692
0.0107001
0.00030051
0.000181508
0.000181092
0.00018109
0.000181089
0.000181089
0.000181088
0.000181087
0.000181086
0.000181084
0.000181084
0.000181083
0.00018108
0.000181078
0.000181077
0.000181075
0.000181073
0.00018107
0.000181069
0.000181067
0.000181063
0.00018106
0.000181059
0.000181055
1.07873
0.583915
0.284239
0.0961911
0.0100524
0.000294629
0.000183803
0.000183382
0.000183379
0.000183379
0.000183377
0.000183377
0.000183375
0.000183376
0.000183374
0.000183374
0.000183374
0.000183372
0.000183371
0.00018337
0.000183369
0.000183369
0.000183366
0.000183365
0.000183365
0.000183363
0.000183363
0.00018336
0.000183359
1.05829
0.571688
0.277107
0.0923003
0.0093222
0.000287608
0.000184568
0.00018412
0.000184115
0.000184117
0.000184115
0.000184114
0.000184113
0.000184115
0.000184114
0.000184111
0.000184112
0.000184111
0.000184111
0.00018411
0.00018411
0.00018411
0.000184108
0.000184107
0.000184106
0.000184106
0.000184106
0.000184103
0.000184103
1.03599
0.55843
0.269467
0.0883364
0.00863545
0.000281504
0.000184837
0.000184352
0.000184347
0.000184348
0.000184347
0.000184347
0.000184346
0.000184347
0.000184347
0.000184343
0.000184343
0.000184343
0.000184343
0.000184343
0.000184342
0.000184341
0.000184341
0.00018434
0.000184338
0.000184339
0.000184339
0.000184338
0.000184336
1.01206
0.544243
0.261327
0.0841937
0.0079563
0.000275821
0.000184958
0.000184432
0.000184427
0.000184428
0.000184427
0.000184426
0.000184425
0.000184426
0.000184426
0.000184423
0.00018442
0.000184422
0.000184423
0.000184422
0.00018442
0.00018442
0.00018442
0.00018442
0.000184417
0.000184418
0.000184418
0.000184417
0.000184416
0.986445
0.529122
0.252701
0.079886
0.00729035
0.000270853
0.000185047
0.000184472
0.000184466
0.000184466
0.000184465
0.000184465
0.000184463
0.000184464
0.000184465
0.000184462
0.000184459
0.000184461
0.00018446
0.00018446
0.000184457
0.000184458
0.000184458
0.000184457
0.000184453
0.000184454
0.000184454
0.000184453
0.000184452
0.959
0.513
0.243561
0.0754158
0.00664117
0.000266566
0.000185141
0.000184505
0.000184498
0.000184498
0.000184498
0.000184497
0.000184496
0.000184496
0.000184496
0.000184494
0.000184492
0.000184493
0.000184494
0.000184493
0.00018449
0.00018449
0.00018449
0.000184489
0.000184484
0.000184484
0.000184484
0.000184484
0.000184483
0.929636
0.495831
0.233886
0.0707888
0.00601176
0.000262837
0.000185249
0.000184546
0.000184538
0.000184538
0.000184537
0.000184537
0.000184535
0.000184534
0.000184532
0.00018453
0.000184528
0.000184529
0.00018453
0.000184529
0.000184524
0.000184524
0.000184524
0.000184524
0.000184523
0.000184522
0.00018452
0.000184518
0.000184516
0.898312
0.477601
0.223673
0.0660225
0.00540667
0.000259579
0.000185379
0.000184597
0.000184587
0.000184585
0.000184585
0.000184583
0.000184584
0.000184583
0.000184582
0.00018458
0.000184576
0.000184575
0.000184575
0.000184573
0.00018457
0.000184568
0.000184568
0.000184566
0.000184564
0.000184563
0.000184561
0.000184561
0.000184559
0.865013
0.458314
0.212932
0.0611438
0.00483097
0.000256726
0.000185535
0.00018466
0.000184646
0.000184645
0.000184644
0.000184644
0.000184641
0.000184639
0.000184638
0.000184636
0.000184636
0.000184634
0.000184632
0.00018463
0.000184628
0.000184627
0.000184626
0.000184625
0.000184622
0.000184619
0.000184616
0.000184615
0.000184612
0.829758
0.437994
0.201684
0.0561873
0.0042895
0.000254206
0.00018572
0.000184742
0.000184726
0.000184724
0.000184722
0.000184721
0.000184719
0.000184719
0.000184718
0.000184716
0.000184713
0.000184711
0.00018471
0.000184708
0.000184703
0.0001847
0.000184696
0.000184692
0.00018469
0.000184686
0.000184682
0.000184678
0.000184673
0.792598
0.416683
0.18996
0.0511933
0.00378618
0.00025196
0.000185945
0.000184848
0.000184828
0.000184825
0.000184824
0.000184823
0.000184822
0.00018482
0.000184817
0.000184812
0.000184806
0.000184803
0.000184797
0.000184795
0.000184795
0.000184792
0.000184791
0.000184783
0.000184778
0.000184771
0.000184761
0.000184759
0.000184757
0.753628
0.394449
0.177805
0.0462086
0.003324
0.000249933
0.000186215
0.000184984
0.000184956
0.000184954
0.000184953
0.00018495
0.000184946
0.000184942
0.000184937
0.000184935
0.000184931
0.000184925
0.000184925
0.000184917
0.000184911
0.000184907
0.000184892
0.000184892
0.000184885
0.000184871
0.000184876
0.000184867
0.000184859
0.712985
0.371381
0.165277
0.0412854
0.00290475
0.000248076
0.000186533
0.000185155
0.00018512
0.000185116
0.000185111
0.000185108
0.000185105
0.000185099
0.000185097
0.000185091
0.000185085
0.000185084
0.000185068
0.000185067
0.000185061
0.000185037
0.000185045
0.000185027
0.000185018
0.00018503
0.000184996
0.000185
0.000185
0.67085
0.347595
0.152449
0.0364791
0.00252888
0.00024635
0.000186909
0.000185369
0.000185323
0.000185317
0.000185315
0.000185312
0.000185308
0.000185307
0.000185294
0.000185288
0.000185281
0.000185252
0.000185259
0.000185239
0.00018522
0.000185239
0.000185194
0.000185206
0.000185211
0.000185164
0.000185194
0.000185168
0.000185132
0.627453
0.32323
0.139407
0.0318473
0.00219561
0.000244726
0.000187359
0.000185642
0.000185581
0.000185577
0.000185569
0.00018556
0.000185556
0.000185534
0.000185534
0.000185525
0.000185494
0.000185514
0.000185471
0.000185478
0.000185492
0.000185426
0.000185463
0.000185432
0.000185382
0.000185434
0.00018536
0.000185363
0.0001854
0.58307
0.29845
0.126255
0.0274472
0.001903
0.000243185
0.000187889
0.000185974
0.000185903
0.000185888
0.000185883
0.000185875
0.000185847
0.000185857
0.000185829
0.000185811
0.000185836
0.000185764
0.000185797
0.00018578
0.000185711
0.000185769
0.000185696
0.000185675
0.000185738
0.000185634
0.000185663
0.000185664
0.000185569
0.53802
0.27344
0.113113
0.0233326
0.0016482
0.000241699
0.000188499
0.000186395
0.000186279
0.000186278
0.000186262
0.000186239
0.000186254
0.000186203
0.000186218
0.000186226
0.000186149
0.000186195
0.000186131
0.000186086
0.000186149
0.000186067
0.000186043
0.000186095
0.000185979
0.000186004
0.000185993
0.000185878
0.000185935
0.492663
0.248404
0.100115
0.0195512
0.00142777
0.000240253
0.000189235
0.000186885
0.000186796
0.000186745
0.000186746
0.000186751
0.000186682
0.00018672
0.00018668
0.000186613
0.00018666
0.000186595
0.000186557
0.000186618
0.00018653
0.000186458
0.000186559
0.000186399
0.000186423
0.00018644
0.000186282
0.000186363
0.000186256
0.447394
0.223561
0.0874122
0.016141
0.00123802
0.000238849
0.000190049
0.00018755
0.000187331
0.000187352
0.000187319
0.000187275
0.000187323
0.00018722
0.000187218
0.000187268
0.000187187
0.000187099
0.000187201
0.000187064
0.000187006
0.000187182
0.000186931
0.00018698
0.000187011
0.000186784
0.000186908
0.000186786
0.00018671
0.402632
0.199138
0.0751669
0.0131281
0.00107534
0.000237448
0.000191058
0.000188212
0.000188118
0.000187996
0.000188014
0.000188027
0.000187902
0.000187983
0.000187947
0.000187827
0.000187823
0.00018798
0.000187712
0.000187718
0.000187888
0.000187586
0.000187705
0.000187702
0.000187407
0.000187564
0.000187398
0.00018731
0.000187372
0.35881
0.175371
0.0635507
0.0105242
0.000936399
0.000236159
0.000192086
0.000189227
0.000188847
0.000188892
0.000188854
0.000188775
0.000188854
0.000188689
0.000188774
0.000188761
0.000188718
0.000188508
0.000188691
0.000188697
0.000188353
0.000188528
0.000188458
0.000188198
0.000188405
0.000188127
0.000188103
0.000188223
0.000187923
0.316361
0.152491
0.0527358
0.00832502
0.000818243
0.00023488
0.000193463
0.000190102
0.000189971
0.000189852
0.000189805
0.000189852
0.000189737
0.000189887
0.000189631
0.000189576
0.000189727
0.000189723
0.000189476
0.00018937
0.000189601
0.000189352
0.000189162
0.000189398
0.000189057
0.000189181
0.000189143
0.00018875
0.000188821
0.275705
0.13073
0.0428844
0.00651122
0.000718353
0.000233828
0.000194752
0.000191526
0.000191032
0.000190981
0.000191046
0.000190983
0.000190983
0.000190769
0.000190997
0.00019105
0.000190676
0.000190587
0.00019083
0.000190847
0.000190446
0.000190443
0.000190638
0.000190221
0.000190262
0.000190036
0.000190016
0.000189978
0.000189738
0.237233
0.11031
0.0341339
0.00504984
0.000634527
0.000232895
0.000196476
0.000192788
0.000192442
0.000192443
0.000192363
0.000192245
0.000192287
0.000192451
0.000192204
0.000192055
0.000192246
0.000192281
0.000191961
0.000191822
0.000192058
0.000191916
0.000191521
0.00019163
0.000191552
0.000191546
0.000191128
0.000191107
0.000191055
0.201295
0.0914452
0.0265802
0.00389826
0.00056481
0.000232241
0.000198251
0.000194528
0.000193999
0.000193974
0.000193826
0.000194002
0.00019401
0.000193664
0.000193795
0.000193977
0.000193872
0.000193495
0.000193704
0.000193703
0.000193258
0.000193519
0.0001934
0.000193237
0.000192876
0.000192567
0.000192949
0.000192499
0.000192253
0.168189
0.0743334
0.020262
0.00300857
0.000507354
0.000232034
0.000200205
0.000196308
0.000195957
0.00019559
0.00019584
0.000195704
0.00019551
0.000195892
0.000195638
0.00019564
0.000195502
0.000195887
0.000195325
0.000195213
0.000195639
0.00019513
0.000195208
0.000194874
0.000194872
0.000194893
0.000194258
0.000194557
0.000194292
0.138157
0.0591451
0.0151515
0.00233239
0.000460756
0.000231928
0.000202639
0.000198558
0.00019758
0.000197936
0.000197654
0.000197589
0.000197943
0.000197599
0.000197862
0.000197735
0.000197838
0.00019744
0.00019797
0.000197908
0.000197227
0.00019739
0.000197151
0.000197475
0.000197189
0.000196437
0.000196817
0.000196069
0.000196141
0.11138
0.046007
0.0111565
0.00182506
0.000422925
0.000232746
0.000204825
0.000200538
0.00020043
0.000199788
0.00019987
0.000200235
0.000199973
0.000200048
0.000199986
0.00020028
0.000200225
0.000200497
0.000199885
0.000200218
0.000200117
0.000199586
0.000200077
0.000199496
0.000199487
0.000199588
0.000198786
0.00019896
0.000198302
0.0879705
0.0349733
0.00813314
0.00144731
0.000393297
0.000233262
0.000207884
0.000203601
0.000202135
0.000202608
0.000202675
0.000202175
0.000202609
0.000202827
0.000202723
0.000202833
0.00020278
0.000202675
0.000203386
0.000202835
0.000202952
0.00020342
0.000202347
0.000202832
0.000202635
0.000202188
0.000202175
0.000201288
0.000201616
0.0679617
0.0260059
0.0059085
0.00116747
0.000369191
0.000235154
0.000210524
0.00020561
0.000205621
0.000204949
0.000204869
0.000205844
0.000205231
0.00020521
0.000205998
0.000205628
0.000206196
0.000206438
0.000205918
0.000206537
0.00020645
0.00020602
0.000206581
0.000205798
0.000206149
0.000205801
0.000205208
0.000205567
0.000204424
0.0512937
0.0189618
0.00430637
0.000959335
0.000350948
0.00023637
0.000213715
0.000209677
0.000207569
0.000208121
0.000208699
0.000207849
0.000208657
0.000209298
0.000208402
0.000209453
0.000209421
0.000209146
0.00021033
0.000209735
0.000210026
0.00021046
0.000210163
0.000210561
0.0002096
0.000210133
0.000210151
0.000208975
0.000209015
0.037802
0.0136099
0.00316749
0.000804124
0.000335896
0.000238698
0.000217615
0.000211573
0.000211632
0.000211068
0.000210609
0.000212014
0.000212013
0.0002116
0.000212627
0.000212579
0.00021297
0.000214377
0.000213313
0.000214499
0.000215046
0.000214419
0.000214853
0.000214779
0.000215636
0.000214571
0.000213958
0.000214134
0.000213109
0.0272139
0.00966336
0.00236149
0.000686676
0.000324009
0.000241412
0.000219841
0.000216402
0.000213807
0.000214004
0.000215133
0.000214614
0.000215452
0.000215735
0.000215991
0.000217337
0.000217137
0.000217405
0.000219007
0.000218667
0.000218866
0.000220358
0.000219861
0.000220138
0.000219874
0.000221235
0.000220545
0.000219824
0.000219636
0.0191673
0.0068231
0.0017893
0.000596406
0.000314807
0.000242579
0.000225171
0.000218428
0.000217947
0.000217999
0.000217504
0.000218706
0.000218214
0.00021963
0.000221315
0.000220578
0.000221468
0.000221554
0.000222579
0.000225464
0.000224815
0.000224877
0.000226722
0.000226772
0.000227181
0.000226202
0.000227633
0.000227077
0.000225957
0.0132424
0.00481487
0.00137913
0.000526505
0.000305664
0.000246423
0.000227023
0.000223085
0.000221043
0.000220623
0.0002214
0.000221361
0.000223489
0.000223932
0.000223596
0.000224739
0.000226176
0.000228644
0.000228358
0.00022864
0.000231406
0.000232466
0.00023254
0.000234005
0.000233867
0.000235468
0.000234152
0.000235288
0.000234951
0.00900797
0.0034096
0.00108196
0.000469931
0.00029942
0.000246906
0.000231757
0.000225578
0.000224171
0.000224266
0.000224902
0.000226689
0.000226021
0.000226766
0.000229
0.000229764
0.000230806
0.000231739
0.000234231
0.000235937
0.000236153
0.000238239
0.000241156
0.000241713
0.000244017
0.00024365
0.000245596
0.000243993
0.000244806
0.00606045
0.00243127
0.000863019
0.000425322
0.000291423
0.000249578
0.00023354
0.000229469
0.000228192
0.000228227
0.000228078
0.000228184
0.00023108
0.000230847
0.000231885
0.000235284
0.000235834
0.000236978
0.000238255
0.000240021
0.000245868
0.000246542
0.000248318
0.000251584
0.000252348
0.000255194
0.000254984
0.000256931
0.000255666
0.004054
0.00175007
0.000700659
0.000387241
0.000286267
0.00024951
0.000237677
0.000232203
0.000230612
0.000230682
0.00023129
0.000233439
0.000233239
0.00023647
0.000236526
0.000237305
0.000241059
0.000242364
0.000245897
0.000246852
0.000249216
0.000255818
0.000257399
0.000259255
0.000264453
0.000265952
0.000270884
0.000269698
0.000271163
0.00271221
0.00127596
0.000578273
0.000357026
0.00027856
0.000250683
0.000238644
0.000235371
0.00023455
0.000234127
0.00023484
0.000235191
0.000238249
0.000238187
0.000241841
0.000242804
0.00024396
0.000247757
0.000249941
0.000255573
0.000257133
0.000259805
0.000267101
0.000269688
0.000275239
0.000280281
0.000282756
0.000289484
0.000288471
0.00182665
0.000945697
0.00048632
0.000330356
0.000273606
0.000249753
0.000241619
0.000237083
0.000236642
0.000237241
0.000237472
0.000239249
0.000239684
0.000243254
0.00024401
0.000247308
0.000249783
0.000251523
0.000255608
0.000258521
0.000264808
0.000268946
0.000272653
0.000283342
0.000287629
0.000298246
0.000301525
0.00030474
0.000312417
0.00124742
0.000715513
0.000416273
0.000309129
0.000266742
0.000249519
0.000241796
0.00024022
0.000238971
0.000239291
0.000240714
0.000241338
0.00024332
0.000244579
0.000248955
0.000250131
0.000252707
0.000257999
0.000260435
0.000265609
0.000268528
0.000276397
0.000283483
0.000289451
0.000303439
0.000310457
0.000328307
0.000330908
0.000334833
0.000870242
0.000554588
0.000363292
0.000290721
0.00026139
0.000248408
0.00024306
0.000240705
0.000241696
0.000241577
0.00024213
0.000244562
0.000245508
0.000247963
0.000249567
0.000254247
0.00025719
0.000260634
0.000265912
0.000270446
0.00027747
0.000282171
0.000291649
0.000302011
0.000310237
0.000329528
0.000340984
0.0003696
0.000371071
0.000625555
0.000442382
0.000323302
0.000275876
0.000256613
0.000246188
0.000244589
0.000242072
0.000242515
0.000243622
0.000245079
0.000245462
0.000248244
0.000250779
0.000252555
0.000254601
0.000260902
0.000263353
0.000270091
0.000273501
0.00028162
0.000288915
0.000300518
0.000309482
0.000325229
0.000338277
0.000366947
0.00038618
0.000429666
0.000466818
0.000364273
0.00029324
0.000264003
0.00025146
0.000245137
0.000244559
0.000242611
0.000244941
0.000244509
0.000246578
0.00024767
0.000250589
0.000251856
0.000256107
0.000258143
0.000263271
0.000266005
0.000272155
0.0002761
0.000284707
0.000292151
0.000306036
0.000315262
0.00033586
0.000351914
0.000388853
0.000414707
0.000471828
0.000365103
0.000310919
0.000271572
0.000254904
0.000248397
0.000243693
0.000244989
0.000243105
0.000246601
0.000245077
0.000248633
0.000248977
0.000251699
0.000252737
0.000256998
0.000259534
0.000266491
0.000271941
0.000284756
0.000310325
0.000362713
0.00048375
0.000643029
0.0010231
0.0013296
0.00200683
0.00239809
0.00277262
0.00252912
0.0002998
0.000274825
0.000255972
0.000247866
0.000243756
0.000243576
0.000244178
0.000243739
0.000246911
0.00024697
0.00025211
0.000254036
0.000264217
0.000281463
0.000335377
0.000445893
0.000780471
0.00137194
0.00262171
0.00472532
0.00788971
0.0129545
0.0182739
0.0276714
0.0344543
0.0482829
0.0545352
0.0692681
0.0645115
0.000261258
0.000252061
0.000245151
0.000243915
0.000243464
0.000244827
0.00025034
0.000257776
0.000285628
0.000323077
0.000512052
0.000773234
0.00166758
0.00294801
0.00585456
0.00945905
0.0171063
0.0257802
0.0394809
0.0553763
0.0764332
0.10157
0.130231
0.169286
0.20474
0.266051
0.306563
0.40898
0.415137
0.000237696
0.000241111
0.00024849
0.000265866
0.000300121
0.000382367
0.000783229
0.00115754
0.00244857
0.00371377
0.00802169
0.0119201
0.0215193
0.0317167
0.0473047
0.0650855
0.0900717
0.118298
0.154298
0.19563
0.246037
0.305652
0.375825
0.465268
0.563014
0.707923
0.843519
1.12196
1.2609
0.000239462
0.000305462
0.000484523
0.000933997
0.0016721
0.00309581
0.00729069
0.0107923
0.0190324
0.0260947
0.0427941
0.0562743
0.0825018
0.108873
0.142658
0.181508
0.230598
0.286648
0.354975
0.433011
0.528049
0.63874
0.77456
0.939032
1.14146
1.40751
1.73368
2.22373
2.67061
0.000990132
0.000990133
0.000990133
0.000990134
0.000990134
0.000990135
0.000990135
0.000990136
0.000990136
0.000990137
0.000990137
0.000990137
0.000990138
0.000990138
0.000990138
0.000990139
0.000990139
0.000990139
0.00099014
0.00099014
0.00099014
0.000990141
0.000990141
0.000990141
0.000990142
0.000990142
0.000990142
0.000990142
0.000990143
0.000990143
0.000990143
0.000990144
0.000990144
0.000990144
0.000990145
0.000990145
0.000990145
0.000990145
0.000990146
0.000990146
0.000990146
0.000990147
0.000990147
0.000990147
0.000990147
0.000990148
0.000990148
0.000990148
0.000990149
0.000990149
0.000990149
0.000990149
0.00099015
0.00099015
0.00099015
0.00099015
0.000990151
0.000990151
0.000990151
0.000990151
0.000990152
0.000990152
0.000990152
0.000990152
0.000990153
0.000990153
0.000990153
0.000990153
0.000990153
0.000990154
0.000990154
0.000990154
0.000990154
0.000990155
0.000990155
0.000990155
0.000990155
0.000990155
0.000990156
0.000990156
0.000990156
0.000990156
0.000990156
0.000990156
0.000990157
0.000990157
0.000990157
0.000990157
0.000990157
0.000990157
0.000990157
0.000990158
0.000990158
0.000990158
0.000990158
0.000990158
0.000990158
0.000990158
0.000990158
0.000990159
0.000990159
0.000990159
0.000990159
0.000990159
0.000990159
0.000990159
0.000990159
0.000990159
0.000990159
0.000990159
0.000990159
0.000990159
0.000990159
0.000990159
0.000990159
0.000990159
0.000990159
0.000990159
0.000990158
0.000990158
0.000990157
0.000990157
0.000990158
0.000990158
0.000990159
0.000990159
0.00099016
0.00099016
0.00099016
0.000990161
0.000990161
0.000990161
0.000990162
0.000990162
0.000990163
0.000990164
0.000990166
0.000990251
0.00100819
4.09997e-005
4.10008e-005
4.10017e-005
4.10025e-005
4.10033e-005
4.10041e-005
4.10048e-005
4.10055e-005
4.10062e-005
4.10068e-005
4.10075e-005
4.10081e-005
4.10087e-005
4.10093e-005
4.10099e-005
4.10104e-005
4.1011e-005
4.10115e-005
4.10121e-005
4.10126e-005
4.10131e-005
4.10137e-005
4.10142e-005
4.10147e-005
4.10152e-005
4.10158e-005
4.10163e-005
4.10168e-005
4.10173e-005
4.10178e-005
4.10183e-005
4.10188e-005
4.10193e-005
4.10198e-005
4.10203e-005
4.10208e-005
4.10213e-005
4.10218e-005
4.10223e-005
4.10228e-005
4.10233e-005
4.10238e-005
4.10243e-005
4.10248e-005
4.10253e-005
4.10257e-005
4.10262e-005
4.10267e-005
4.10272e-005
4.10277e-005
4.10281e-005
4.10286e-005
4.10291e-005
4.10295e-005
4.103e-005
4.10304e-005
4.10309e-005
4.10313e-005
4.10318e-005
4.10322e-005
4.10327e-005
4.10331e-005
4.10335e-005
4.10339e-005
4.10344e-005
4.10348e-005
4.10352e-005
4.10356e-005
4.1036e-005
4.10364e-005
4.10367e-005
4.10371e-005
4.10375e-005
4.10379e-005
4.10382e-005
4.10386e-005
4.10389e-005
4.10393e-005
4.10396e-005
4.104e-005
4.10403e-005
4.10406e-005
4.10409e-005
4.10413e-005
4.10416e-005
4.10419e-005
4.10422e-005
4.10424e-005
4.10427e-005
4.1043e-005
4.10433e-005
4.10435e-005
4.10438e-005
4.10441e-005
4.10443e-005
4.10445e-005
4.10448e-005
4.1045e-005
4.10452e-005
4.10454e-005
4.10456e-005
4.10458e-005
4.1046e-005
4.10462e-005
4.10463e-005
4.10465e-005
4.10466e-005
4.10468e-005
4.10469e-005
4.1047e-005
4.10471e-005
4.10471e-005
4.10472e-005
4.10472e-005
4.10471e-005
4.1047e-005
4.10467e-005
4.1046e-005
4.10453e-005
4.10448e-005
4.10445e-005
4.10445e-005
4.10449e-005
4.10457e-005
4.10464e-005
4.10469e-005
4.10474e-005
4.10478e-005
4.10481e-005
4.10484e-005
4.10486e-005
4.10491e-005
4.10494e-005
4.10502e-005
4.10507e-005
4.10516e-005
4.10527e-005
3.90682e-005
4.21336e-005
3.09557e-006
3.09584e-006
3.09606e-006
3.09626e-006
3.09647e-006
3.09667e-006
3.09686e-006
3.09705e-006
3.09724e-006
3.09743e-006
3.09761e-006
3.0978e-006
3.09798e-006
3.09816e-006
3.09834e-006
3.09853e-006
3.09871e-006
3.0989e-006
3.09908e-006
3.09927e-006
3.09945e-006
3.09964e-006
3.09983e-006
3.10002e-006
3.10021e-006
3.1004e-006
3.10059e-006
3.10079e-006
3.10098e-006
3.10118e-006
3.10138e-006
3.10157e-006
3.10177e-006
3.10197e-006
3.10217e-006
3.10237e-006
3.10256e-006
3.10281e-006
3.10301e-006
3.10322e-006
3.10342e-006
3.10362e-006
3.10382e-006
3.10402e-006
3.10422e-006
3.10443e-006
3.10462e-006
3.10482e-006
3.10502e-006
3.10522e-006
3.10541e-006
3.10561e-006
3.1058e-006
3.106e-006
3.10619e-006
3.10638e-006
3.10657e-006
3.10676e-006
3.10694e-006
3.10713e-006
3.10732e-006
3.1075e-006
3.10769e-006
3.10787e-006
3.10805e-006
3.10822e-006
3.1084e-006
3.10857e-006
3.10874e-006
3.10891e-006
3.10908e-006
3.10929e-006
3.10946e-006
3.10962e-006
3.10978e-006
3.10994e-006
3.1101e-006
3.11026e-006
3.11041e-006
3.11056e-006
3.11071e-006
3.11086e-006
3.11101e-006
3.11115e-006
3.11129e-006
3.11143e-006
3.11157e-006
3.1117e-006
3.11183e-006
3.11196e-006
3.11209e-006
3.11222e-006
3.11234e-006
3.11246e-006
3.11258e-006
3.1127e-006
3.11281e-006
3.11292e-006
3.11303e-006
3.11313e-006
3.11323e-006
3.11332e-006
3.11342e-006
3.11351e-006
3.11359e-006
3.11367e-006
3.11375e-006
3.11383e-006
3.11389e-006
3.11396e-006
3.11401e-006
3.11406e-006
3.1141e-006
3.11414e-006
3.11416e-006
3.11417e-006
3.11417e-006
3.11413e-006
3.11408e-006
3.11404e-006
3.114e-006
3.11398e-006
3.11398e-006
3.11398e-006
3.11397e-006
3.11394e-006
3.11389e-006
3.11383e-006
3.11375e-006
3.11367e-006
3.11353e-006
3.11344e-006
3.11325e-006
3.11312e-006
3.11299e-006
3.11104e-006
3.07618e-006
2.56029e-005
0.00332527
1.84982e-006
1.84954e-006
1.84929e-006
1.84904e-006
1.84878e-006
1.8485e-006
1.84821e-006
1.84791e-006
1.84758e-006
1.84725e-006
1.84692e-006
1.84656e-006
1.8462e-006
1.84583e-006
1.84544e-006
1.84505e-006
1.84465e-006
1.84422e-006
1.8438e-006
1.84337e-006
1.84294e-006
1.84249e-006
1.84203e-006
1.84157e-006
1.84111e-006
1.84064e-006
1.84017e-006
1.83969e-006
1.83921e-006
1.83872e-006
1.83823e-006
1.83774e-006
1.83726e-006
1.83676e-006
1.83627e-006
1.83577e-006
1.83527e-006
1.83471e-006
1.8342e-006
1.83371e-006
1.8332e-006
1.8327e-006
1.8322e-006
1.8317e-006
1.83122e-006
1.83072e-006
1.83022e-006
1.82973e-006
1.82925e-006
1.82877e-006
1.8283e-006
1.82783e-006
1.82736e-006
1.8269e-006
1.82644e-006
1.82599e-006
1.82554e-006
1.82509e-006
1.82465e-006
1.82422e-006
1.82379e-006
1.82337e-006
1.82295e-006
1.82254e-006
1.82213e-006
1.82174e-006
1.82134e-006
1.82095e-006
1.82056e-006
1.82019e-006
1.81982e-006
1.81939e-006
1.81902e-006
1.81866e-006
1.8183e-006
1.81795e-006
1.81761e-006
1.81728e-006
1.81696e-006
1.81663e-006
1.81631e-006
1.816e-006
1.81569e-006
1.81539e-006
1.81509e-006
1.8148e-006
1.81452e-006
1.81425e-006
1.81398e-006
1.81372e-006
1.81345e-006
1.8132e-006
1.81295e-006
1.81271e-006
1.81247e-006
1.81224e-006
1.81201e-006
1.81179e-006
1.81157e-006
1.81136e-006
1.81116e-006
1.81096e-006
1.81076e-006
1.81058e-006
1.81039e-006
1.81021e-006
1.81003e-006
1.80986e-006
1.80969e-006
1.80952e-006
1.80936e-006
1.8092e-006
1.80904e-006
1.80888e-006
1.80872e-006
1.80856e-006
1.8084e-006
1.80825e-006
1.8081e-006
1.80796e-006
1.80784e-006
1.80771e-006
1.80758e-006
1.80746e-006
1.80734e-006
1.80724e-006
1.80712e-006
1.80701e-006
1.8069e-006
1.80681e-006
1.80665e-006
1.80667e-006
1.80637e-006
1.8066e-006
1.80604e-006
1.82375e-006
6.54188e-006
0.0010681
0.0429738
7.94244e-006
7.93956e-006
7.93676e-006
7.93383e-006
7.9308e-006
7.92749e-006
7.92406e-006
7.9205e-006
7.91673e-006
7.91271e-006
7.90855e-006
7.90427e-006
7.89979e-006
7.8952e-006
7.89037e-006
7.88545e-006
7.88034e-006
7.87522e-006
7.8699e-006
7.86438e-006
7.85892e-006
7.85336e-006
7.84756e-006
7.84184e-006
7.83596e-006
7.83017e-006
7.8242e-006
7.81824e-006
7.81218e-006
7.80607e-006
7.79995e-006
7.79392e-006
7.78766e-006
7.78144e-006
7.77528e-006
7.76895e-006
7.76278e-006
7.7565e-006
7.75044e-006
7.74406e-006
7.73778e-006
7.73174e-006
7.72555e-006
7.7194e-006
7.71328e-006
7.70721e-006
7.70117e-006
7.69519e-006
7.68918e-006
7.68337e-006
7.67749e-006
7.67168e-006
7.666e-006
7.66033e-006
7.65475e-006
7.64919e-006
7.64364e-006
7.63822e-006
7.63286e-006
7.62758e-006
7.62225e-006
7.61706e-006
7.61209e-006
7.60694e-006
7.60189e-006
7.59706e-006
7.59215e-006
7.58734e-006
7.58265e-006
7.57803e-006
7.57344e-006
7.56889e-006
7.56442e-006
7.56009e-006
7.5558e-006
7.55152e-006
7.54739e-006
7.54337e-006
7.53939e-006
7.53534e-006
7.53148e-006
7.52768e-006
7.52395e-006
7.52023e-006
7.51663e-006
7.51313e-006
7.50979e-006
7.50637e-006
7.5031e-006
7.49987e-006
7.49666e-006
7.49367e-006
7.49058e-006
7.48755e-006
7.48475e-006
7.48189e-006
7.47914e-006
7.47637e-006
7.47377e-006
7.47127e-006
7.46876e-006
7.4663e-006
7.46401e-006
7.46166e-006
7.45942e-006
7.45718e-006
7.45496e-006
7.45288e-006
7.45093e-006
7.44902e-006
7.44712e-006
7.44531e-006
7.44351e-006
7.44181e-006
7.44009e-006
7.43829e-006
7.43658e-006
7.43471e-006
7.43279e-006
7.43089e-006
7.42904e-006
7.42727e-006
7.42536e-006
7.42366e-006
7.422e-006
7.42025e-006
7.41874e-006
7.41703e-006
7.41516e-006
7.41408e-006
7.41115e-006
7.41152e-006
7.40652e-006
7.40954e-006
7.40362e-006
8.49833e-006
0.000315002
0.0210752
0.223589
4.44923e-005
4.4476e-005
4.44601e-005
4.44436e-005
4.44261e-005
4.44069e-005
4.4387e-005
4.43661e-005
4.43438e-005
4.43199e-005
4.42954e-005
4.42696e-005
4.42419e-005
4.42146e-005
4.41855e-005
4.41556e-005
4.41239e-005
4.4093e-005
4.40599e-005
4.40263e-005
4.39927e-005
4.39591e-005