/*--------------------------------*- C++ -*----------------------------------*\
| =========                 |                                                 |
| \\      /  F ield         | OpenFOAM: The Open Source CFD Toolbox           |
|  \\    /   O peration     | Version:  5.x                                   |
|   \\  /    A nd           | Web:      www.OpenFOAM.org                      |
|    \\/     M anipulation  |                                                 |
\*---------------------------------------------------------------------------*/
/*   Windows 32 and 64 bit porting by blueCAPE: http://www.bluecape.com.pt   *\
|  Based on Windows porting (2.0.x v4) by Symscape: http://www.symscape.com   |
\*---------------------------------------------------------------------------*/
FoamFile
{
    version     2.0;
    format      ascii;
    class       volScalarField;
    location    "60";
    object      nut;
}
// * * * * * * * * * * * * * * * * * * * * * * * * * * * * * * * * * * * * * //

dimensions      [0 2 -1 0 0 0 0];

internalField   nonuniform List<scalar> 
43900
(
6.01712e-005
5.80648e-005
5.80677e-005
5.80582e-005
5.80585e-005
5.80585e-005
5.80585e-005
5.80587e-005
5.80587e-005
5.80588e-005
5.80589e-005
5.8059e-005
5.8059e-005
5.80591e-005
5.80591e-005
5.80592e-005
5.80593e-005
5.80593e-005
5.80594e-005
5.80594e-005
5.80595e-005
5.80595e-005
5.80596e-005
5.80596e-005
5.80597e-005
5.80597e-005
5.80597e-005
5.80598e-005
5.80598e-005
1.90915e-005
4.34824e-006
4.17673e-006
4.59266e-006
4.60706e-006
4.60634e-006
4.60665e-006
4.60696e-006
4.60718e-006
4.60738e-006
4.60757e-006
4.60775e-006
4.60793e-006
4.6081e-006
4.60826e-006
4.60842e-006
4.60857e-006
4.60871e-006
4.60885e-006
4.60897e-006
4.6091e-006
4.60921e-006
4.60933e-006
4.60943e-006
4.60954e-006
4.60963e-006
4.60973e-006
4.60981e-006
4.60987e-006
0.0674927
0.00755032
0.000104042
9.49648e-007
6.16932e-007
6.33546e-007
6.35261e-007
6.35302e-007
6.35432e-007
6.35541e-007
6.35641e-007
6.35734e-007
6.35819e-007
6.35897e-007
6.3597e-007
6.36038e-007
6.36102e-007
6.36161e-007
6.36219e-007
6.36272e-007
6.36324e-007
6.36372e-007
6.36418e-007
6.36461e-007
6.36504e-007
6.36544e-007
6.36586e-007
6.36626e-007
6.36663e-007
0.298658
0.124424
0.0229018
0.000808645
7.97399e-006
1.39518e-006
1.3373e-006
1.33687e-006
1.33706e-006
1.33714e-006
1.33717e-006
1.33718e-006
1.33717e-006
1.33715e-006
1.33712e-006
1.33707e-006
1.33702e-006
1.33695e-006
1.33684e-006
1.33674e-006
1.33656e-006
1.33648e-006
1.33633e-006
1.33621e-006
1.33599e-006
1.33593e-006
1.33572e-006
1.3355e-006
1.33524e-006
0.519383
0.340649
0.161693
0.0286947
0.000808477
2.34058e-005
1.78722e-005
1.78382e-005
1.78508e-005
1.78578e-005
1.78641e-005
1.78698e-005
1.78744e-005
1.78787e-005
1.78819e-005
1.78847e-005
1.78863e-005
1.78864e-005
1.78823e-005
1.78865e-005
1.78851e-005
1.78855e-005
1.78834e-005
1.78807e-005
1.78769e-005
1.78723e-005
1.78663e-005
1.786e-005
1.78542e-005
0.614393
0.438714
0.269547
0.0973364
0.00744716
0.000218601
0.000187351
0.000187325
0.000187463
0.00018753
0.000187593
0.000187651
0.000187702
0.000187757
0.000187788
0.00018782
0.000187822
0.000187766
0.000187818
0.000187821
0.000187798
0.000187769
0.000187838
0.00018782
0.00018779
0.000187751
0.000187703
0.000187652
0.000187599
0.653267
0.478726
0.311528
0.138901
0.0176801
0.000679595
0.000565841
0.00056575
0.000565866
0.000565948
0.000566006
0.000566043
0.000566059
0.000565994
0.000566022
0.000566026
0.000566017
0.000566116
0.000566127
0.000566109
0.00056608
0.000566043
0.000566059
0.000566019
0.00056598
0.000565927
0.000565869
0.000565804
0.000565719
0.65699
0.485373
0.321115
0.151142
0.0220061
0.000958373
0.000781624
0.000781433
0.000781464
0.000781477
0.000781473
0.000781485
0.000781471
0.00078155
0.000781538
0.000781516
0.000781476
0.000781542
0.000781531
0.000781511
0.000781489
0.000781471
0.000781452
0.000781419
0.000781391
0.000781359
0.000781321
0.000781258
0.00078115
0.658006
0.486202
0.322007
0.153095
0.0229186
0.00106729
0.000876611
0.000876346
0.000876349
0.00087635
0.000876353
0.000876347
0.000876404
0.000876378
0.000876368
0.000876329
0.000876417
0.000876427
0.000876422
0.000876416
0.000876394
0.000876392
0.000876373
0.000876331
0.000876269
0.000876202
0.000876152
0.000876093
0.000876198
0.652127
0.482544
0.319976
0.151733
0.0225672
0.00109352
0.000912922
0.000912672
0.000912651
0.000912642
0.000912637
0.00091263
0.000912644
0.000912633
0.00091262
0.000912618
0.000912648
0.000912625
0.000912618
0.000912604
0.000912601
0.000912581
0.000912586
0.000912566
0.000912595
0.000912559
0.000912501
0.000912576
0.00091254
0.644583
0.475921
0.314327
0.147416
0.0213202
0.00108331
0.000925456
0.000925267
0.000925232
0.000925231
0.000925258
0.000925253
0.000925237
0.000925219
0.000925221
0.000925216
0.000925206
0.000925216
0.000925197
0.000925193
0.000925179
0.000925224
0.000925195
0.000925171
0.000925183
0.00092517
0.000925211
0.000925183
0.000925154
0.636409
0.469084
0.308624
0.142475
0.019864
0.00106533
0.000929474
0.00092936
0.000929313
0.000929319
0.000929353
0.000929348
0.00092933
0.000929314
0.000929367
0.000929336
0.000929343
0.000929301
0.000929322
0.000929315
0.000929368
0.000929359
0.000929333
0.000929282
0.00092928
0.000929281
0.000929331
0.000929298
0.000929273
0.627497
0.461684
0.302534
0.13748
0.0185001
0.00104842
0.000930711
0.000930669
0.000930616
0.000930622
0.000930674
0.000930664
0.00093065
0.000930615
0.000930694
0.000930648
0.000930648
0.000930607
0.000930613
0.000930609
0.00093062
0.000930612
0.000930608
0.000930597
0.00093059
0.000930594
0.000930653
0.000930636
0.000930578
0.617874
0.45371
0.295997
0.132213
0.0171441
0.00103255
0.000931095
0.000931135
0.000931087
0.000931084
0.000931107
0.000931097
0.000931083
0.000931095
0.000931074
0.000931095
0.000931068
0.000931063
0.000931083
0.00093108
0.000931058
0.000931063
0.000931072
0.000931064
0.000931053
0.000931059
0.000931086
0.00093108
0.000931106
0.607499
0.44514
0.289001
0.126666
0.0158019
0.00101812
0.000931225
0.000931371
0.000931318
0.000931308
0.000931318
0.000931312
0.000931305
0.000931311
0.000931392
0.000931367
0.000931327
0.000931333
0.000931321
0.000931285
0.00093128
0.000931286
0.000931295
0.000931289
0.000931253
0.00093126
0.000931289
0.000931261
0.000931342
0.596296
0.435918
0.281507
0.120828
0.0144805
0.00100515
0.000931294
0.000931542
0.000931478
0.000931465
0.000931482
0.000931477
0.000931476
0.00093147
0.000931576
0.000931558
0.000931529
0.000931485
0.000931513
0.000931508
0.000931485
0.000931472
0.000931491
0.000931479
0.000931496
0.000931492
0.000931463
0.000931533
0.000931535
0.584199
0.425995
0.273477
0.114692
0.0131866
0.000993578
0.000931337
0.000931788
0.000931719
0.00093171
0.000931731
0.000931719
0.000931704
0.000931676
0.000931685
0.000931668
0.000931654
0.000931657
0.000931696
0.000931688
0.000931645
0.000931643
0.000931662
0.000931655
0.000931753
0.000931744
0.000931679
0.000931774
0.000931752
0.571157
0.415332
0.26488
0.108265
0.01193
0.00098321
0.000931384
0.000932052
0.000931999
0.000931984
0.000931976
0.000931887
0.00093199
0.000931982
0.000931997
0.000931972
0.000931937
0.000931867
0.000931879
0.000931859
0.000931898
0.000931884
0.000931901
0.000931858
0.000931925
0.000931909
0.000931843
0.000932024
0.000931995
0.557123
0.403896
0.255695
0.101567
0.0107225
0.000974049
0.000931433
0.000932285
0.00093219
0.000932179
0.000932131
0.000932246
0.00093222
0.000932193
0.000932181
0.000932133
0.000932223
0.0009322
0.000932186
0.000932162
0.00093222
0.000932213
0.000932162
0.00093226
0.000932275
0.000932246
0.000932152
0.000932327
0.000932283
0.542058
0.391662
0.245902
0.0946298
0.00957536
0.000965798
0.000931483
0.000932641
0.000932615
0.000932604
0.000932567
0.000932659
0.000932636
0.000932649
0.000932639
0.000932577
0.000932651
0.000932629
0.000932631
0.000932604
0.000932503
0.000932555
0.000932509
0.000932453
0.000932669
0.00093262
0.000932544
0.000932581
0.000932424
0.525929
0.378612
0.235491
0.0874933
0.00849904
0.000958442
0.000931567
0.000933057
0.000933114
0.000933134
0.000933125
0.000933123
0.000933095
0.000933077
0.000933049
0.000932936
0.000932921
0.000932878
0.000932844
0.000932824
0.000933088
0.000933061
0.000933048
0.000932916
0.000932985
0.000932914
0.000932842
0.000932765
0.000932952
0.508715
0.364734
0.224453
0.0802108
0.00750218
0.00095177
0.000931689
0.000933547
0.000933625
0.000933656
0.000933691
0.000933718
0.000933735
0.000933728
0.000933673
0.000933628
0.000933601
0.00093352
0.000933531
0.000933442
0.000933486
0.00093344
0.000933338
0.000933276
0.000933337
0.000933196
0.000933181
0.000933314
0.00093323
0.490404
0.350029
0.21279
0.0728476
0.00659122
0.000945889
0.000931837
0.000934129
0.000934238
0.000934273
0.000934296
0.000934324
0.000934334
0.000934266
0.000934231
0.000934195
0.000934139
0.000934053
0.000933964
0.000933898
0.00093399
0.000933744
0.00093376
0.000933733
0.000933566
0.000934051
0.000933718
0.000933663
0.000933954
0.470998
0.334505
0.200514
0.0654798
0.00576982
0.000940507
0.000932034
0.000934831
0.000934971
0.000935001
0.000935063
0.000935146
0.00093515
0.000935137
0.000934995
0.000934818
0.000934893
0.0009346
0.000934513
0.000934467
0.000934192
0.000934786
0.000934343
0.000934239
0.00093479
0.000934431
0.000934394
0.000934389
0.000934024
0.450514
0.318186
0.187647
0.0581942
0.00503874
0.000935807
0.000932344
0.000935704
0.00093587
0.000935951
0.000935864
0.000935776
0.000935692
0.000935566
0.000935496
0.00093556
0.00093525
0.000935318
0.000935182
0.000935071
0.000935891
0.000935352
0.000935255
0.000935483
0.000934997
0.000935162
0.000934915
0.000934745
0.000935646
0.428987
0.301108
0.174229
0.0510862
0.00439591
0.00093187
0.000932764
0.000936718
0.000936989
0.000936833
0.000936751
0.000936817
0.000936533
0.000936475
0.000936403
0.000936106
0.000936959
0.000936282
0.000936231
0.000936743
0.000936098
0.000936212
0.000936029
0.000935733
0.00093685
0.000935926
0.000935794
0.000936603
0.000936064
0.406468
0.283324
0.160321
0.0442554
0.00383673
0.000928513
0.0009333
0.000938004
0.000937904
0.000937893
0.000937909
0.000937676
0.00093771
0.00093753
0.000937464
0.000938318
0.00093779
0.000937618
0.00093754
0.000937094
0.000938035
0.000937426
0.000936909
0.000937932
0.000937538
0.000937127
0.000937671
0.000936948
0.000936911
0.383034
0.264901
0.146007
0.0378015
0.0033547
0.000925951
0.000934134
0.000939418
0.000939896
0.000939393
0.000939248
0.000939888
0.000939206
0.000939172
0.00093955
0.000938889
0.000938971
0.000938875
0.000938448
0.000939495
0.000939333
0.000938552
0.000939224
0.000938844
0.000938515
0.000939105
0.000938366
0.000938591
0.000938169
0.35878
0.245924
0.131406
0.0318182
0.00294223
0.00092422
0.000935106
0.000941438
0.000940982
0.000941112
0.00094134
0.0009409
0.00094101
0.000940725
0.00094053
0.000941654
0.000941125
0.000940273
0.000941147
0.000941016
0.000940468
0.000941114
0.000940423
0.000940303
0.000941066
0.00094
0.000940152
0.00094032
0.00093958
0.333831
0.226495
0.116676
0.0263866
0.00259148
0.000923154
0.000936602
0.000943215
0.000944155
0.000943214
0.000943123
0.000943999
0.000943116
0.000943134
0.000943895
0.000943062
0.000942745
0.00094346
0.000942813
0.000942643
0.000943439
0.000942438
0.000942641
0.000943449
0.000942073
0.000942177
0.000942104
0.000941423
0.000942104
0.308336
0.206733
0.102014
0.0215678
0.00229492
0.000923343
0.000938106
0.000946178
0.000945905
0.000945904
0.00094642
0.000945668
0.000945758
0.000945284
0.000945845
0.000946092
0.000946644
0.000945264
0.000945679
0.000946416
0.000944982
0.000945255
0.000945793
0.000944465
0.000944688
0.000943943
0.000943698
0.000944895
0.000944234
0.282472
0.186779
0.087665
0.0173964
0.0020458
0.000924232
0.000940664
0.000948524
0.000949547
0.000949047
0.000948583
0.000949518
0.000948873
0.000949062
0.000948602
0.000948056
0.000948836
0.000948875
0.000948453
0.000947785
0.000948483
0.00094832
0.000947034
0.000947704
0.000946844
0.000947336
0.000948273
0.000946737
0.000946723
0.256443
0.166794
0.0739058
0.0138772
0.00183836
0.000926369
0.00094296
0.000952447
0.000952363
0.000951953
0.0009531
0.000952903
0.000952614
0.00095182
0.000952329
0.000953282
0.000952283
0.000951402
0.000952181
0.000953102
0.00095147
0.000951098
0.000951888
0.000950739
0.000950835
0.000950372
0.000950252
0.000949886
0.000949358
0.230477
0.146969
0.0610334
0.0109841
0.00166763
0.000929555
0.000946537
0.000955941
0.000956953
0.000957559
0.000957498
0.000956478
0.000956498
0.000956741
0.000956823
0.000956086
0.000956388
0.000957622
0.000956823
0.000955656
0.000956302
0.000956957
0.000954932
0.000954893
0.000955333
0.000955278
0.00095436
0.000954927
0.000954717
0.204826
0.127535
0.0493335
0.00866426
0.00152928
0.000934036
0.000950406
0.000960713
0.000961795
0.000962261
0.000961372
0.000961956
0.000962829
0.000960973
0.000961344
0.000962139
0.000962812
0.000961275
0.000961521
0.000962123
0.00096037
0.000961034
0.00096113
0.000961913
0.000960757
0.000957941
0.000958973
0.000959225
0.000957347
0.179756
0.108765
0.0390422
0.00684609
0.00141918
0.000940062
0.000954939
0.000965262
0.000968503
0.000966941
0.000967332
0.000967728
0.000966984
0.000967772
0.000967203
0.00096703
0.000966674
0.000967917
0.000966791
0.00096599
0.000967436
0.000965825
0.000966142
0.00096566
0.000965489
0.000965216
0.000963384
0.000964514
0.000965173
0.155554
0.0909764
0.0303083
0.00544853
0.00133452
0.000946988
0.000960892
0.000971723
0.000972265
0.000973212
0.000972881
0.000972751
0.000973906
0.00097296
0.000973653
0.00097368
0.00097427
0.000972871
0.000974335
0.000975421
0.00097289
0.000972575
0.000971795
0.000972858
0.000973593
0.000970479
0.000971649
0.000969119
0.0009695
0.132512
0.0745198
0.0231672
0.00439148
0.00127027
0.000956854
0.000966591
0.000976894
0.000980381
0.000980038
0.000980057
0.000981018
0.000980098
0.00098007
0.000980149
0.00098157
0.000981636
0.000982227
0.000980098
0.000981416
0.000981861
0.000979752
0.000980544
0.000979068
0.000979197
0.000979585
0.000977389
0.000977762
0.000976617
0.110935
0.0597298
0.0175367
0.00360098
0.00122606
0.000965734
0.000974913
0.000985305
0.000985499
0.000987434
0.000988185
0.000986979
0.000988972
0.000989768
0.0009877
0.00098882
0.00098957
0.000988686
0.000990282
0.000988799
0.00098955
0.000990751
0.000987404
0.000988573
0.000989249
0.000988242
0.000988093
0.000985024
0.000985764
0.0911186
0.0468768
0.0132393
0.00301577
0.00119468
0.000980562
0.000982826
0.000991137
0.000995128
0.000995606
0.000995147
0.000997996
0.000996437
0.000996437
0.000998953
0.000998067
0.000999718
0.00100079
0.000998639
0.000999689
0.00100061
0.00099855
0.00100015
0.000998122
0.000999175
0.00100006
0.00099674
0.000997212
0.000993993
0.0733339
0.0361016
0.0100439
0.00258311
0.00117854
0.000992481
0.000992655
0.00100286
0.0010011
0.00100416
0.00100679
0.00100414
0.00100656
0.00100855
0.00100639
0.00100907
0.00100924
0.00100851
0.00101184
0.00100987
0.00101083
0.00101214
0.0010111
0.00101196
0.00100943
0.00101107
0.00101156
0.0010089
0.00100825
0.0577917
0.0273899
0.00770839
0.0022652
0.00116977
0.00101066
0.0010058
0.00100857
0.00101275
0.00101366
0.00101239
0.00101643
0.00101669
0.00101524
0.00101817
0.00101825
0.00102006
0.00102416
0.00102076
0.00102413
0.00102493
0.00102335
0.00102575
0.00102471
0.00102571
0.00102394
0.00102208
0.00102244
0.00101948
0.0446045
0.0205757
0.00601494
0.00202971
0.0011693
0.00103016
0.00101463
0.00102296
0.0010197
0.00102156
0.00102585
0.00102437
0.00102771
0.00102921
0.00102967
0.00103222
0.00103146
0.00103234
0.00103672
0.00103568
0.00103659
0.00104095
0.00103945
0.00104053
0.00103973
0.00104301
0.00104223
0.00104078
0.00103949
0.0337615
0.0153907
0.00478625
0.00185402
0.00117543
0.00104365
0.00103398
0.00102969
0.00103231
0.00103429
0.00103335
0.00103677
0.00103593
0.00104112
0.00104471
0.00104199
0.00104502
0.00104558
0.00104897
0.00105619
0.00105397
0.00105404
0.00105905
0.00105947
0.00106081
0.0010576
0.00106128
0.0010616
0.00105917
0.0251227
0.0115245
0.00388737
0.00172295
0.00118075
0.00107154
0.00104296
0.00104456
0.00104286
0.00104237
0.00104584
0.00104543
0.00105095
0.00105248
0.0010514
0.0010553
0.00106061
0.0010656
0.00106451
0.00106531
0.001073
0.00107721
0.00107656
0.00107992
0.00108001
0.00108435
0.00108093
0.00108408
0.00108402
0.0184443
0.00867623
0.00322302
0.00161986
0.00119122
0.00108198
0.00106224
0.00105373
0.00105224
0.00105325
0.00105661
0.00106234
0.00105911
0.00106153
0.0010686
0.0010712
0.00107414
0.00107622
0.00108263
0.00108842
0.00108829
0.0010925
0.00110232
0.00110336
0.00110812
0.00110652
0.00111062
0.00110662
0.00110912
0.0134194
0.00659032
0.00272336
0.00154088
0.00119611
0.00110445
0.00107165
0.00106717
0.00106626
0.00106678
0.00106623
0.00106662
0.00107452
0.00107395
0.00107734
0.0010882
0.00108964
0.00109256
0.0010958
0.0011009
0.00111789
0.00111887
0.00112129
0.00113175
0.0011338
0.00114134
0.00114024
0.00114305
0.00113916
0.00972552
0.00506288
0.0023446
0.00147258
0.00120328
0.00111333
0.00108983
0.0010777
0.00107343
0.00107405
0.00107662
0.00108291
0.00108183
0.00108973
0.00109015
0.00109302
0.00110508
0.00110888
0.00111935
0.00112171
0.00112769
0.00114481
0.00114879
0.00115341
0.00116713
0.001171
0.00118226
0.00117868
0.00118052
0.00706106
0.00394498
0.00205155
0.00141711
0.00120022
0.00112613
0.00109559
0.00108925
0.00108735
0.0010848
0.00108783
0.00108877
0.00109807
0.00109665
0.00110573
0.00110859
0.00111252
0.00112435
0.00113052
0.00114602
0.00115024
0.00115679
0.00117573
0.00118272
0.00119614
0.00121095
0.00121636
0.00122929
0.00122684
0.00516684
0.00312588
0.00182426
0.0013633
0.0011993
0.00113008
0.00110923
0.00109568
0.00109363
0.00109574
0.00109626
0.00110167
0.00110274
0.00111316
0.00111413
0.00112204
0.00112913
0.00113454
0.00114687
0.00115471
0.00117127
0.00118386
0.00119259
0.00121903
0.00122965
0.00125436
0.00126538
0.00127255
0.00128503
0.00383456
0.00252547
0.00164373
0.00131651
0.00118843
0.00113381
0.00111097
0.0011065
0.0011009
0.00110196
0.00110683
0.00110859
0.00111426
0.00111755
0.0011299
0.00113257
0.00113874
0.00115331
0.00116023
0.00117493
0.00118253
0.00120216
0.00122313
0.00123692
0.00127053
0.00128728
0.00132912
0.00133476
0.00134759
0.00290403
0.00208404
0.00149994
0.00127055
0.00117714
0.00113484
0.00111673
0.00110777
0.00111024
0.00110938
0.00111106
0.00111833
0.00112127
0.0011285
0.00113249
0.00114508
0.00115273
0.00116254
0.00117702
0.00118953
0.0012084
0.00122013
0.0012426
0.00126967
0.00128894
0.00133389
0.00135981
0.00142759
0.00141041
0.00225883
0.00176039
0.00138461
0.00122912
0.00116441
0.00112916
0.00112225
0.0011122
0.00111328
0.00111676
0.00112108
0.00112163
0.00112884
0.00113635
0.00114234
0.00114732
0.00116367
0.00117039
0.00118872
0.00119808
0.00121947
0.00123968
0.00126945
0.0012907
0.00133434
0.00136286
0.00144026
0.00147693
0.00158962
0.00181356
0.0015236
0.00129221
0.00119247
0.0011486
0.00112559
0.00112153
0.00111335
0.00111957
0.00111851
0.00112492
0.00112828
0.00113669
0.00114012
0.00115214
0.0011581
0.00117236
0.00117902
0.00119495
0.0012052
0.00122754
0.00124487
0.00127819
0.00129424
0.00133548
0.00136004
0.00142293
0.00147485
0.00158985
0.00151184
0.00135366
0.00122112
0.00116204
0.00113798
0.00111896
0.00112053
0.00111512
0.00112396
0.00112001
0.00113045
0.00113116
0.00113898
0.00114172
0.00115327
0.00115815
0.0011725
0.0011688
0.00115241
0.00110815
0.00104363
0.00105831
0.00111509
0.00141793
0.00162252
0.00208219
0.00239585
0.00230648
0.00206217
0.00130891
0.00123408
0.00116774
0.00113746
0.00111987
0.00111791
0.00111845
0.00111684
0.00112544
0.0011244
0.00113464
0.00113072
0.00112533
0.00108349
0.00102051
0.00102753
0.00134319
0.00193603
0.00318072
0.00530444
0.00784822
0.0119422
0.0153658
0.0213134
0.0243816
0.0309243
0.0323191
0.0356592
0.0308925
0.00118361
0.00115441
0.00112819
0.00112152
0.00111803
0.00112041
0.00112985
0.00112503
0.00111414
0.00106998
0.00119037
0.00142181
0.0024667
0.00378854
0.00672659
0.00976074
0.0160088
0.0224284
0.0307759
0.0402565
0.050265
0.0622932
0.0724645
0.0875866
0.0961953
0.115029
0.120758
0.145223
0.127446
0.00110645
0.00111754
0.00113809
0.00117783
0.0012095
0.00126238
0.00188577
0.00222057
0.00378273
0.00493114
0.00913534
0.0121563
0.0193851
0.0263174
0.0348381
0.0443426
0.0554749
0.0677454
0.0805484
0.0953613
0.109636
0.127494
0.142708
0.165463
0.180492
0.211952
0.224126
0.275372
0.264546
0.00110803
0.00126703
0.00161971
0.00249065
0.00336556
0.00494362
0.00974127
0.0119822
0.0178502
0.0215423
0.0307855
0.036799
0.0480641
0.0589572
0.0696306
0.0826661
0.0962167
0.112124
0.1277
0.146207
0.163992
0.186401
0.206409
0.23517
0.257175
0.297777
0.320598
0.38552
0.388742
5.80598e-005
5.80599e-005
5.80599e-005
5.806e-005
5.806e-005
5.806e-005
5.80601e-005
5.80601e-005
5.80601e-005
5.80602e-005
5.80602e-005
5.80602e-005
5.80603e-005
5.80603e-005
5.80603e-005
5.80603e-005
5.80604e-005
5.80604e-005
5.80604e-005
5.80604e-005
5.80605e-005
5.80605e-005
5.80605e-005
5.80605e-005
5.80606e-005
5.80606e-005
5.80606e-005
5.80606e-005
5.80607e-005
5.80607e-005
5.80607e-005
5.80607e-005
5.80608e-005
5.80608e-005
5.80608e-005
5.80608e-005
5.80608e-005
5.80609e-005
5.80609e-005
5.80609e-005
5.80609e-005
5.80609e-005
5.8061e-005
5.8061e-005
5.8061e-005
5.8061e-005
5.80611e-005
5.80611e-005
5.80611e-005
5.80611e-005
5.80611e-005
5.80612e-005
5.80612e-005
5.80612e-005
5.80612e-005
5.80612e-005
5.80613e-005
5.80613e-005
5.80613e-005
5.80613e-005
5.80613e-005
5.80614e-005
5.80614e-005
5.80614e-005
5.80614e-005
5.80614e-005
5.80614e-005
5.80615e-005
5.80615e-005
5.80615e-005
5.80615e-005
5.80615e-005
5.80615e-005
5.80616e-005
5.80616e-005
5.80616e-005
5.80616e-005
5.80616e-005
5.80616e-005
5.80617e-005
5.80617e-005
5.80617e-005
5.80617e-005
5.80617e-005
5.80617e-005
5.80617e-005
5.80617e-005
5.80618e-005
5.80618e-005
5.80618e-005
5.80618e-005
5.80618e-005
5.80618e-005
5.80618e-005
5.80618e-005
5.80618e-005
5.80618e-005
5.80619e-005
5.80619e-005
5.80619e-005
5.80619e-005
5.80619e-005
5.80619e-005
5.80619e-005
5.80619e-005
5.80619e-005
5.80619e-005
5.80619e-005
5.80619e-005
5.80619e-005
5.80619e-005
5.80619e-005
5.80619e-005
5.80619e-005
5.80619e-005
5.80619e-005
5.80619e-005
5.80619e-005
5.80618e-005
5.80618e-005
5.80618e-005
5.80618e-005
5.80618e-005
5.80619e-005
5.80619e-005
5.80619e-005
5.8062e-005
5.8062e-005
5.8062e-005
5.8062e-005
5.80621e-005
5.80621e-005
5.80621e-005
5.80622e-005
5.80622e-005
5.80623e-005
5.80624e-005
5.80697e-005
5.93264e-005
4.60998e-006
4.6101e-006
4.6102e-006
4.6103e-006
4.61039e-006
4.61047e-006
4.61056e-006
4.61064e-006
4.61072e-006
4.61079e-006
4.61087e-006
4.61094e-006
4.61101e-006
4.61107e-006
4.61114e-006
4.61121e-006
4.61127e-006
4.61134e-006
4.6114e-006
4.61146e-006
4.61152e-006
4.61158e-006
4.61164e-006
4.61171e-006
4.61177e-006
4.61183e-006
4.61189e-006
4.61195e-006
4.612e-006
4.61206e-006
4.61212e-006
4.61218e-006
4.61224e-006
4.6123e-006
4.61236e-006
4.61242e-006
4.61248e-006
4.61253e-006
4.61259e-006
4.61265e-006
4.61271e-006
4.61276e-006
4.61282e-006
4.61288e-006
4.61294e-006
4.61299e-006
4.61305e-006
4.61311e-006
4.61316e-006
4.61322e-006
4.61327e-006
4.61333e-006
4.61338e-006
4.61344e-006
4.61349e-006
4.61355e-006
4.6136e-006
4.61365e-006
4.61371e-006
4.61376e-006
4.61381e-006
4.61386e-006
4.61391e-006
4.61396e-006
4.61401e-006
4.61406e-006
4.61411e-006
4.61415e-006
4.6142e-006
4.61425e-006
4.61429e-006
4.61434e-006
4.61438e-006
4.61443e-006
4.61447e-006
4.61451e-006
4.61456e-006
4.6146e-006
4.61464e-006
4.61468e-006
4.61472e-006
4.61476e-006
4.6148e-006
4.61483e-006
4.61487e-006
4.61491e-006
4.61494e-006
4.61498e-006
4.61501e-006
4.61505e-006
4.61508e-006
4.61511e-006
4.61514e-006
4.61517e-006
4.6152e-006
4.61523e-006
4.61526e-006
4.61529e-006
4.61531e-006
4.61534e-006
4.61536e-006
4.61539e-006
4.61541e-006
4.61543e-006
4.61545e-006
4.61547e-006
4.61549e-006
4.61551e-006
4.61552e-006
4.61554e-006
4.61555e-006
4.61555e-006
4.61556e-006
4.61556e-006
4.61555e-006
4.61554e-006
4.61551e-006
4.61543e-006
4.61536e-006
4.6153e-006
4.61527e-006
4.61528e-006
4.61533e-006
4.61541e-006
4.61548e-006
4.61554e-006
4.61558e-006
4.61562e-006
4.61565e-006
4.61568e-006
4.6157e-006
4.61575e-006
4.61576e-006
4.61585e-006
4.6159e-006
4.61599e-006
4.61603e-006
4.29101e-006
4.73275e-006
6.36707e-007
6.36769e-007
6.36816e-007
6.36862e-007
6.36907e-007
6.36951e-007
6.36994e-007
6.37037e-007
6.3708e-007
6.37122e-007
6.37164e-007
6.37207e-007
6.37249e-007
6.37291e-007
6.37334e-007
6.37376e-007
6.37419e-007
6.37462e-007
6.37506e-007
6.37549e-007
6.37593e-007
6.37638e-007
6.37682e-007
6.37727e-007
6.37772e-007
6.37818e-007
6.37863e-007
6.3791e-007
6.37955e-007
6.38002e-007
6.38049e-007
6.38095e-007
6.38142e-007
6.3819e-007
6.38237e-007
6.38284e-007
6.38331e-007
6.38392e-007
6.3844e-007
6.38488e-007
6.38537e-007
6.38585e-007
6.38633e-007
6.38681e-007
6.38728e-007
6.38776e-007
6.38824e-007
6.38871e-007
6.38918e-007
6.38965e-007
6.39011e-007
6.39057e-007
6.39103e-007
6.39149e-007
6.39195e-007
6.3924e-007
6.39285e-007
6.39329e-007
6.39374e-007
6.39418e-007
6.39463e-007
6.39506e-007
6.39549e-007
6.39591e-007
6.39633e-007
6.39675e-007
6.39716e-007
6.39757e-007
6.39797e-007
6.39837e-007
6.39876e-007
6.39928e-007
6.39968e-007
6.40007e-007
6.40045e-007
6.40082e-007
6.40119e-007
6.40155e-007
6.40191e-007
6.40227e-007
6.40262e-007
6.40297e-007
6.40331e-007
6.40365e-007
6.40398e-007
6.40431e-007
6.40463e-007
6.40494e-007
6.40525e-007
6.40555e-007
6.40585e-007
6.40615e-007
6.40643e-007
6.40672e-007
6.40699e-007
6.40726e-007
6.40752e-007
6.40778e-007
6.40803e-007
6.40827e-007
6.4085e-007
6.40873e-007
6.40895e-007
6.40916e-007
6.40936e-007
6.40955e-007
6.40974e-007
6.40991e-007
6.41007e-007
6.41022e-007
6.41036e-007
6.41048e-007
6.41059e-007
6.41068e-007
6.41075e-007
6.41079e-007
6.41081e-007
6.41077e-007
6.41072e-007
6.41069e-007
6.41066e-007
6.41067e-007
6.4107e-007
6.41072e-007
6.41071e-007
6.41065e-007
6.41057e-007
6.41047e-007
6.41032e-007
6.41017e-007
6.40991e-007
6.40973e-007
6.4094e-007
6.4091e-007
6.40893e-007
6.40328e-007
6.31716e-007
1.34652e-005
0.00223286
1.33496e-006
1.33462e-006
1.33431e-006
1.33399e-006
1.33367e-006
1.33332e-006
1.33297e-006
1.33261e-006
1.33223e-006
1.33184e-006
1.33144e-006
1.33102e-006
1.33059e-006
1.33016e-006
1.32971e-006
1.32925e-006
1.32878e-006
1.32829e-006
1.3278e-006
1.3273e-006
1.32679e-006
1.32627e-006
1.32575e-006
1.32522e-006
1.32468e-006
1.32414e-006
1.3236e-006
1.32304e-006
1.32249e-006
1.32193e-006
1.32137e-006
1.3208e-006
1.32024e-006
1.31967e-006
1.3191e-006
1.31853e-006
1.31796e-006
1.3173e-006
1.31672e-006
1.31615e-006
1.31556e-006
1.31498e-006
1.31441e-006
1.31384e-006
1.31327e-006
1.3127e-006
1.31213e-006
1.31156e-006
1.31101e-006
1.31046e-006
1.30991e-006
1.30936e-006
1.30882e-006
1.30828e-006
1.30775e-006
1.30723e-006
1.30671e-006
1.30619e-006
1.30568e-006
1.30518e-006
1.30467e-006
1.30419e-006
1.3037e-006
1.30323e-006
1.30275e-006
1.30229e-006
1.30183e-006
1.30138e-006
1.30093e-006
1.3005e-006
1.30007e-006
1.29956e-006
1.29913e-006
1.29871e-006
1.2983e-006
1.29789e-006
1.29749e-006
1.29711e-006
1.29672e-006
1.29635e-006
1.29597e-006
1.29561e-006
1.29525e-006
1.29489e-006
1.29455e-006
1.29421e-006
1.29388e-006
1.29356e-006
1.29325e-006
1.29293e-006
1.29263e-006
1.29233e-006
1.29204e-006
1.29175e-006
1.29148e-006
1.2912e-006
1.29094e-006
1.29068e-006
1.29042e-006
1.29018e-006
1.28994e-006
1.28971e-006
1.28948e-006
1.28927e-006
1.28905e-006
1.28885e-006
1.28864e-006
1.28845e-006
1.28825e-006
1.28806e-006
1.28788e-006
1.2877e-006
1.28752e-006
1.28735e-006
1.28718e-006
1.28702e-006
1.28686e-006
1.28672e-006
1.2866e-006
1.28647e-006
1.28636e-006
1.28625e-006
1.28615e-006
1.28605e-006
1.28594e-006
1.28587e-006
1.28579e-006
1.28571e-006
1.28565e-006
1.28562e-006
1.28549e-006
1.28564e-006
1.28529e-006
1.28579e-006
1.28499e-006
1.30306e-006
5.99876e-006
0.00114205
0.0299632
1.78462e-005
1.78369e-005
1.7828e-005
1.78187e-005
1.7809e-005
1.77984e-005
1.77875e-005
1.77762e-005
1.77642e-005
1.77514e-005
1.77381e-005
1.77245e-005
1.77103e-005
1.76957e-005
1.76803e-005
1.76646e-005
1.76483e-005
1.7632e-005
1.76151e-005
1.75975e-005
1.75801e-005
1.75624e-005
1.75439e-005
1.75257e-005
1.7507e-005
1.74886e-005
1.74696e-005
1.74506e-005
1.74313e-005
1.74119e-005
1.73924e-005
1.73733e-005
1.73533e-005
1.73335e-005
1.73139e-005
1.72938e-005
1.72742e-005
1.72542e-005
1.7235e-005
1.72147e-005
1.71947e-005
1.71756e-005
1.71559e-005
1.71363e-005
1.71169e-005
1.70976e-005
1.70784e-005
1.70595e-005
1.70404e-005
1.70219e-005
1.70033e-005
1.69848e-005
1.69668e-005
1.69488e-005
1.69311e-005
1.69135e-005
1.68958e-005
1.68786e-005
1.68617e-005
1.68449e-005
1.6828e-005
1.68115e-005
1.67958e-005
1.67794e-005
1.67634e-005
1.67481e-005
1.67325e-005
1.67172e-005
1.67024e-005
1.66877e-005
1.66731e-005
1.66587e-005
1.66445e-005
1.66308e-005
1.66172e-005
1.66036e-005
1.65905e-005
1.65777e-005
1.65651e-005
1.65522e-005
1.654e-005
1.65279e-005
1.65161e-005
1.65043e-005
1.64928e-005
1.64817e-005
1.64711e-005
1.64602e-005
1.64498e-005
1.64395e-005
1.64293e-005
1.64198e-005
1.641e-005
1.64004e-005
1.63915e-005
1.63823e-005
1.63736e-005
1.63648e-005
1.63565e-005
1.63486e-005
1.63406e-005
1.63327e-005
1.63255e-005
1.6318e-005
1.63108e-005
1.63037e-005
1.62966e-005
1.629e-005
1.62838e-005
1.62778e-005
1.62717e-005
1.6266e-005
1.62603e-005
1.6255e-005
1.62496e-005
1.62439e-005
1.62386e-005
1.62328e-005
1.62267e-005
1.62208e-005
1.6215e-005
1.62095e-005
1.62035e-005
1.61982e-005
1.6193e-005
1.61876e-005
1.61829e-005
1.61777e-005
1.61719e-005
1.61688e-005
1.61594e-005
1.6161e-005
1.61446e-005
1.61551e-005
1.61319e-005
1.77416e-005
0.000473059
0.0229953
0.156805
0.00018753
0.000187452
0.000187376
0.000187298
0.000187213
0.000187121
0.000187025
0.000186924
0.000186816
0.000186701
0.000186582
0.000186457
0.000186322
0.00018619
0.000186049
0.000185903
0.000185748
0.000185599
0.000185437
0.000185272
0.000185109
0.000184945
0.000184772
0.000184596
0.000184423
0.000184247
0.000184069
0.000183893
0.00018371
0.000183527
0.000183341
0.000183162
0.000182977
0.00018279
0.000182603
0.000182414
0.000182228
0.00018204
0.000181856
0.000181667
0.000181476
0.000181293
0.000181109
0.000180925
0.000180744
0.000180559
0.000180378