/*--------------------------------*- C++ -*----------------------------------*\
| =========                 |                                                 |
| \\      /  F ield         | OpenFOAM: The Open Source CFD Toolbox           |
|  \\    /   O peration     | Version:  5.x                                   |
|   \\  /    A nd           | Web:      www.OpenFOAM.org                      |
|    \\/     M anipulation  |                                                 |
\*---------------------------------------------------------------------------*/
/*   Windows 32 and 64 bit porting by blueCAPE: http://www.bluecape.com.pt   *\
|  Based on Windows porting (2.0.x v4) by Symscape: http://www.symscape.com   |
\*---------------------------------------------------------------------------*/
FoamFile
{
    version     2.0;
    format      ascii;
    class       volScalarField;
    location    "60";
    object      p;
}
// * * * * * * * * * * * * * * * * * * * * * * * * * * * * * * * * * * * * * //

dimensions      [0 2 -2 0 0 0 0];

internalField   nonuniform List<scalar> 
43900
(
0.476826
0.476407
0.476535
0.476228
0.476211
0.475922
0.475775
0.475564
0.475342
0.475111
0.474869
0.474616
0.474354
0.474084
0.473805
0.473518
0.473224
0.472922
0.472614
0.472299
0.471978
0.471651
0.471318
0.47098
0.470636
0.470287
0.469933
0.469574
0.46921
0.476012
0.479442
0.47719
0.47803
0.477247
0.477262
0.477013
0.476738
0.476459
0.476164
0.475861
0.47555
0.475232
0.474907
0.474576
0.47424
0.473899
0.473553
0.473202
0.472847
0.472488
0.472124
0.471757
0.471386
0.471011
0.470633
0.47025
0.469865
0.469475
0.472053
0.486365
0.476472
0.482501
0.477826
0.479749
0.47797
0.477971
0.477371
0.476898
0.476452
0.476014
0.475583
0.475158
0.474739
0.474322
0.473909
0.473497
0.473085
0.472674
0.472262
0.471849
0.471434
0.471018
0.4706
0.470179
0.469756
0.469331
0.468902
0.466526
0.487282
0.480134
0.482586
0.479814
0.480823
0.479206
0.479328
0.478602
0.478195
0.477739
0.477284
0.476833
0.476387
0.475944
0.475504
0.475066
0.47463
0.474195
0.473761
0.473327
0.472893
0.472459
0.472025
0.471589
0.471152
0.470714
0.470274
0.469833
0.470364
0.485592
0.483054
0.482053
0.48191
0.482032
0.48132
0.48138
0.480891
0.480673
0.480378
0.480074
0.47976
0.479435
0.4791
0.478756
0.478402
0.478041
0.477672
0.477296
0.476912
0.476522
0.476126
0.475723
0.475314
0.474899
0.474478
0.47405
0.473617
0.478099
0.484846
0.483605
0.483201
0.483328
0.483209
0.483033
0.48308
0.482854
0.482729
0.482538
0.482334
0.482115
0.481881
0.481631
0.481367
0.481088
0.480795
0.480489
0.480168
0.479835
0.479489
0.47913
0.478759
0.478375
0.477981
0.477574
0.477157
0.476729
0.483533
0.485796
0.485296
0.48508
0.485023
0.484862
0.484732
0.484644
0.484476
0.484322
0.484142
0.483947
0.483736
0.48351
0.483267
0.483008
0.482734
0.482444
0.482139
0.481818
0.481483
0.481132
0.480767
0.480388
0.479995
0.479589
0.479169
0.478736
0.478291
0.489317
0.489755
0.489476
0.489194
0.489002
0.488826
0.488682
0.488539
0.488363
0.488178
0.487972
0.487749
0.487509
0.487252
0.486977
0.486685
0.486377
0.486051
0.48571
0.485351
0.484977
0.484586
0.484179
0.483757
0.483319
0.482866
0.482398
0.481915
0.481418
0.496338
0.496284
0.496024
0.495748
0.495542
0.495391
0.49526
0.495116
0.494944
0.494751
0.494534
0.494296
0.494036
0.493754
0.493452
0.493128
0.492784
0.49242
0.492035
0.491631
0.491208
0.490766
0.490305
0.489826
0.489328
0.488813
0.48828
0.48773
0.487162
0.504033
0.503604
0.503321
0.503065
0.502863
0.502725
0.5026
0.502454
0.50228
0.502079
0.50185
0.501594
0.501313
0.501005
0.500672
0.500313
0.49993
0.499522
0.49909
0.498634
0.498156
0.497654
0.49713
0.496584
0.496017
0.495428
0.494818
0.494189
0.493539
0.51227
0.5117
0.511373
0.511065
0.510813
0.510637
0.510476
0.510291
0.510076
0.509831
0.509557
0.509253
0.508919
0.508557
0.508165
0.507746
0.507297
0.506821
0.506318
0.505787
0.50523
0.504646
0.504037
0.503402
0.502742
0.502058
0.50135
0.500618
0.499864
0.52174
0.52109
0.520705
0.52034
0.520035
0.519817
0.519615
0.519384
0.519119
0.518819
0.518485
0.518118
0.517716
0.517281
0.516813
0.516312
0.515778
0.515213
0.514616
0.513987
0.513328
0.512639
0.511919
0.511171
0.510394
0.509589
0.508756
0.507896
0.507011
0.532541
0.531801
0.531359
0.530942
0.530595
0.530344
0.530107
0.529835
0.529521
0.529166
0.528771
0.528334
0.527858
0.527343
0.526788
0.526194
0.525562
0.524893
0.524186
0.523443
0.522664
0.52185
0.521001
0.520118
0.519202
0.518253
0.517273
0.516262
0.51522
0.544551
0.543713
0.543207
0.54273
0.542334
0.542045
0.541766
0.541446
0.541075
0.540657
0.540189
0.539674
0.539111
0.538502
0.537846
0.537145
0.536399
0.535608
0.534774
0.533897
0.532979
0.532019
0.531018
0.529979
0.5289
0.527784
0.526632
0.525444
0.524221
0.557767
0.556818
0.556236
0.555686
0.555231
0.554892
0.554561
0.554179
0.553739
0.553242
0.552688
0.552077
0.551411
0.550689
0.549913
0.549084
0.548202
0.547268
0.546283
0.545249
0.544165
0.543034
0.541855
0.540632
0.539363
0.538051
0.536698
0.535303
0.533869
0.572229
0.571153
0.570483
0.569851
0.569326
0.568929
0.568536
0.568082
0.567559
0.566969
0.566312
0.565588
0.564799
0.563945
0.563027
0.562047
0.561005
0.559903
0.558741
0.557521
0.556244
0.554912
0.553526
0.552087
0.550597
0.549057
0.547468
0.545833
0.544154
0.587952
0.586732
0.585965
0.585239
0.584638
0.584175
0.583709
0.583171
0.582553
0.581854
0.581076
0.580221
0.579289
0.57828
0.577197
0.576041
0.574813
0.573514
0.572146
0.570711
0.56921
0.567644
0.566016
0.564328
0.56258
0.560776
0.558917
0.557004
0.555041
0.604934
0.603555
0.602678
0.601848
0.601161
0.600622
0.600074
0.599438
0.598708
0.597884
0.596967
0.595958
0.59486
0.593673
0.592398
0.591038
0.589594
0.588068
0.586462
0.584778
0.583017
0.581183
0.579276
0.5773
0.575257
0.573149
0.570979
0.568748
0.56646
0.623165
0.62161
0.62061
0.619665
0.618883
0.618258
0.617613
0.616866
0.616006
0.615037
0.613959
0.612774
0.611484
0.610091
0.608596
0.607001
0.605308
0.603521
0.601641
0.59967
0.597611
0.595468
0.593242
0.590936
0.588554
0.586098
0.583571
0.580976
0.578317
0.642623
0.640874
0.639739
0.638667
0.637781
0.637059
0.636304
0.635428
0.63442
0.633285
0.632022
0.630636
0.629126
0.627496
0.625748
0.623884
0.621907
0.619821
0.617627
0.615329
0.61293
0.610434
0.607843
0.605162
0.602394
0.599542
0.596611
0.593604
0.590525
0.663271
0.66131
0.660027
0.658817
0.657818
0.656988
0.656109
0.655085
0.65391
0.652585
0.651113
0.649496
0.647737
0.645838
0.643802
0.641632
0.639332
0.636905
0.634355
0.631685
0.6289
0.626003
0.622999
0.619892
0.616687
0.613387
0.609998
0.606524
0.60297
0.685054
0.682863
0.681421
0.680062
0.678942
0.677992
0.676973
0.675784
0.674419
0.67288
0.671171
0.669295
0.667253
0.66505
0.662689
0.660174
0.657509
0.654697
0.651745
0.648656
0.645434
0.642086
0.638616
0.635029
0.631332
0.627528
0.623624
0.619626
0.615539
0.707895
0.705457
0.703844
0.702329
0.70108
0.699999
0.698824
0.69745
0.695873
0.694096
0.692122
0.689954
0.687597
0.685053
0.682327
0.679426
0.67635
0.673109
0.669705
0.666144
0.662436
0.65858
0.65459
0.650466
0.646218
0.641852
0.637374
0.632792
0.628111
0.731697
0.728994
0.727202
0.725525
0.724143
0.722919
0.721571
0.719994
0.718182
0.71614
0.713872
0.711382
0.708673
0.70575
0.702622
0.699284
0.695758
0.692033
0.688128
0.684046
0.679787
0.675375
0.670796
0.666078
0.661213
0.656219
0.651103
0.645863
0.640529
0.756338
0.753355
0.751378
0.749537
0.748017
0.74664
0.745105
0.743304
0.741236
0.738903
0.736314
0.733467
0.730372
0.727035
0.723452
0.719651
0.715606
0.711364
0.706897
0.702232
0.697383
0.692328
0.687128
0.681729
0.676198
0.670516
0.664677
0.658751
0.652673
0.781674
0.778398
0.776233
0.77423
0.772572
0.771033
0.769296
0.767255
0.764906
0.762263
0.759316
0.756088
0.75257
0.748773
0.744717
0.740371
0.735804
0.730951
0.725891
0.72059
0.715063
0.709366
0.703394
0.697317
0.691024
0.68454
0.678002
0.671221
0.664378
0.807537
0.803958
0.801608
0.79945
0.797656
0.795948
0.793997
0.791696
0.789055
0.786063
0.782753
0.779094
0.775129
0.770846
0.766236
0.761365
0.756155
0.750719
0.744956
0.738971
0.732763
0.726189
0.719573
0.712619
0.705461
0.698301
0.690745
0.683189
0.675521
0.833738
0.829852
0.827323
0.825026
0.823099
0.821218
0.819039
0.816474
0.813504
0.810177
0.806433
0.802361
0.79789
0.793073
0.787931
0.782427
0.776635
0.770406
0.763981
0.757259
0.750121
0.742975
0.735311
0.727474
0.71971
0.711304
0.703026
0.694607
0.685807
0.860072
0.855878
0.853186
0.850767
0.848718
0.846656
0.844252
0.841391
0.838121
0.834373
0.830264
0.825669
0.820719
0.81536
0.809584
0.803463
0.796829
0.790001
0.782852
0.775198
0.767431
0.759043
0.750593
0.742221
0.732909
0.723862
0.714606
0.704794
0.695272
0.886319
0.881823
0.878991
0.876477
0.87431
0.872077
0.869424
0.866299
0.862644
0.858576
0.853946
0.848931
0.843413
0.837416
0.831143
0.824224
0.816968
0.809253
0.801166
0.792951
0.783874
0.774874
0.76574
0.75558
0.745799
0.735606
0.724801
0.714533
0.703647
0.912252
0.907467
0.904528
0.901947
0.89968
0.897264
0.894387
0.890936
0.886996
0.882451
0.87745
0.871912
0.865828
0.859408
0.852237
0.844687
0.836598
0.828049
0.819334
0.809722
0.800194
0.790188
0.779272
0.768851
0.757658
0.745898
0.734796
0.722708
0.710508
0.937643
0.932592
0.929588
0.926973
0.924611
0.922031
0.918902
0.915196
0.910852
0.905973
0.900567
0.894532
0.887858
0.88059
0.872972
0.864601
0.855668
0.846542
0.8365
0.826326
0.815662
0.804058
0.792867
0.780731
0.768081
0.756087
0.742789
0.729534
0.716752
0.962272
0.956986
0.953969
0.951353
0.948912
0.946163
0.942818
0.9388
0.934166
0.928923
0.923006
0.916313
0.909088
0.901413
0.892931
0.883803
0.874308
0.863917
0.853153
0.841994
0.829869
0.817833
0.804787
0.791479
0.778515
0.76393
0.749765
0.735891
0.720692
0.985935
0.980452
0.977487
0.974898
0.972388
0.969483
0.965915
0.961651
0.956673
0.951011
0.944636
0.937657
0.929911
0.921299
0.912128
0.902448
0.891784
0.880734
0.869138
0.856496
0.843712
0.829935
0.816033
0.801768
0.786179
0.771138
0.755765
0.739163
0.723081
1.00845
1.00282
0.999977
0.997448
0.994866
0.991824
0.98805
0.983512
0.97826
0.972277
0.965588
0.957881
0.949528
0.940553
0.930753
0.919979
0.908765
0.89674
0.883812
0.870437
0.856149
0.841522
0.825972
0.809767
0.79374
0.776709
0.759061
0.741874
0.724189
1.02966
1.02394
1.02131
1.01884
1.01622
1.01303
1.00907
1.00434
0.998731
0.992457
0.985177
0.977128
0.968462
0.958743
0.948076
0.936725
0.924471
0.911289
0.897513
0.883074
0.867592
0.851245
0.834359
0.817304
0.799031
0.780339
0.761736
0.742285
0.722452
1.04944
1.04372
1.04137
1.03896
1.03627
1.03298
1.02885
1.02383
1.01809
1.01135
1.00382
0.995507
0.985994
0.97579
0.964524
0.952495
0.93955
0.925306
0.910329
0.894419
0.877752
0.860458
0.842175
0.822527
0.802719
0.782931
0.761939
0.740515
0.719279
1.0677
1.06206
1.06007
1.05768
1.05499
1.05157
1.04728
1.04218
1.03604
1.02917
1.02137
1.01227
1.00268
0.991723
0.979904
0.967184
0.95302
0.938275
0.922272
0.904939
0.887164
0.867999
0.8479
0.827124
0.805797
0.783341
0.760087
0.737284
0.713723
1.08437
1.07895
1.07731
1.07497
1.07221
1.06873
1.06433
1.05896
1.0528
1.04561
1.03725
1.02834
1.01778
1.0065
0.994217
0.980506
0.965916
0.949766
0.932383
0.914448
0.895034
0.874199
0.852532
0.830258
0.806365
0.781552
0.757146
0.731521
0.705224
1.09945
1.09435
1.09307
1.09073
1.08797
1.0844
1.07987
1.07448
1.06799
1.06056
1.05233
1.04241
1.032
1.0203
1.00688
0.992878
0.977203
0.960163
0.942253
0.922379
0.901272
0.879408
0.856161
0.830994
0.805098
0.778894
0.751496
0.722978
0.694559
1.11294
1.10829
1.10728
1.105
1.1022
1.09856
1.09402
1.08841
1.08191
1.0744
1.06539
1.05592
1.04489
1.0323
1.01907
1.00389
0.987475
0.969916
0.950329
0.929393
0.907109
0.883162
0.857728
0.831083
0.803172
0.773647
0.743163
0.712356
0.681417
1.1249
1.1208
1.11999
1.11775
1.11493
1.11129
1.10659
1.10102
1.09437
1.08644
1.07785
1.06761
1.05619
1.04383
1.02953
1.014
0.997012
0.977959
0.957487
0.935694
0.911652
0.88581
0.858485
0.829295
0.798966
0.766731
0.733388
0.69977
0.664728
1.13541
1.13191
1.13121
1.12903
1.12624
1.12249
1.11788
1.11214
1.10533
1.09765
1.08841
1.07819
1.06682
1.05361
1.03916
1.02298
1.00482
0.985396
0.964154
0.94033
0.91468
0.887407
0.857841
0.826599
0.792796
0.757928
0.721605
0.683344
0.645202
1.14458
1.1417
1.14102
1.13894
1.1361
1.13244
1.12767
1.12194
1.11527
1.10717
1.09804
1.08757
1.07567
1.0625
1.04765
1.03076
1.01226
0.991941
0.968976
0.944341
0.917482
0.887889
0.85609
0.821845
0.785472
0.747014
0.706673
0.665122
0.622579
1.15251
1.15021
1.14953
1.1475
1.14475
1.14097
1.13631
1.1306
1.12366
1.11567
1.10636
1.09581
1.08359
1.0702
1.05492
1.03763
1.01879
0.997073
0.973754
0.947736
0.918849
0.887367
0.853089
0.816293
0.776693
0.734446
0.6896
0.643628
0.596517
1.15932
1.15754
1.15682
1.15489
1.15209
1.14845
1.14371
1.13791
1.13112
1.12302
1.1136
1.10277
1.09069
1.07693
1.06114
1.04381
1.02397
1.00206
0.977591
0.949989
0.919702
0.886104
0.849712
0.809667
0.766222
0.719607
0.670847
0.619004
0.566323
1.16512
1.16377
1.16302
1.16114
1.15844
1.15472
1.15003
1.14434
1.13742
1.1292
1.11978
1.10898
1.0966
1.08248
1.06678
1.04889
1.02845
1.00605
0.980425
0.951914
0.920297
0.884972
0.845076
0.801702
0.754766
0.703667
0.648931
0.591644
0.532342
1.17
1.16902
1.16823
1.16643
1.16372
1.1601
1.1554
1.14963
1.14273
1.13458
1.12504
1.11408
1.10164
1.08743
1.07136
1.05307
1.03255
1.00911
0.98298
0.953571
0.920057
0.882529
0.840507
0.793696
0.742183
0.685994
0.625386
0.56043
0.494144
1.17407
1.17337
1.17257
1.1708
1.16818
1.16452
1.15986
1.15414
1.14722
1.13897
1.12944
1.11848
1.10584
1.09146
1.07526
1.05675
1.03574
1.01195
0.985025
0.95432
0.919771
0.880081
0.835531
0.785217
0.728871
0.666862
0.599056
0.526807
0.450622
1.17745
1.17693
1.17613
1.17443
1.1718
1.16822
1.16357
1.15782
1.15088
1.1427
1.13313
1.12199
1.10943
1.09486
1.07838
1.05976
1.03852
1.01408
0.986402
0.955065
0.91907
0.877958
0.830501
0.77651
0.715443
0.646892
0.571298
0.489048
0.402338
1.18019
1.17981
1.17902
1.17735
1.17478
1.1712
1.16658
1.16084
1.15389
1.14573
1.13603
1.12509
1.11216
1.0977
1.08107
1.06207
1.04049
1.016
0.987627
0.955466
0.918337
0.875411
0.825835
0.768368
0.702091
0.62663
0.541585
0.448162
0.347748
1.18239
1.18211
1.18132
1.17969
1.17715
1.17358
1.16902
1.16323
1.15634
1.14812
1.13852
1.12736
1.11457
1.0999
1.08313
1.06403
1.04218
1.01726
0.988529
0.95563
0.917482
0.873257
0.82134
0.760703
0.689207
0.606084
0.510557
0.403566
0.286915
1.18412
1.18391
1.18314
1.18153
1.17902
1.17544
1.17095
1.1651
1.15831
1.15002
1.14037
1.12934
1.11639
1.10166
1.08485
1.06541
1.04365
1.01816
0.989144
0.955497
0.916625
0.870931
0.817446
0.753428
0.677567
0.586075
0.478928
0.35522
0.218108
1.18545
1.18529
1.18452
1.18293
1.18046
1.17687
1.17245
1.1665
1.15987
1.15138
1.14197
1.13071
1.11777
1.10308
1.08614
1.06659
1.04455
1.01889
0.98957
0.95524
0.915807
0.868932
0.813841
0.746918
0.666729
0.567324
0.44751
0.303753
0.139209
1.18644
1.18631
1.18556
1.18398
1.18153
1.17794
1.17354
1.16758
1.161
1.15239
1.14311
1.13171
1.11887
1.10407
1.087
1.06741
1.04513
1.01938
0.989693
0.9549
0.91503
0.866952
0.810451
0.740868
0.656827
0.549767
0.416648
0.249331
0.0498993
1.18715
1.18704
1.18629
1.18473
1.18227
1.17876
1.17424
1.16847
1.16163
1.15322
1.14391
1.13241
1.11964
1.1048
1.08749
1.06803
1.04528
1.01947
0.989121
0.954303
0.913035
0.864478
0.805558
0.734505
0.645308
0.532592
0.384375
0.190107
-0.0597479
1.18762
1.18753
1.18678
1.18524
1.18276
1.17933
1.1746
1.16923
1.16183
1.15396
1.14402
1.13289
1.11974
1.10497
1.08728
1.06794
1.04452
1.01868
0.987397
0.952213
0.90931
0.860028
0.798481
0.72533
0.631122
0.511915
0.349792
0.124004
-0.19929
1.1879
1.18781
1.18706
1.18552
1.183
1.17978
1.1748
1.16981
1.16189
1.15454
1.14396
1.1331
1.1194
1.10439
1.0862
1.06638
1.04241
1.01589
0.983826
0.947716
0.903696
0.85297
0.789454
0.71344
0.615208
0.488715
0.316466
0.0659645
-0.3395
1.18803
1.18794
1.18717
1.18561
1.183
1.1795
1.17432
1.16919
1.16086
1.15302
1.14192
1.13054
1.11596
1.10084
1.08205
1.06158
1.03682
1.00982
0.97693
0.94029
0.894963
0.843662
0.777774
0.701195
0.597885
0.470639
0.287989
0.0432252
-0.262162
0.468776
0.468269
0.467753
0.467231
0.466701
0.466163
0.465619
0.465069
0.464512
0.463949
0.463381
0.462806
0.462227
0.461642
0.461052
0.460457
0.459858
0.459254
0.458646
0.458034
0.457419
0.456799
0.456177
0.455551
0.454922
0.45429
0.453656
0.45302
0.452381
0.451741
0.451098
0.450455
0.44981
0.449163
0.448516
0.447869
0.447221
0.446572
0.445924
0.445276
0.444628
0.443981
0.443335
0.44269
0.442046
0.441404
0.440763
0.440124
0.439488
0.438853
0.438222
0.437593
0.436967
0.436344
0.435725
0.435109
0.434497
0.43389
0.433286
0.432687
0.432092
0.431502
0.430917
0.430338
0.429763
0.429195
0.428632
0.428075
0.427524
0.426979
0.426441
0.425909
0.425385
0.424867
0.424356
0.423853
0.423357
0.422869
0.422389
0.421916
0.421452
0.420996
0.420548
0.420108
0.419678
0.419256
0.418843
0.418439
0.418044
0.417658
0.417282
0.416915
0.416557
0.41621
0.415872
0.415544
0.415226
0.414917
0.414619
0.414332
0.414054
0.413787
0.413529
0.413283
0.413047
0.412821
0.412606
0.412401
0.412207
0.412023
0.41185
0.411687
0.411535
0.411394
0.411262
0.411142
0.411032
0.410938
0.410861
0.4108
0.410755
0.410725
0.41071
0.410707
0.41071
0.410716
0.410726
0.41074
0.410757
0.41078
0.410807
0.41084
0.410878
0.410921
0.410976
0.411022
0.411115
0.411133
0.411324
0.469012
0.468473
0.467927
0.467375
0.466817
0.466253
0.465683
0.465107
0.464525
0.463937
0.463344
0.462746
0.462143
0.461534
0.460921
0.460303
0.459681
0.459055
0.458424
0.45779
0.457152
0.45651
0.455865
0.455217
0.454566
0.453912
0.453256
0.452598
0.451937
0.451275
0.450611
0.449945
0.449279
0.448611
0.447943
0.447274
0.446605
0.445936
0.445267
0.444598
0.443931
0.443263
0.442597
0.441933
0.44127
0.440608
0.439949
0.439292
0.438637
0.437985
0.437336
0.43669
0.436047
0.435408
0.434772
0.434141
0.433514
0.432891
0.432274
0.431661
0.431053
0.430451
0.429855
0.429264
0.42868
0.428101
0.427529
0.426964
0.426405
0.425853
0.425309
0.424771
0.424241
0.423719
0.423205
0.422698
0.4222
0.421709
0.421228
0.420754
0.42029
0.419834
0.419388
0.41895
0.418522
0.418103
0.417694
0.417295
0.416905
0.416525
0.416154
0.415794
0.415445
0.415105
0.414776
0.414457
0.414149
0.413851
0.413564
0.413287
0.413021
0.412766
0.412522
0.412289
0.412067
0.411856
0.411655
0.411466
0.411288
0.41112
0.410964
0.410818
0.410684
0.410561
0.410448
0.410347
0.410256
0.410171
0.410091
0.410016
0.409947
0.409883
0.409824
0.409769
0.409725
0.409693
0.409673
0.409663
0.40966
0.409664
0.409675
0.409685
0.409701
0.409709
0.409723
0.409723
0.409706
0.409737
0.409595
0.468394
0.467805
0.46721
0.46661
0.466004
0.465393
0.464777
0.464156
0.463529
0.462897
0.46226
0.461619
0.460972
0.460321
0.459665
0.459004
0.458339
0.45767
0.456997
0.45632
0.455639
0.454955
0.454267
0.453577
0.452883
0.452187
0.451488
0.450787
0.450084
0.44938
0.448673
0.447966
0.447258
0.446548
0.445839
0.445128
0.444418
0.443708
0.442999
0.44229
0.441582
0.440876
0.440171
0.439467
0.438766
0.438067
0.43737
0.436677
0.435986
0.435299
0.434615
0.433935
0.433259
0.432587
0.43192
0.431258
0.430601
0.429949
0.429302
0.428661
0.428026
0.427396
0.426772
0.426155
0.425544
0.42494
0.424343
0.423752
0.423169
0.422594
0.422026
0.421466
0.420913
0.420369
0.419834
0.419307
0.418788
0.418278
0.417777
0.417286
0.416803
0.41633
0.415866
0.415412
0.414968
0.414533
0.414109
0.413695
0.413291
0.412897
0.412514
0.412142
0.411781
0.41143
0.41109
0.410762
0.410445
0.410139
0.409845
0.409562
0.409291
0.409031
0.408784
0.408548
0.408325
0.408113
0.407914
0.407727
0.407553
0.40739
0.40724
0.407103
0.406977
0.406863
0.406761
0.406671
0.406592
0.406524
0.406467
0.40642
0.406384
0.406359
0.406347
0.406347
0.406362
0.406392
0.406437
0.406497
0.406579
0.40666
0.406806
0.406898
0.407089
0.407243
0.407341
0.407792
0.407346
0.408578
0.407354
0.46931
0.468703
0.468092
0.467476
0.466855
0.466228
0.465596
0.464958
0.464313
0.463663
0.463007
0.462344
0.461676
0.461001
0.46032
0.459634
0.458941
0.458243
0.45754
0.456832
0.456118
0.4554
0.454677
0.45395
0.453219
0.452484
0.451745
0.451003
0.450257
0.449509
0.448758
0.448004
0.447248
0.446491
0.445732
0.444972
0.444211
0.443451
0.44269
0.44193
0.441171
0.440412
0.439655
0.438899
0.438145
0.437393
0.436643
0.435895
0.435151
0.43441
0.433672
0.432938
0.432208
0.431481
0.43076
0.430042
0.429329
0.428621
0.427918
0.427221
0.42653
0.425846
0.425168
0.424498
0.423834
0.423177
0.422528
0.421887
0.421253
0.420627
0.42001
0.4194
0.418799
0.418207
0.417623
0.417049
0.416483
0.415927
0.41538
0.414842
0.414315
0.413797
0.41329
0.412792
0.412306
0.41183
0.411364
0.41091
0.410467
0.410035
0.409614
0.409205
0.408807
0.408421
0.408048
0.407686
0.407336
0.406999
0.406675
0.406363
0.406064
0.405778
0.405505
0.405245
0.404999
0.404766
0.404547
0.404343
0.404153
0.403977
0.403816
0.40367
0.40354
0.403425
0.403326
0.403244
0.403178
0.403128
0.403095
0.40308
0.403082
0.403102
0.403141
0.403198
0.403276
0.403373
0.403494
0.40363
0.403755
0.403977
0.404068
0.404538
0.404333
0.405465
0.404327
0.407126
0.403764
0.410103
0.402025
0.473099
0.472492
0.471874
0.471246
0.470607
0.469958
0.469299
0.468631
0.467954
0.467267
0.466572
0.465869
0.465157
0.464437
0.46371
0.462975
0.462233
0.461484
0.460728
0.459966
0.459197
0.458423
0.457642
0.456857
0.456066
0.455271
0.454472
0.453668
0.452861
0.452051
0.451238
0.450422
0.449604
0.448784
0.447962
0.447138
0.446313
0.445487
0.44466
0.443832
0.443004
0.442177
0.441351
0.440525
0.439701
0.438879
0.438059
0.437241
0.436426
0.435614
0.434805
0.433999
0.433198
0.432401
0.431608
0.430821
0.430039
0.429263
0.428493
0.427729
0.426971
0.426219
0.425475
0.424737
0.424007
0.423284
0.422569
0.421862
0.421164
0.420475
0.419794
0.419122
0.41846
0.417808
0.417165
0.416532
0.415909
0.415297
0.414696
0.414105
0.413524
0.412955
0.412397
0.41185
0.411314
0.41079
0.410278
0.409777
0.409289
0.408813
0.408349
0.407897
0.407458
0.407032
0.406619
0.406219
0.405832
0.405459
0.405099
0.404753
0.404421
0.404102
0.403798
0.403509
0.403234
0.402973
0.402728
0.402498
0.402283
0.402084
0.401901
0.401734
0.401585
0.401453
0.401338
0.401243
0.401166
0.401109
0.401072
0.401056
0.401061
0.401088
0.401137
0.401208
0.401303
0.401423
0.401557
0.401838
0.40181
0.402289
0.402019
0.403221
0.40204
0.404752
0.401534
0.407321
0.400136
0.411911
0.393803
0.476212
0.475599
0.474969
0.474321
0.473656
0.472975
0.472278
0.471566
0.47084
0.4701
0.469347
0.468581
0.467804
0.467015
0.466215
0.465404
0.464584
0.463755
0.462916
0.46207
0.461215
0.460354
0.459485
0.45861
0.45773
0.456843
0.455952
0.455056
0.454156
0.453252
0.452345
0.451435
0.450522
0.449608
0.448691
0.447774
0.446856
0.445938
0.44502
0.444102
0.443186
0.442271
0.441358
0.440447
0.439539
0.438633
0.437731
0.436833
0.435938
0.435048
0.434163
0.433283
0.432408
0.431538
0.430675
0.429817
0.428966
0.428122
0.427285
0.426456
0.425634
0.424821
0.424016
0.423219
0.422431
0.421651
0.420881
0.42012
0.419369
0.418627
0.417896
0.417174
0.416463
0.415762
0.415072
0.414393
0.413725
0.413068
0.412422
0.411787
0.411165
0.410554
0.409956
0.409369
0.408795
0.408234
0.407685
0.407149
0.406625
0.406114
0.405617
0.405133
0.404661
0.404204
0.40376
0.403329
0.402913
0.40251
0.402121
0.401746
0.401386
0.40104
0.400709
0.400392
0.40009
0.399803
0.39953
0.399273
0.399032
0.398805
0.398594
0.398399
0.398219
0.398056
0.397909
0.397778
0.397664
0.397568
0.397489
0.397428
0.397386
0.397363
0.397359
0.397375
0.397411
0.397467
0.39753
0.397813
0.397443
0.398435
0.397412
0.398843
0.397355
0.399984
0.396978
0.401554
0.396366
0.404493
0.388343
0.477752
0.47711
0.476445
0.47576
0.475053
0.474327
0.473581
0.472816
0.472032
0.471231
0.470412
0.469576
0.468725
0.467858
0.466977
0.466083
0.465175
0.464256
0.463325
0.462384
0.461432
0.460471
0.459502
0.458524
0.457539
0.456548
0.45555
0.454547
0.453539
0.452527
0.451511
0.450492
0.449471
0.448449
0.447425
0.446401
0.445377
0.444353
0.443331
0.44231
0.441291
0.440274
0.43926
0.438249
0.437242
0.436239
0.435241
0.434247
0.433259
0.432276
0.4313
0.430329
0.429366
0.42841
0.427461
0.426521
0.425588
0.424664
0.423749
0.422842
0.421944
0.421055
0.420175
0.419305
0.418445
0.417595
0.416756
0.415927
0.415108
0.414301
0.413504
0.412719
0.411945
0.411183
0.410432
0.409694
0.408967
0.408253
0.407552
0.406862
0.406186
0.405523
0.404873
0.404237
0.403614
0.403004
0.402407
0.401824
0.401255
0.4007
0.400158
0.399631
0.399117
0.398618
0.398133
0.397661
0.397204
0.396762
0.396334
0.39592
0.395521
0.395136
0.394766
0.39441
0.394069
0.393743
0.393431
0.393135
0.392853
0.392586
0.392334
0.392097
0.391874
0.391667
0.391474
0.391295
0.391132
0.390982
0.390847
0.390726
0.390618
0.390525
0.390446
0.39038
0.390327
0.390288
0.390257
0.390265
0.390138
0.390519
0.38979
0.391017
0.389403
0.391416
0.389647
0.391537
0.38965
0.39244
0.384796
0.480815
0.480096
0.479354
0.478588
0.477799
0.476989
0.476157
0.475305
0.474433
0.473542
0.472633
0.471705
0.470759
0.469796
0.468816
0.46782
0.466809
0.465784
0.464747
0.463697
0.462636
0.461564
0.460482
0.459391
0.458292
0.457185
0.456071
0.454951
0.453826
0.452696
0.451562
0.450426
0.449287
0.448146
0.447004
0.445861
0.444718
0.443576
0.442434
0.441295
0.440157
0.439023
0.437892
0.436764
0.435641
0.434522
0.433409
0.432302
0.431201
0.430106
0.429018
0.427938
0.426866
0.425802
0.424747
0.4237
0.422663
0.421636
0.420618
0.419611
0.418614
0.417628
0.416653
0.415689
0.414736
0.413796
0.412867
0.41195
0.411046
0.410155
0.409276
0.40841
0.407558
0.406719
0.405894
0.405082
0.404285
0.403501
0.402732
0.401977
0.401237
0.40051
0.399798
0.399101
0.398418
0.39775
0.397096
0.396457
0.395833
0.395224
0.39463
0.394051
0.393487
0.392937
0.392403
0.391884
0.39138
0.390891
0.390417
0.389958
0.389515
0.389086
0.388673
0.388275
0.387892
0.387524
0.387171
0.386834
0.386511
0.386204
0.385911
0.385634
0.385371
0.385123
0.384889
0.38467
0.384465
0.384274
0.384097
0.383933
0.383783
0.383646
0.383522
0.383411
0.383313
0.383226
0.383151
0.383093
0.383028
0.383026
0.382893
0.383111
0.3827
0.383273
0.38256
0.383392
0.382714
0.383684
0.380533
0.486474
0.485651
0.4848
0.48392
0.483013
0.48208
0.481122
0.48014
0.479135
0.478108
0.47706
0.475992
0.474905
0.4738
0.472679
0.471541
0.470388
0.469218
0.468035
0.466839
0.46563
0.46441
0.46318
0.46194
0.460691
0.459435
0.458172
0.456903
0.455629
0.45435
0.453068
0.451784
0.450497
0.449209
0.447921
0.446632
0.445345
0.44406
0.442777
0.441497
0.440221
0.43895
0.437683
0.436422
0.435168
0.43392
0.432679
0.431447
0.430222
0.429006
0.4278
0.426603
0.425416
0.424239
0.423073
0.421918
0.420775
0.419643
0.418523
0.417416
0.416321
0.415239
0.414171
0.413116
0.412075
0.411048
0.410035
0.409036
0.408052
0.407083
0.406129
0.40519
0.404267
0.403358
0.402466
0.401588
0.400727
0.399881
0.399051
0.398237
0.397438
0.396656
0.395889
0.395138
0.394403
0.393684
0.392981
0.392294
0.391623
0.390969
0.39033
0.389707
0.3891
0.388509
0.387934
0.387375
0.386832
0.386304
0.385793
0.385297
0.384818
0.384353
0.383905
0.383472
0.383055
0.382653
0.382267
0.381896
0.38154
0.381199
0.380874
0.380563
0.380267
0.379986
0.37972
0.379468
0.37923
0.379006
0.378797
0.378601
0.378419
0.378251
0.378095
0.377953
0.377824
0.377707
0.377603
0.377511
0.377429
0.377366
0.377295
0.377276
0.377182
0.377255
0.37711
0.377209
0.377166
0.377233
0.376035
0.492751
0.491808
0.490832
0.489822
0.488781
0.487708
0.486606
0.485475
0.484316
0.483132
0.481922
0.480689
0.479434
0.478158
0.476862
0.475548
0.474216
0.472869
0.471506
0.470129
0.46874
0.467339
0.465928
0.464507
0.463077
0.461641
0.460198
0.45875
0.457298
0.455843
0.454385
0.452926
0.451467
0.450009
0.448552
0.447097
0.445645
0.444198
0.442755
0.441317
0.439886
0.438462
0.437046
0.435638
0.434239
0.432849
0.43147
0.430101
0.428743
0.427397
0.426063
0.424741
0.423433
0.422138
0.420856
0.419589
0.418336
0.417098
0.415875
0.414667
0.413474
0.412298
0.411137
0.409993
0.408865
0.407754
0.406659
0.405581
0.404521
0.403477
0.40245
0.401441
0.400449
0.399474
0.398517
0.397576
0.396654
0.395748
0.39486
0.393989
0.393135
0.392299
0.39148
0.390679
0.389895
0.389128
0.388379
0.387647
0.386932
0.386234
0.385554
0.38489
0.384244
0.383615
0.383002
0.382407
0.381828
0.381266
0.38072
0.380191
0.379679
0.379182
0.378702
0.378238
0.37779
0.377358
0.376942
0.376541
0.376156
0.375787
0.375432
0.375093
0.374769
0.37446
0.374165
0.373885
0.37362
0.373369
0.373132
0.372908
0.372699
0.372503
0.372321
0.372152
0.371995
0.371852
0.37172
0.371601
0.371493
0.371399
0.371311
0.371243
0.371169
0.371134
0.37106
0.371054
0.370998
0.370925
0.370291
0.498948
0.497855
0.496722
0.495552
0.494346
0.493105
0.49183
0.490524
0.489187
0.48782
0.486427
0.485007
0.483562
0.482094
0.480604
0.479093
0.477564
0.476018
0.474455
0.472878
0.471288
0.469686
0.468074
0.466452
0.464823
0.463188
0.461547
0.459902
0.458255
0.456606
0.454957
0.453309
0.451662
0.450018
0.448378
0.446743
0.445114
0.443492
0.441877
0.44027
0.438673
0.437086
0.435509
0.433944
0.432391
0.43085
0.429323
0.42781
0.426311
0.424826
0.423357
0.421904
0.420467
0.419047
0.417643
0.416257
0.414889
0.413538
0.412205
0.410891
0.409595
0.408318
0.40706
0.405821
0.404601
0.4034
0.402219
0.401056
0.399914
0.39879
0.397686
0.396602
0.395537
0.394491
0.393465
0.392459
0.391472
0.390504
0.389555
0.388626
0.387716
0.386825
0.385954
0.385101
0.384267
0.383453
0.382657
0.38188
0.381121
0.380381
0.37966
0.378957
0.378272
0.377605
0.376956
0.376325
0.375712
0.375116
0.374538
0.373978
0.373434
0.372908
0.372399
0.371906
0.37143
0.370971
0.370528
0.370101
0.369691
0.369296
0.368917
0.368554
0.368206
0.367874
0.367557
0.367254
0.366967
0.366694
0.366436
0.366192
0.365962
0.365747
0.365544
0.365356
0.365181
0.365019
0.36487
0.364734
0.36461
0.3645
0.3644
0.364314
0.364236
0.364177
0.364117
0.364082
0.364017
0.363902
0.363379
0.505937
0.504655
0.503329
0.50196
0.500551
0.499103
0.497617
0.496096
0.494541
0.492954
0.491337
0.489691
0.488019
0.486322
0.484602
0.482861
0.4811
0.479321
0.477527
0.475718
0.473896
0.472064
0.470222
0.468373
0.466518
0.464658
0.462794
0.46093
0.459065
0.457201
0.455339
0.453481
0.451628
0.449781
0.447941
0.446109
0.444287
0.442475
0.440674
0.438885
0.43711
0.435348
0.4336
0.431868
0.430151
0.428451
0.426769
0.425104
0.423457
0.421828
0.420219
0.41863
0.41706
0.415511
0.413982
0.412474