/*--------------------------------*- C++ -*----------------------------------*\
| =========                 |                                                 |
| \\      /  F ield         | OpenFOAM: The Open Source CFD Toolbox           |
|  \\    /   O peration     | Version:  5.x                                   |
|   \\  /    A nd           | Web:      www.OpenFOAM.org                      |
|    \\/     M anipulation  |                                                 |
\*---------------------------------------------------------------------------*/
/*   Windows 32 and 64 bit porting by blueCAPE: http://www.bluecape.com.pt   *\
|  Based on Windows porting (2.0.x v4) by Symscape: http://www.symscape.com   |
\*---------------------------------------------------------------------------*/
FoamFile
{
    version     2.0;
    format      ascii;
    class       surfaceScalarField;
    location    "60";
    object      phi;
}
// * * * * * * * * * * * * * * * * * * * * * * * * * * * * * * * * * * * * * //

dimensions      [0 3 -1 0 0 0 0];

internalField   nonuniform List<scalar> 
87341
(
0.329733
39.5933
0.392237
39.8605
0.432667
39.8826
0.487793
39.8679
0.531896
39.8789
0.576399
39.8785
0.620815
39.8786
0.661805
39.882
0.701597
39.8832
0.740062
39.8846
0.777208
39.8859
0.81307
39.8872
0.847669
39.8884
0.881022
39.8897
0.913169
39.8909
0.944155
39.8921
0.974014
39.8932
1.0028
39.8943
1.03054
39.8953
1.05728
39.8963
1.08308
39.8972
1.10798
39.8981
1.13201
39.899
1.15521
39.8998
1.17761
39.9006
1.19926
39.9014
1.22019
39.9021
1.24042
39.9028
39.9032
1.26029
0.737318
38.856
1.04189
39.556
1.05961
39.8649
1.21911
39.7084
1.29073
39.8073
1.40926
39.76
1.49162
39.7963
1.57973
39.7939
1.66012
39.8029
1.73472
39.81
1.80443
39.8162
1.86984
39.8218
1.93149
39.8268
1.98992
39.8313
2.04549
39.8353
2.09851
39.839
2.14929
39.8424
2.19807
39.8455
2.24508
39.8483
2.29051
39.8509
2.33452
39.8532
2.37713
39.8555
2.41856
39.8576
2.45897
39.8594
2.49837
39.8612
2.53682
39.8629
2.57436
39.8646
2.61105
39.8661
39.8677
2.64648
1.72473
37.1313
2.50141
38.7793
2.74788
39.6184
2.71234
39.744
2.77415
39.7455
2.7843
39.7498
2.82789
39.7527
2.86896
39.7529
2.91344
39.7584
2.96277
39.7606
3.01512
39.7638
3.07019
39.7667
3.12673
39.7702
3.18439
39.7736
3.24297
39.7767
3.30228
39.7797
3.36213
39.7826
3.42235
39.7852
3.48282
39.7878
3.54342
39.7903
3.60408
39.7926
3.66456
39.795
3.72491
39.7972
3.78505
39.7993
3.84498
39.8013
3.90471
39.8032
3.9642
39.8051
4.02343
39.8069
39.8093
4.0819
1.71575
35.4155
3.23553
37.2595
4.04859
38.8053
4.1306
39.6619
4.13374
39.7424
4.11667
39.7669
4.12149
39.7479
4.12248
39.7519
4.13315
39.7477
4.14906
39.7447
4.17133
39.7416
4.19941
39.7386
4.23365
39.736
4.27356
39.7337
4.31847
39.7318
4.36787
39.7303
4.42132
39.7291
4.47852
39.7281
4.53895
39.7274
4.60227
39.7269
4.66814
39.7267
4.73626
39.7269
4.80625
39.7272
4.87778
39.7278
4.95058
39.7285
5.02405
39.7297
5.09776
39.7314
5.17149
39.7331
39.7344
5.24633
0.88296
34.5325
2.08986
36.0526
3.17921
37.716
3.64059
39.2006
3.70809
39.6749
3.75869
39.7163
3.80951
39.697
3.86369
39.6977
3.92165
39.6897
3.98068
39.6857
4.04172
39.6805
4.10453
39.6758
4.16967
39.6709
4.23696
39.6664
4.30641
39.6624
4.37789
39.6588
4.4513
39.6557
4.52642
39.6529
4.60319
39.6506
4.68151
39.6486
4.76117
39.647
4.84228
39.6458
4.92463
39.6449
5.00809
39.6443
5.09253
39.644
5.17815
39.6441
5.26505
39.6445
5.35318
39.645
39.6448
5.44284
0.389368
34.1432
0.921203
35.5208
1.59278
37.0444
2.14561
38.6477
2.35341
39.4671
2.51587
39.5539
2.66958
39.5433
2.8279
39.5394
2.98385
39.5338
3.14007
39.5295
3.29488
39.5257
3.44829
39.5224
3.59969
39.5195
3.74918
39.5169
3.89686
39.5147
4.04281
39.5129
4.1871
39.5114
4.32977
39.5103
4.4709
39.5095
4.61053
39.509
4.74865
39.5089
4.88583
39.5086
5.02179
39.5089
5.15651
39.5096
5.29009
39.5105
5.42269
39.5115
5.55438
39.5128
5.68501
39.5144
39.5164
5.81337
0.253033
33.8901
0.555976
35.2178
0.913416
36.687
1.31315
38.248
1.57049
39.2097
1.79501
39.3293
2.01453
39.3238
2.23104
39.3229
2.44433
39.3205
2.65487
39.3189
2.86271
39.3179
3.06795
39.3172
3.27061
39.3168
3.47071
39.3168
3.66828
39.3171
3.86334
39.3178
4.05591
39.3188
4.24599
39.3202
4.43359
39.3219
4.61872
39.3239
4.80128
39.3264
4.98176
39.3281
5.15981
39.3309
5.33529
39.3341
5.50814
39.3376
5.67825
39.3414
5.8456
39.3455
6.01025
39.3497
39.3549
6.17177
0.264336
33.6258
0.551259
34.9309
0.856853
36.3814
1.16589
37.939
1.41
38.9656
1.63515
39.1042
1.8559
39.1031
2.07583
39.1029
2.29387
39.1025
2.51014
39.1027
2.72472
39.1033
2.93755
39.1043
3.14857
39.1058
3.35771
39.1077
3.56492
39.1099
3.77014
39.1126
3.97332
39.1157
4.17441
39.1191
4.37336
39.1229
4.57012
39.1271
4.7646
39.1319
4.95692
39.1358
5.14691
39.1409
5.33447
39.1465
5.51954
39.1525
5.70207
39.1589
5.88203
39.1655
6.05942
39.1723
39.1793
6.23499
0.24521
33.3806
0.502527
34.6736
0.769021
36.1149
1.0354
37.6726
1.28252
38.7185
1.52184
38.8649
1.75748
38.8674
1.99155
38.8689
2.22351
38.8705
2.45354
38.8726
2.68161
38.8752
2.90773
38.8782
3.13186
38.8817
3.35399
38.8855
3.57408
38.8898
3.79209
38.8946
4.00798
38.8998
4.22171
38.9054
4.43324
38.9114
4.64251
38.9178
4.84955
38.9248
5.054
38.9314
5.25602
38.9389
5.45561
38.9469
5.65273
38.9554
5.84731
38.9643
6.03924
38.9736
6.2284
38.9832
38.9924
6.41531
0.222704
33.1579
0.451753
34.4445
0.685309
35.8813
0.924921
37.433
1.18101
38.4624
1.44143
38.6044
1.69957
38.6093
1.95574
38.6127
2.20975
38.6165
2.46162
38.6208
2.71132
38.6255
2.95881
38.6307
3.20405
38.6364
3.447
38.6426
3.68761
38.6492
3.92583
38.6564
4.16161
38.664
4.39491
38.6721
4.62567
38.6806
4.85382
38.6897
5.07939
38.6993
5.30192
38.7089
5.5216
38.7192
5.73847
38.7301
5.95246
38.7414
6.16352
38.7532
6.37155
38.7655
6.57646
38.7783
38.7908
6.77803
0.239347
32.9185
0.481194
34.2027
0.724841
35.6377
0.970284
37.1875
1.23834
38.1944
1.51409
38.3287
1.78886
38.3345
2.0624
38.3392
2.33449
38.3444
2.60499
38.3503
2.87374
38.3568
3.1406
38.3639
3.40544
38.3716
3.66813
38.3799
3.92855
38.3888
4.18657
38.3983
4.44209
38.4085
4.69499
38.4192
4.94517
38.4305
5.19253
38.4423
5.437
38.4548
5.67822
38.4676
5.91628
38.4811
6.15113
38.4952
6.3827
38.5099
6.61091
38.525
6.83567
38.5408
7.05692
38.557
38.5733
7.27447
0.266934
32.6516
0.536851
33.9328
0.807662
35.3669
1.07676
36.9184
1.36582
37.9053
1.66128
38.0332
1.95595
38.0398
2.24958
38.0455
2.54196
38.052
2.8329
38.0593
3.1222
38.0675
3.40968
38.0764
3.69516
38.0861
3.97847
38.0966
4.25944
38.1078
4.5379
38.1199
4.8137
38.1327
5.08669
38.1462
5.35672
38.1604
5.62365
38.1754
5.88737
38.1911
6.14761
38.2074
6.40433
38.2244
6.65743
38.2421
6.90682
38.2605
7.15238
38.2795
7.39402
38.2991
7.63165
38.3194
38.3396
7.86534
0.292703
32.3589
0.588885
33.6366
0.885519
35.0702
1.18008
36.6239
1.49572
37.5897
1.81728
37.7116
2.13774
37.7194
2.45689
37.7264
2.7745
37.7344
3.09038
37.7435
3.40434
37.7535
3.71616
37.7646
4.02567
37.7766
4.33266
37.7896
4.63696
37.8036
4.93838
37.8185
5.23674
37.8343
5.53188
37.851
5.82361
37.8687
6.11179
37.8872
6.39625
37.9066
6.67681
37.9268
6.95334
37.9479
7.22571
37.9697
7.49379
37.9924
7.75746
38.0158
8.01661
38.04
8.27112
38.0649
38.0896
8.5211
0.319188
32.0397
0.641898
33.3139
0.964955
34.7472
1.28646
36.3024
1.63135
37.2448
1.98215
37.3608
2.3316
37.3699
2.67941
37.3786
3.02536
37.3885
3.36921
37.3996
3.71075
37.412
4.04974
37.4256
4.38597
37.4404
4.71922
37.4563
5.04929
37.4735
5.37596
37.4918
5.69903
37.5112
6.0183
37.5318
6.3336
37.5534
6.64472
37.5761
6.9515
37.5998
7.25375
37.6246
7.55131
37.6503
7.84403
37.677
8.13175
37.7047
8.41433
37.7332
8.69164
37.7627
8.96355
37.793
37.823
9.23012
0.348894
31.6908
0.701472
32.9613
1.05424
34.3944
1.40567
35.9509
1.78223
36.8682
2.16448
36.9786
2.54513
36.9893
2.92385
36.9998
3.30038
37.0119
3.67445
37.0255
4.04578
37.0406
4.41411
37.0572
4.77918
37.0753
5.14074
37.0948
5.49855
37.1157
5.85236
37.138
6.20193
37.1616
6.54705
37.1866
6.88749
37.213
7.22304
37.2406
7.55349
37.2694
7.87864
37.2994
8.19831
37.3307
8.51232
37.363
8.82049
37.3965
9.12268
37.431
9.41871
37.4666
9.70845
37.5032
37.5396
9.99192
0.381556
31.3093
0.767076
32.5758
1.15253
34.009
1.53675
35.5667
1.94774
36.4572
2.36404
36.5623
2.77843
36.5749
3.19056
36.5877
3.60011
36.6024
4.00674
36.6189
4.41016
36.6372
4.81005
36.6573
5.2061
36.6792
5.59801
36.7029
5.98551
36.7282
6.3683
36.7552
6.74612
36.7838
7.1187
36.8141
7.48578
36.8459
7.84713
36.8792
8.2025
36.914
8.55168
36.9503
8.89444
36.9879
9.23058
37.0269
9.55991
37.0672
9.88224
37.1087
10.1974
37.1515
10.5052
37.1954
37.2391
10.8058
0.416707
30.8926
0.837652
32.1548
1.25818
33.5884
1.6778
35.1471
2.12599
36.009
2.57905
36.1092
3.02984
36.1241
3.47796
36.1396
3.92303
36.1573
4.36467
36.1773
4.80252
36.1994
5.2362
36.2237
5.66536
36.2501
6.08967
36.2786
6.50877
36.3091
6.92236
36.3416
7.3301
36.3761
7.7317
36.4125
8.12685
36.4507
8.5153
36.4908
8.89675
36.5326
9.27095
36.5761
9.63768
36.6212
9.99668
36.6679
10.3477
36.7161
10.6907
36.7658
11.0253
36.8169
11.3514
36.8692
36.9215
11.669
0.454249
30.4383
0.91298
31.6961
1.37085
33.1306
1.8284
34.6895
2.31641
35.521
2.80878
35.6169
3.29848
35.6344
3.78504
35.653
4.268
35.6744
4.74694
35.6983
5.22142
35.7249
5.69101
35.7541
6.1553
35.7858
6.61389
35.82
7.06639
35.8566
7.51241
35.8956
7.95161
35.9369
8.3836
35.9805
8.80809
36.0262
9.22471
36.0741
9.63318
36.1241
10.0332
36.176
10.4245
36.2299
10.8068
36.2855
11.18
36.343
11.5436
36.4022
11.8976
36.4628
12.2417
36.5251
36.5873
12.5759
0.494109
29.9442
0.992919
31.1973
1.4903
32.6332
1.98824
34.1916
2.51856
34.9907
3.05263
35.0828
3.58357
35.1035
4.11083
35.1258
4.6339
35.1513
5.15226
35.18
5.6654
35.2118
6.17284
35.2466
6.67409
35.2845
7.16869
35.3254
7.65619
35.3691
8.13615
35.4156
8.60813
35.4649
9.07178
35.5168
9.52663
35.5714
9.9724
35.6284
10.4087
35.6878
10.8352
35.7496
11.2517
35.8134
11.6577
35.8796
12.053
35.9477
12.4376
36.0175
12.8109
36.0896
13.173
36.163
36.2365
13.5238
0.536109
29.4081
1.07711
30.6563
1.61596
32.0943
2.15664
33.6509
2.73156
34.4158
3.30953
34.5048
3.88385
34.5291
4.45391
34.5557
5.0191
34.5861
5.57881
34.6202
6.13247
34.6581
6.67951
34.6996
7.21936
34.7447
7.7515
34.7932
8.2754
34.8452
8.79053
34.9005
9.29652
34.9589
9.79266
35.0207
10.2789
35.0852
10.7544
35.1528
11.2189
35.2233
11.6725
35.296
12.1138
35.3721
12.5436
35.4498
12.9613
35.53
13.3655
35.6133
13.7579
35.6972
14.1369
35.784
35.8715
14.5019
0.579976
28.8281
1.165
30.0713
1.74698
31.5123
2.33255
33.0654
2.9541
33.7942
3.57794
33.881
4.19757
33.9095
4.81228
33.941
5.42138
33.977
6.02416
34.0175
6.61997
34.0623
7.20812
34.1114
7.78802
34.1648
8.35899
34.2223
8.92045
34.2837
9.47198
34.349
10.0125
34.4184
10.5425
34.4907
11.0602
34.5675
11.566
34.647
12.0599
34.7294
12.5392
34.8167
13.0071
34.9042
13.4604
34.9964
13.8984
35.092
14.3251
35.1865
14.7346
35.2876
15.1297
35.389
35.4893
15.5118
0.625367
28.2028
1.2559
29.4407
1.88227
30.886
2.51462
32.433
3.18456
33.1243
3.85594
33.2096
4.52251
33.2429
5.18345
33.2801
5.83795
33.3225
6.48526
33.3702
7.12453
33.423
7.75515
33.4808
8.37616
33.5438
8.98711
33.6113
9.58724
33.6836
10.1753
33.7609
10.7526
33.8412
11.315
33.9282
11.8661
34.0164
12.4031
34.11
12.923
34.2094
13.4333
34.3064
13.9237
34.4138
14.3988
34.5213
14.8635
34.6273
15.3036
34.7465
15.7324
34.8588
16.1462
34.9751
35.101
16.5345
0.671857
27.5309
1.34893
28.7637
2.02051
30.2144
2.70124
31.7523
3.42093
32.4046
4.14116
32.4894
4.85594
32.5282
5.56433
32.5717
6.26545
32.6214
6.95833
32.6773
7.64229
32.7391
8.31603
32.8071
8.97946
32.8803
9.63094
32.9598
10.2698
33.0447
10.8974
33.1333
11.5072
33.2314
12.108
33.3274
12.6895
33.4349
13.2541
33.5455
13.811
33.6524
14.3384
33.7791
14.8569
33.8953
15.3616
34.0166
15.8322
34.1568
16.3022
34.2765
16.747
34.414
17.1627
34.5594
34.6867
17.577
0.718923
26.812
1.44306
28.0395
2.16014
29.4973
2.89046
31.022
3.6608
31.6343
4.43076
31.7194
5.1946
31.7643
5.9513
31.815
6.69975
31.8729
7.4392
31.9378
8.16799
32.0103
8.88653
32.0885
9.59168
32.1752
10.2847
32.2668
10.9651
32.3643
11.625
32.4734
12.2805
32.576
12.9065
32.7013
13.5224
32.8191
14.1284
32.9395
14.6935
33.0874
15.2646
33.208
15.8079
33.3521
16.3132
33.5112
16.8331
33.6369
17.3061
33.8035
17.7566
33.9635
18.2144
34.1016
34.2865
18.6147
0.765957
26.046
1.53704
27.2684
2.29931
28.7351
3.07998
30.2413
3.90135
30.8129
4.72141
30.8993
5.53469
30.9511
6.33998
31.0097
7.13638
31.0765
7.92199
31.1522
8.69763
31.2346
9.4583
31.3279
10.2088
31.4247
10.943
31.5326
11.6573
31.6501
12.3703
31.7603
13.0409
31.9054
13.7172
32.0251
14.3696
32.1666
14.9768
32.3322
15.6077
32.4565
16.1853
32.6304
16.7342
32.8031
17.3058
32.9396
17.8049
33.1378
18.2967
33.3117
18.7934
33.4668
19.2137
33.6813
33.8549
19.6453
0.812258
25.2338
1.62948
26.4512
2.43597
27.9286
3.26722
29.41
4.1394
29.9407
5.00935
30.0294
5.87185
30.0886
6.72576
30.1558
7.56922
30.2331
8.40294
30.3185
9.22067
30.4169
10.031
30.5176
10.819
30.6367
11.5932
30.7583
12.3634
30.8799
13.0814
31.0423
13.8253
31.1615
14.5188
31.3315
15.1788
31.5066
15.8713
31.6398
16.485
31.8428
17.0848
32.0305
17.7085
32.1795
18.2402
32.4079
18.7759
32.6021
19.3194
32.7682
19.7682
33.018
20.2405
33.209
33.4134
20.6821
0.857033
24.3767
1.71877
25.5895
2.56786
27.0795
3.44934
28.5286
4.3714
29.0186
5.29041
29.1104
6.20139
29.1776
7.10273
29.2544
7.99439
29.3414
8.87033
29.4426
9.74084
29.5464
10.5829
29.6755
11.4226
29.7969
12.2451
29.9359
13.0179
30.1071
13.8302
30.2299
14.5648
30.427
15.2882
30.6081
16.0406
30.7543
16.6942
30.9861
17.3443
31.1928
18.0309
31.3438
18.5958
31.6146
19.1764
31.8274
19.7751
32.0034
20.2471
32.2962
20.7653
32.4997
21.2425
32.7318
33.0142
21.6417
0.899439
23.4773
1.80318
24.6857
2.69262
26.19
3.62328
27.5979
4.59368
28.0482
5.56013
28.1439
6.51805
28.2197
7.4664
28.3061
8.40076
28.407
9.32971
28.5136
10.2274
28.6487
11.1343
28.7686
12.0026
28.9285
12.8426
29.0959
13.7191
29.2306
14.4978
29.4512
15.2859
29.6389
16.1011
29.7928
16.7939
30.0615
17.5027
30.2774
18.2606
30.4348
18.8459
30.7585
19.4897
30.9708
20.1369
31.1802
20.6385
31.5018
21.2161
31.7186
21.7246
31.9912
22.157
32.2994
32.5377
22.6335
0.938611
22.5387
1.8809
23.7435
2.80785
25.2631
3.78602
26.6197
4.80217
27.0321
5.81397
27.1321
6.8167
27.217
7.80796
27.3148
8.79211
27.4229
9.7475
27.5582
10.7175
27.6787
11.6307
27.8554
12.5491
28.0102
13.4749
28.1701
14.303
28.4026
15.1626
28.5916
16.0466
28.7549
16.7659
29.0735
17.5545
29.2728
18.3676
29.4643
18.9838
29.8186
19.7116
30.0307
20.3947
30.2878
20.9487
30.6262
21.5834
30.8671
22.1145
31.1875
22.5974
31.5083
23.1345
31.7623
32.145
23.5271
0.973699
21.565
1.95009
22.7671
2.91137
24.3018
3.93439
25.5967
4.99347
25.973
6.04709
26.0785
7.09156
26.1725
8.12715
26.2792
9.14045
26.4096
10.166
26.5326
11.1293
26.7155
12.1247
26.86
13.087
27.0479
13.9804
27.2767
14.9151
27.4679
15.8308
27.6759
16.5954
27.9903
17.4991
28.1698
18.3402
28.4318
19.0092
28.7953
19.8109
29.0168
20.521
29.3206
21.149
29.6598
21.8376
29.9376
22.3896
30.3151
22.9388
30.6383
23.5214
30.9257
23.9268
31.3569
31.6971
24.3747
1.00393
20.561
2.00906
21.7619
3.0012
23.3097
4.0659
24.532
5.16323
24.8757
6.25548
24.9863
7.33843
25.0895
8.40601
25.2117
9.47857
25.337
10.4947
25.5165
11.5539
25.6563
12.5536
25.8602
13.5168
26.0847
14.5186
26.2749
15.4662
26.5203
16.3308
26.8113
17.3088
27.0123
18.1381
27.3404
18.9078
27.6621
19.789
27.9142
20.5221
28.2838
21.2271
28.6156
21.9624
28.9245
22.5505
29.3494
23.194
29.6716
23.8121
30.0201
24.2428
30.4951
24.7698
30.8299
31.2214
25.2455
1.02867
19.5324
2.05628
20.7343
3.07583
22.2901
4.1776
23.4302
5.30919
23.7441
6.43452
23.8609
7.5494
23.9747
8.66241
24.0986
9.7332
24.2662
10.8474
24.4023
11.8797
24.624
12.9141
24.8258
13.9856
25.0132
14.9758
25.2847
15.9224
25.5737
16.923
25.8107
17.7957
26.1396
18.6846
26.4514
19.5983
26.7484
20.3692
27.1433
21.1619
27.4911
21.9569
27.8205
22.6039
28.2775
23.3184
28.6349
23.9433
29.0468
24.4639
29.4995
25.0629
29.8961
25.5225
30.3703
30.821
25.9229
1.04749
18.4849
2.09075
19.6911
3.13438
21.2465
4.26806
22.2966
5.42724
22.5849
6.58033
22.7079
7.72807
22.8269
8.84879
22.9779
10.0013
23.1137
11.0704
23.3332
12.177
23.5174
13.2889
23.7139
14.2949
24.0072
15.3166
24.263
16.3788
24.5116
17.3187
24.8708
18.286
25.1723
19.2328
25.5046
20.063
25.9182
20.946
26.2603
21.8038
26.6333
22.5024
27.122
23.2741
27.5059
23.9464
27.9626
24.5815
28.4117
25.1905
28.8905
25.6996
29.387
26.193
29.8769
30.3997
26.6142
1.06013
17.4247
2.11205
18.6392
3.17632
20.1822
4.33526
21.1376
5.51568
21.4045
6.69221
21.5313
7.85267
21.6665
9.02958
21.801
10.1413
22.0021
11.3024
22.172
12.4276
22.3922
13.4759
22.6657
14.5981
22.8849
15.6855
23.1757
16.6715
23.5256
17.7352
23.8071
18.699
24.2085
19.5884
24.6152
20.5697
24.9369
21.4644
25.3656
22.2502
25.8474
23.0807
26.2915
23.8111
26.7754
24.5478
27.2259
25.1769
27.7825
25.7741
28.2933
26.3265
28.8346
26.8267
29.3767
29.9566
27.2698
1.06624
16.3585
2.11974
17.5857
3.20133
19.1006
4.37752
19.9614
5.57329
20.2087
6.75989
20.3447
7.95241
20.4739
9.10329
20.6501
10.2972
20.8082
11.4382
21.031
12.5522
21.2781
13.7228
21.4951
14.8211
21.7866
15.867
22.1298
16.9913
22.4013
17.9566
22.8418
18.9871
23.178
20.0509
23.5515
20.9668
24.021
21.8302
24.5022
22.6656
25.012
23.5512
25.4059
24.3533
25.9733
25.0128
26.5664
25.6601
27.1353
26.2916
27.6619
26.873
28.2533
27.3358
28.9139
29.57
27.7224
1.06539
15.2931
2.11448
16.5366
3.20834
18.0067
4.39603
18.7737
5.59529
19.0095
6.7977
19.1423
7.97646
19.2952
9.18298
19.4436
10.3467
19.6445
11.5026
19.8751
12.69
20.0907
13.8115
20.3736
14.9045
20.6936
16.0826
20.9517
17.0942
21.3896
18.2383
21.6977
19.2798
22.1365
20.2373
22.5939
21.1836
23.0747
22.106
23.5797
23.1006
24.0175
23.9093
24.5971
24.6487
25.234
25.418
25.7971
26.1333
26.4199
26.7536
27.0416
27.2789
27.728
27.8157
28.3771
29.1075
28.2782
1.05734
14.2358
2.09615
15.4978
3.19897
16.9039
4.38619
17.5865
5.59044
17.8052
6.78005
17.9527
7.98697
18.0883
9.16052
18.2701
10.3399
18.4651
11.5353
18.6797
12.6809
18.9451
13.8327
19.2219
15.0143
19.5119
16.0825
19.8835
17.2632
20.209
18.2956
20.6653
19.3487
21.0834
20.3878
21.5548
21.4193
22.0433
22.4197
22.5793
23.2884
23.1488
24.1124
23.7731
25.0032
24.3433
25.7796
25.0206
26.4967
25.7029
27.1094
26.4288
27.6997
27.1377
28.1764
27.9005
28.6894
28.5944
1.04184
13.1939
2.06757
14.472
3.17085
15.8006
4.35618
16.4012
5.54346
16.6179
6.74321
16.753
7.91623
16.9152
9.10804
17.0783
10.3033
17.2699
11.4613
17.5216
12.6392
17.7672
13.8048
18.0563
14.9503
18.3664
16.1003
18.7335
17.1902
19.1191
18.3357
19.5198
19.4174
20.0016
20.5036
20.4686
21.5024
21.0445
22.5171
21.5646
23.4611
22.2048
24.3424
22.8918
25.1863
23.4994
26.0097
24.1972
26.7145
24.9981
27.3876
25.7557
27.9609
26.5645
28.4927
27.3686
28.2756
28.9065
1.01939
12.1746
2.02807
13.4634
3.1292
14.6995
4.29543
15.235
5.47912
15.4343
6.64354
15.5885
7.83209
15.7267
9.00566
15.9047
10.1567
16.1188
11.3568
16.3216
12.5163
16.6077
13.6762
16.8964
14.8235
17.2191
15.9906
17.5664
17.1303
17.9795
18.2607
18.3894
19.366
18.8963
20.4231
19.4115
21.5086
19.959
22.5015
20.5717
23.4682
21.2381
24.4683
21.8917
25.3245
22.6431
26.115
23.4068
26.9235
24.1895
27.5736
25.1056
28.1935
25.9446
28.686
26.8762
27.8181
29.1434
0.990219
11.1843
1.98134
12.4722
3.06856
13.6123
4.21992
14.0836
5.36816
14.286
6.53527
14.4214
7.68111
14.5808
8.83131
14.7545
10.0232
14.927
11.15
15.1948
12.3155
15.4422
13.5036
15.7083
14.6487
16.074
15.7774
16.4377
16.9717
16.7852
18.0588
17.3023
19.2082
17.7469
20.3087
18.311
21.402
18.8657
22.4462
19.5274
23.4712
20.213
24.4113
20.9517
25.3696
21.6848
26.2141
22.5623
26.9423
23.4613
27.7127
24.3352
28.3172
25.3401
28.8839
26.3095
27.426
29.276
0.955745
10.2286
1.9255
11.5025
2.99675
12.541
4.11444
12.9659
5.24775
13.1527
6.36783
13.3014
7.50118
13.4475
8.65743
13.5982
9.75276
13.8317
10.9272
14.0204
12.1004
14.269
13.194
14.6147
14.3553
14.9127
15.5492
15.2439
16.6453
15.6891
17.8377
16.1099
18.9594
16.6251
20.0735
17.197
21.1969
17.7423
22.2846
18.4397
23.2987
19.199
24.3487
19.9017
25.2538
20.7797
26.1532
21.6629
27.0079
22.6066
27.7067
23.6363
28.3871
24.6596
28.9214
25.7752
26.9446
29.4029
0.91673
9.31186
1.86338
10.5558
2.9082
11.4962
3.99681
11.8773
5.08822
12.0613
6.18675
12.2028
7.2997
12.3345
8.36927
12.5287
9.53278
12.6681
10.6384
12.9148
11.7253
13.182
12.9106
13.4293
14.0624
13.7609
15.1726
14.1336
16.3191
14.5426
17.449
14.98
18.6135
15.4606
19.8165
15.994
20.8631
16.6957
21.9414
17.3615
23.1165
18.0238
24.1101
18.9081
25.1072
19.7826
26.0328
20.7372
26.918
21.7214
27.7292
22.8251
28.3319
24.057
28.9229
25.1841
26.5437
29.3239
0.874577
8.43728
1.79419
9.63621
2.80832
10.4821
3.85856
10.8271
4.91317
11.0067
5.98414
11.1319
7.02416
11.2945
8.14527
11.4075
9.18795
11.6255
10.2781
11.8247
11.4206
12.0395
12.4942
12.3557
13.6548
12.6003
14.7478
13.0406
15.8896
13.4008
17.0823
13.7873
18.1858
14.3571
19.31
14.8698
20.4946
15.5111
21.6641
16.192
22.7199
16.9681
23.8442
17.7837
24.8371
18.7897
25.8259
19.7484
26.7019
20.8454
27.5408
21.9863
28.3156
23.2822
28.8627
24.6371
26.0434
29.363
0.830471
7.60681
1.71864
8.74804
2.69829
9.50244
3.70373
9.82163
4.7295
9.9809
5.73014
10.1312
6.79813
10.2265
7.7931
10.4126
8.85525
10.5633
9.93576
10.7441
10.9778
10.9975
12.1231
11.2105
13.1271
11.5962
14.2823
11.8854
15.4649
12.2182
16.53
12.7222
17.7123
13.1748
18.8213
13.7608
20.0034
14.329
21.1941
15.0012
22.3188
15.8434
23.3629
16.7396
24.5107
17.6419
25.5275
18.7317
26.5058
19.8671
27.3441
21.148
28.0889
22.5374
28.7597
23.9663
25.6039
29.1992
0.785029
6.82178
1.63983
7.89324
2.5764
8.56587
3.5474
8.85063
4.50596
9.02234
5.51757
9.1196
6.46222
9.28189
7.48724
9.38755
8.50836
9.54221
9.5122
9.7403
10.5679
9.94174
11.5563
10.2221
12.7067
10.4458
13.8083
10.7839
14.8403
11.1861
15.9703
11.5922
17.1125
12.0326
18.3059
12.5675
19.4481
13.1868
20.5785
13.8708
21.7783
14.6436
22.9649
15.553
24.0532
16.5536
25.1507
17.6342
26.1132
18.9045
27.0642
20.197
27.9061
21.6955
28.5254
23.347
25.0197
29.1095
0.739848
6.08193
1.55552
7.07757
2.453
7.6684
3.36562
7.93801
4.31531
8.07265
5.21541
8.2195
6.20137
8.29592
7.1485
8.44042
8.09891
8.5918
9.08011
8.7591
10.0755
8.94635
11.1617
9.13593
12.1153
9.4922
13.1835
9.71568
14.2727
10.0969
15.3971
10.4678
16.501
10.9288
17.6239
11.4446
18.8169
11.9937
19.9889
12.6988
21.1695
13.463
22.3342
14.3884
23.552
15.3357
24.6295
16.5566
25.7794
17.7546
26.6663
19.3101
27.5765
20.7853
28.3151
22.6084
24.4858
28.849
0.694814
5.38712
1.47257
6.29981
2.31985
6.82111
3.20226
7.05561
4.06359
7.21132
4.99447
7.28862
5.86121
7.42918
6.7739
7.52773
7.71056
7.65514
8.66592
7.80373
9.62838
7.98389
10.5207
8.2436
11.6389
8.37406
12.5944
8.76011
13.6472
9.04408
14.7275
9.38755
15.8294
9.82682
16.9678
10.3063
18.0833
10.8782
19.245
11.5371
20.4653
12.2427
21.7151
13.1385
22.9101
14.1408
24.1278
15.339
25.2025
16.6799
26.3419
18.1708
27.211
19.9162
27.9944
21.8249
23.9064
28.5739
0.650935
4.73618
1.38643
5.56432
2.19245
6.01509
3.00972
6.23834
3.86962
6.35141
4.67884
6.4794
5.56775
6.54028
6.43595
6.65953
7.30409
6.787
8.19358
6.91425
9.09325
7.08422
10.1029
7.23392
10.9476
7.52942
12.0225
7.68518
13.0235
8.04309
14.006
8.40503
15.1036
8.7292
16.1876
9.2223
17.3669
9.69885
18.5123
10.3918
19.7268
11.0282
20.9538
11.9115
22.2294
12.8652
23.4295
14.1388
24.6629
15.4465
25.7375
17.0962
26.836
18.8177
27.6685
20.9924
23.2818
28.293
0.606132
4.13005
1.30364
4.86681
2.05758
5.26115
2.84476
5.45117
3.61538
5.58078
4.45028
5.64451
5.22915
5.76141
6.05782
5.83086
6.9056
5.93922
7.75136
6.06849
8.6358
6.19977
9.46809
6.40163
10.4815
6.516
11.303
6.86373
12.3325
7.01352
13.3585
7.37911
14.3644
7.72327
15.4247
8.16203
16.5186
8.6049
17.7139
9.19653
18.9101
9.832
20.168
10.6536
21.4121
11.6212
22.7437
12.8072
23.9856
14.2046
25.246
15.8358
26.2761
17.7876
27.2964
19.9721
22.6442
27.934
0.563154
3.5669
1.2199
4.21006
1.9319
4.54915
2.65782
4.72525
3.41894
4.81966
4.14567
4.91777
4.94105
4.96602
5.70495
5.06696
6.48996
5.15421
7.30757
5.25088
8.10923
5.39812
9.00189
5.50897
9.78623
5.73166
10.7767
5.87322
11.6396
6.15064
12.6015
6.41719
13.6053
6.71949
14.6718
7.09553
15.7367
7.54004
16.8525
8.08069
18.0306
8.65388
19.2602
9.42398
20.5551
10.3263
21.9061
11.4562
23.2693
12.8414
24.5642
14.5409
25.8106
16.5412
26.801
18.9816
21.8016
27.6437
0.524293
3.0426
1.14031
3.59404
1.80398
3.88548
2.4943
4.03493
3.18524
4.12872
3.9109
4.19212
4.61019
4.26673
5.35985
4.31729
6.0937
4.42036
6.85812
4.48647
7.64128
4.61496
8.42516
4.72508
9.27321
4.88362
10.0693
5.07712
11.01
5.20994
11.908
5.51916
12.8273
5.80019
13.8279
6.09494
14.8759
6.49211
16.0039
6.95265
17.1182
7.53963
18.3666
8.17554
19.633
9.05983
21.0336
10.0556
22.4488
11.4263
23.8665
13.1232
25.1861
15.2215
26.3926
17.7751
20.9606
27.2336
0.48804
2.55456
1.06277
3.01932
1.68443
3.26382
2.32392
3.39544
2.98721
3.46543
3.63627
3.54306
4.34013
3.56286
4.98641
3.67101
5.72829
3.67848
6.41665
3.79811
7.14439
3.88722
7.92643
3.94304
8.66975
4.1403
9.50466
4.2422
10.2864
4.42824
11.1728
4.63267
12.1041
4.86891
13.0301
5.16894
14.0368
5.48542
15.0777
5.91175
16.2167
6.4006
17.3907
7.00159
18.6941
7.75641
20.0446
8.70513
21.575
9.89588
23.0836
11.6145
24.5597
13.7454
25.8797
16.4552
19.8823
26.958
0.453703
2.10086
0.989026
2.48399
1.56849
2.68435
2.16472
2.79921
2.78841
2.84175
3.38936
2.9421
4.05841
2.89382
4.66554
3.06388
5.35165
2.99237
5.99086
3.1589
6.73084
3.14724
7.36741
3.30647
8.13504
3.37268
8.87717
3.50007
9.68931
3.6161
10.438
3.88403
11.3557
3.95121
12.2178
4.30681
13.2206
4.48255
14.1758
4.95656
15.2999
5.27659
16.4156
5.88587
17.7199
6.4521
19.0316
7.39347
20.5488
8.37863
22.1333
10.03
23.8547
12.0241
25.3546
14.9552
18.6047
26.6322
0.421239
1.67962
0.919036
1.9862
1.45771
2.14568
2.01469
2.24224
2.59356
2.26287
3.15655
2.37912
3.79183
2.25854
4.32222
2.5335
5.02244
2.29214
5.56575
2.61559
6.2689
2.4441
6.89059
2.68478
7.61173
2.65154
8.27089
2.84091
9.0397
2.84729
9.78183
3.1419
10.6268
3.10628
11.4406
3.49292
12.3725
3.55069
13.2888
4.04031
14.3621
4.20321
15.4357
4.8123
16.7156
5.17218
17.987
6.1221
19.5619
6.80373
21.091
8.50094
23.124
9.99107
24.7685
13.3107
16.9456
26.4277
0.39061
1.28901
0.852497
1.52431
1.35321
1.64496
1.86821
1.72724
2.4144
1.71668
2.92595
1.86757
3.52922
1.65526
4.01848
2.04424
4.67706
1.63356
5.1637
2.12894
5.85556
1.75224
6.3908
2.14953
7.0965
1.94584
7.7031
2.23431
8.4316
2.11878
9.10257
2.47093
9.90888
2.29997
10.6459
2.7559
11.5421
2.65451
12.3999
3.18252
13.4609
3.14217
14.4316
3.8416
15.7139
3.88994
16.9022
4.93374
18.495
5.21095
20.0921
6.90382
22.1844
7.89883
24.1884
11.3066
14.8918
26.2421
0.361699
0.927311
0.79035
1.09566
1.25283
1.18249
1.73693
1.24314
2.22726
1.22634
2.72904
1.36579
3.25538
1.12893
3.74913
1.55049
4.31128
1.07141
4.81131
1.62891
5.4262
1.13736
5.95126
1.62447
6.58814
1.30896
7.15886
1.66359
7.8216
1.45604
8.50309
1.78945
9.18904
1.61401
9.97134
1.9736
10.7436
1.88226
11.6579
2.26819
12.5594
2.24064
13.6383
2.76271
14.7221
2.80616
16.0753
3.58057
17.4707
3.81558
19.3072
5.06725
21.2657
5.94033
23.9166
8.65576
12.1913
26.6171
0.334586
0.592725
0.730897
0.699346
1.1581
0.755283
1.60796
0.793284
2.05398
0.780321
2.54474
0.875034
2.97577
0.697896
3.52536
1.0009
3.94657
0.650195
4.53638
1.03911
4.96584
0.707894
5.56981
1.0205
6.06818
0.810591
6.69766
1.03411
7.22806
0.925642
7.91857
1.09894
8.49522
1.03736
9.24443
1.22438
9.91832
1.20837
10.764
1.42251
11.5672
1.43742
12.5812
1.74876
13.5852
1.80213
14.8796
2.28623
16.2349
2.46022
18.0316
3.27058
20.0932
3.87871
23.2997
5.44925
8.5556
26.9354
0.309325
0.2834
0.677122
0.331549
1.07423
0.358176
1.49025
0.377262
1.89595
0.374626
2.36773
0.403253
2.74032
0.325304
3.26754
0.473672
3.61486
0.302874
4.17129
0.482684
4.54697
0.332213
5.0877
0.479768
5.52555
0.372745
6.06509
0.494571
6.55571
0.435018
7.1316
0.523054
7.6815
0.487464
8.32095
0.584938
8.96039
0.568923
9.70156
0.68134
10.4624
0.676561
11.3701
0.841085
12.3258
0.846385
13.5064
1.1057
14.8122
1.15437
16.4903
1.59251
18.5046
1.86442
21.8127
2.14113
4.63748
25.7308
0.2834
0.614949
0.973124
1.35039
1.72501
2.12827
2.45357
2.92724
3.23012
3.7128
4.04501
4.52478
4.89753
5.3921
5.82712
6.35017
6.83763
7.42257
7.9915
8.67284
9.3494
10.1905
11.0369
12.1426
13.2969
14.8894
16.7539
18.895
23.5325
1.28608
54.1144
1.31047
54.1158
1.33381
54.1169
1.35615
54.1179
1.37755
54.1188
1.39805
54.1197
1.41768
54.1206
1.43647
54.1214
1.45446
54.1222
1.47166
54.123
1.4881
54.1238
1.50381
54.1245
1.51881
54.1252
1.53311
54.1259
1.54672
54.1266
1.55967
54.1273
1.57196
54.1279
1.5836
54.1286
1.59461
54.1292
1.60499
54.1299
1.61475
54.1305
1.6239
54.1311
1.63243
54.1317
1.64037
54.1323
1.64771
54.1329
1.65445
54.1335
1.6606
54.1341
1.66617
54.1347
1.67114
54.1353
1.67554
54.1358
1.67936
54.1364
1.68261
54.137
1.68528
54.1376
1.68738
54.1381
1.68891
54.1387
1.68987
54.1393
1.69028
54.1398
1.69012
54.1404
1.68941
54.141
1.68813
54.1415
1.6863
54.1421
1.68392
54.1426
1.68099
54.1432
1.6775
54.1437
1.67347
54.1443
1.6689
54.1448
1.66379
54.1453
1.65813
54.1459
1.65195
54.1464
1.64524
54.1469
1.638
54.1475
1.63023
54.148
1.62195
54.1485
1.61315
54.149
1.60384
54.1495
1.59404
54.15
1.58373
54.1505
1.57293
54.151
1.56164
54.1515
1.54988
54.152
1.53765
54.1525
1.52496
54.1529
1.5118
54.1534
1.49819
54.1538
1.48413
54.1543
1.46963
54.1547
1.4547
54.1552
1.43934
54.1556
1.42355
54.156
1.40735
54.1564
1.39074
54.1568
1.37373
54.1572
1.35632
54.1576
1.33853
54.158
1.32036
54.1584
1.3018
54.1588
1.28289
54.1591
1.26362
54.1595
1.24399
54.1599
1.22401
54.1602
1.20371
54.1605
1.18307
54.1609
1.16211
54.1612
1.14084
54.1615
1.11926
54.1618
1.09739
54.1621
1.07522
54.1624
1.05276
54.1627
1.03002
54.163
1.00702
54.1632
0.983752
54.1635
0.960231
54.1638
0.936467
54.164
0.912464
54.1642
0.888236
54.1645
0.863785
54.1647
0.839124
54.1649
0.814258
54.1651
0.789198
54.1653
0.76395
54.1655
0.738517
54.1657
0.712913
54.1658
0.687135
54.166
0.661209
54.1662
0.635135
54.1663
0.608929
54.1664
0.582598
54.1666
0.556158
54.1667
0.529617
54.1668
0.502996
54.1669
0.476308
54.1669
0.44958
54.167
0.422836
54.167
0.396121
54.167
0.369488
54.1669
0.343022
54.1667
0.316861
54.1664
0.291716
54.1654
0.267628
54.1643
0.244308
54.1636
0.221472
54.1631
0.198825
54.1629
0.175894
54.1632
0.15176
54.1644
0.126426
54.1656