/*--------------------------------*- C++ -*----------------------------------*\
| =========                 |                                                 |
| \\      /  F ield         | OpenFOAM: The Open Source CFD Toolbox           |
|  \\    /   O peration     | Version:  5.x                                   |
|   \\  /    A nd           | Web:      www.OpenFOAM.org                      |
|    \\/     M anipulation  |                                                 |
\*---------------------------------------------------------------------------*/
/*   Windows 32 and 64 bit porting by blueCAPE: http://www.bluecape.com.pt   *\
|  Based on Windows porting (2.0.x v4) by Symscape: http://www.symscape.com   |
\*---------------------------------------------------------------------------*/
FoamFile
{
    version     2.0;
    format      ascii;
    class       volVectorField;
    location    "60";
    object      U;
}
// * * * * * * * * * * * * * * * * * * * * * * * * * * * * * * * * * * * * * //

dimensions      [0 1 -1 0 0 0 0];

internalField   nonuniform List<vector> 
43900
(
(1.16078 -0.000620116 -2.27596e-027)
(1.16834 0.00187015 -6.09538e-027)
(1.16876 0.000127811 1.52218e-030)
(1.16896 0.00158307 2.76838e-030)
(1.16882 0.000804673 2.61688e-030)
(1.16889 0.00138891 3.72907e-030)
(1.16883 0.00131473 8.13503e-027)
(1.16885 0.00141653 -1.62573e-026)
(1.16884 0.00152677 7.75141e-030)
(1.16884 0.00161 -1.62342e-026)
(1.16884 0.0016942 1.62507e-026)
(1.16884 0.00177607 8.78934e-030)
(1.16884 0.00185483 -1.62068e-026)
(1.16885 0.00193083 1.87891e-029)
(1.16885 0.002004 1.93454e-029)
(1.16885 0.00207461 1.98731e-029)
(1.16886 0.00214257 -3.23331e-026)
(1.16886 0.00220818 4.17058e-029)
(1.16887 0.00227129 3.23539e-026)
(1.16887 0.0023322 2.17466e-029)
(1.16888 0.00239089 2.21658e-029)
(1.16888 0.00244756 2.25693e-029)
(1.16889 0.00250219 2.29571e-029)
(1.1689 0.00255518 2.33306e-029)
(1.1689 0.00260591 2.36923e-029)
(1.16891 0.00265519 -3.21267e-026)
(1.16891 0.0027028 4.87622e-029)
(1.16892 0.00274858 4.9417e-029)
(1.16892 0.00279358 1.28355e-025)
(1.15756 0.0051269 0)
(1.1646 -0.00058718 0)
(1.16664 0.00425929 0)
(1.16476 0.0016469 0)
(1.16608 0.00340175 0)
(1.16565 0.00315445 0)
(1.16597 0.00327136 0)
(1.16591 0.00367609 0)
(1.16603 0.00381286 0)
(1.16612 0.00399696 0)
(1.16619 0.00417065 0)
(1.16626 0.00432942 0)
(1.16632 0.00447911 0)
(1.16638 0.00462052 0)
(1.16643 0.00475485 0)
(1.16647 0.00488284 0)
(1.16652 0.0050051 0)
(1.16656 0.00512247 0)
(1.16659 0.00523528 0)
(1.16663 0.00534439 0)
(1.16666 0.00544923 0)
(1.16669 0.00555217 0)
(1.16671 0.0056508 0)
(1.16674 0.00574692 0)
(1.16676 0.00584107 0)
(1.16678 0.00593283 0)
(1.1668 0.00602247 0)
(1.16682 0.00610991 0)
(1.16684 0.0061946 0)
(1.12009 0.0229375 0)
(1.15786 -0.0109282 0)
(1.16851 0.0191475 0)
(1.16481 -0.00190091 0)
(1.16702 0.0125185 0)
(1.16573 0.00351531 0)
(1.16677 0.00869877 0)
(1.16665 0.00643514 0)
(1.16689 0.00725111 0)
(1.16704 0.00734713 0)
(1.16718 0.00743299 0)
(1.16731 0.00756667 0)
(1.16743 0.00770594 0)
(1.16754 0.00784721 0)
(1.16765 0.00799167 0)
(1.16774 0.00813786 0)
(1.16784 0.0082859 0)
(1.16792 0.0084347 0)
(1.16801 0.00858455 0)
(1.16808 0.00873487 0)
(1.16816 0.00888596 0)
(1.16823 0.00903545 0)
(1.1683 0.00918588 0)
(1.16837 0.00933506 0)
(1.16843 0.00948468 0)
(1.16849 0.00963314 0)
(1.16855 0.00978104 0)
(1.16861 0.00992878 0)
(1.16866 0.0100751 2.23916e-027)
(1.05648 0.0237939 0)
(1.11659 -0.0108792 0)
(1.15682 0.0231663 0)
(1.16559 0.00135738 0)
(1.16523 0.0177142 0)
(1.16591 0.00616821 0)
(1.1656 0.0136271 0)
(1.16594 0.00935945 0)
(1.16607 0.0113576 0)
(1.16617 0.0107898 0)
(1.16629 0.010899 0)
(1.16639 0.0109762 0)
(1.16647 0.0110572 0)
(1.16655 0.0111545 0)
(1.16663 0.0112656 0)
(1.1667 0.0113893 0)
(1.16677 0.0115241 0)
(1.16683 0.0116695 0)
(1.16689 0.0118238 0)
(1.16696 0.0119858 0)
(1.16702 0.0121557 0)
(1.16709 0.0123313 0)
(1.16715 0.0125126 0)
(1.16721 0.0126983 0)
(1.16727 0.0128874 0)
(1.16734 0.0130789 0)
(1.1674 0.0132722 0)
(1.16746 0.0134676 0)
(1.16753 0.0136615 2.38418e-027)
(1.02121 0.0103169 4.9196e-027)
(1.068 -0.00308725 0)
(1.11911 0.0119841 0)
(1.15791 0.00609386 0)
(1.16402 0.0144114 0)
(1.16431 0.00699327 0)
(1.16397 0.0127505 0)
(1.16388 0.00928532 0)
(1.16365 0.0113514 0)
(1.16351 0.0108101 0)
(1.16333 0.011089 0)
(1.16318 0.011269 0)
(1.16305 0.0114435 0)
(1.16294 0.0116275 0)
(1.16285 0.0118169 0)
(1.16277 0.0120126 0)
(1.1627 0.012213 0)
(1.16264 0.0124189 0)
(1.16259 0.0126294 0)
(1.16255 0.0128441 0)
(1.16252 0.0130637 0)
(1.1625 0.0132853 0)
(1.16249 0.0135129 0)
(1.16248 0.013744 0)
(1.16247 0.0139779 0)
(1.16248 0.0142143 0)
(1.16249 0.014449 0)
(1.1625 0.0146864 0)
(1.16253 0.0149317 -1.0048e-026)
(1.00398 0.00384933 -5.16518e-027)
(1.04568 -0.000517853 0)
(1.09142 0.00469579 0)
(1.13886 0.00472079 0)
(1.15866 0.00831613 0)
(1.16043 0.00550444 0)
(1.15992 0.00880066 0)
(1.15966 0.00729236 0)
(1.15938 0.00879364 0)
(1.15913 0.00887515 0)
(1.15895 0.00939732 0)
(1.15879 0.00984608 0)
(1.15864 0.0102901 0)
(1.15851 0.0107297 0)
(1.15839 0.0111635 0)
(1.15829 0.0115925 0)
(1.1582 0.0120163 0)
(1.15812 0.0124353 0)
(1.15806 0.0128499 0)
(1.15801 0.0132595 0)
(1.15797 0.0136659 0)
(1.15793 0.0140661 0)
(1.1579 0.0144655 0)
(1.15789 0.0148596 0)
(1.15789 0.0152506 0)
(1.1579 0.0156406 0)
(1.15792 0.0160288 0)
(1.15794 0.0164106 0)
(1.15798 0.0167919 5.32723e-027)
(0.996998 0.00160108 0)
(1.03637 0.00045904 0)
(1.07981 0.00242802 0)
(1.12609 0.00322198 0)
(1.15339 0.00509929 0)
(1.15665 0.00459084 0)
(1.15632 0.00633381 0)
(1.15625 0.00629516 0)
(1.15608 0.00729882 0)
(1.15596 0.00784171 0)
(1.15585 0.00850681 0)
(1.15575 0.0091417 0)
(1.15567 0.00977018 0)
(1.1556 0.0103908 0)
(1.15554 0.0110036 0)
(1.15549 0.0116087 0)
(1.15546 0.0122061 0)
(1.15544 0.0127956 0)
(1.15543 0.0133779 0)
(1.15543 0.013952 0)
(1.15545 0.0145191 0)
(1.15546 0.0150776 0)
(1.15549 0.015631 0)
(1.15554 0.0161751 0)
(1.1556 0.016711 0)
(1.15566 0.0172387 0)
(1.15574 0.017761 0)
(1.15582 0.0182734 0)
(1.15591 0.0187778 0)
(0.989535 0.000853381 0)
(1.0281 0.00109812 0)
(1.07086 0.00225992 0)
(1.11671 0.00322046 0)
(1.1466 0.00448072 0)
(1.15064 0.00477772 0)
(1.15059 0.00583024 0)
(1.1506 0.00632649 0)
(1.15058 0.00713562 0)
(1.15058 0.0078112 0)
(1.15059 0.00851851 0)
(1.15061 0.00921317 0)
(1.15064 0.00990275 0)
(1.15068 0.0105862 0)
(1.15073 0.0112637 0)
(1.15079 0.0119345 0)
(1.15085 0.0125991 0)
(1.15093 0.0132567 0)
(1.15102 0.0139076 0)
(1.15111 0.0145515 0)
(1.15122 0.0151877 0)
(1.15131 0.0158171 0)
(1.15142 0.0164395 0)
(1.15156 0.0170538 0)
(1.1517 0.0176602 0)
(1.15185 0.0182577 0)
(1.152 0.0188478 0)
(1.15216 0.0194301 0)
(1.15233 0.0200038 0)
(0.981652 0.000514731 0)
(1.01966 0.00120817 0)
(1.06197 0.00215451 0)
(1.10751 0.00306024 0)
(1.13792 0.00412361 0)
(1.14209 0.0047948 0)
(1.14214 0.00568174 0)
(1.14217 0.00642137 0)
(1.1422 0.00724742 0)
(1.14225 0.00803297 0)
(1.14231 0.00882169 0)
(1.14238 0.0096017 0)
(1.14246 0.0103752 0)
(1.14256 0.0111417 0)
(1.14267 0.0119015 0)
(1.14279 0.012654 0)
(1.14292 0.0133994 0)
(1.14306 0.0141374 0)
(1.14322 0.0148679 0)
(1.14338 0.0155909 0)
(1.14357 0.016306 0)
(1.14373 0.017013 0)
(1.14392 0.0177111 0)
(1.14413 0.0184011 0)
(1.14435 0.0190827 0)
(1.14458 0.0197556 0)
(1.14483 0.0204192 0)
(1.14508 0.0210746 0)
(1.14534 0.0217199 0)
(0.975016 0.000183237 0)
(1.01282 0.00127751 0)
(1.0549 0.00207674 0)
(1.10014 0.00287108 0)
(1.13024 0.00389286 0)
(1.13435 0.00478696 0)
(1.13444 0.00571598 0)
(1.13451 0.0066268 0)
(1.13459 0.00755881 0)
(1.13468 0.00847445 0)
(1.13478 0.00938475 0)
(1.1349 0.0102866 0)
(1.13503 0.0111804 0)
(1.13518 0.012066 0)
(1.13534 0.0129433 0)
(1.13551 0.0138119 0)
(1.1357 0.0146718 0)
(1.13591 0.0155227 0)
(1.13612 0.0163645 0)
(1.13635 0.017197 0)
(1.1366 0.0180204 0)
(1.13684 0.0188333 0)
(1.1371 0.0196352 0)
(1.13739 0.0204273 0)
(1.13768 0.0212088 0)
(1.13799 0.0219801 0)
(1.13831 0.0227401 0)
(1.13864 0.0234898 0)
(1.13899 0.0242267 -1.38389e-026)
(0.968488 0.000165445 0)
(1.00618 0.00147062 0)
(1.04822 0.00233085 0)
(1.09347 0.00319396 0)
(1.12305 0.00429418 0)
(1.12701 0.00532252 0)
(1.12716 0.00633785 0)
(1.12728 0.00737867 0)
(1.12741 0.00842586 0)
(1.12756 0.009465 0)
(1.12773 0.0104983 0)
(1.12791 0.0115246 0)
(1.12811 0.0125434 0)
(1.12832 0.0135542 0)
(1.12855 0.0145565 0)
(1.1288 0.0155499 0)
(1.12906 0.0165339 0)
(1.12934 0.0175081 0)
(1.12964 0.0184721 0)
(1.12995 0.0194253 0)
(1.13027 0.020368 0)
(1.13061 0.0212987 0)
(1.13096 0.0222169 0)
(1.13133 0.0231231 0)
(1.13172 0.0240168 0)
(1.13212 0.0248979 0)
(1.13253 0.0257657 0)
(1.13296 0.0266209 0)
(1.13341 0.0274613 1.46175e-026)
(0.961104 0.000203483 0)
(0.998708 0.00172966 0)
(1.04072 0.00274549 0)
(1.086 0.0037611 0)
(1.11501 0.00501736 0)
(1.11878 0.00618692 0)
(1.11896 0.00732854 0)
(1.11912 0.00851258 0)
(1.1193 0.00969942 0)
(1.1195 0.0108801 0)
(1.11972 0.0120547 0)
(1.11996 0.0132223 0)
(1.12022 0.0143822 0)
(1.1205 0.0155335 0)
(1.12081 0.0166758 0)
(1.12113 0.0178083 0)
(1.12147 0.0189303 0)
(1.12184 0.0200412 0)
(1.12222 0.0211405 0)
(1.12262 0.0222274 0)
(1.12304 0.0233017 0)
(1.12348 0.0243624 0)
(1.12393 0.0254088 0)
(1.12441 0.0264409 0)
(1.1249 0.0274581 0)
(1.12541 0.0284602 0)
(1.12594 0.0294463 0)
(1.12648 0.0304168 0)
(1.12704 0.0313709 1.58916e-026)
(0.952885 0.000239069 0)
(0.990395 0.00200353 0)
(1.03238 0.00318045 0)
(1.07767 0.00436152 0)
(1.10603 0.00580966 0)
(1.1096 0.00715367 0)
(1.10981 0.00846523 0)
(1.11 0.00982696 0)
(1.11022 0.0111893 0)
(1.11047 0.0125442 0)
(1.11074 0.0138915 0)
(1.11104 0.01523 0)
(1.11136 0.016559 0)
(1.11171 0.0178776 0)
(1.11209 0.0191852 0)
(1.11249 0.0204808 0)
(1.11292 0.0217637 0)
(1.11337 0.0230332 0)
(1.11385 0.0242886 0)
(1.11435 0.0255289 0)
(1.11488 0.0267539 0)
(1.11542 0.0279625 0)
(1.11599 0.0291541 0)
(1.11658 0.0303283 0)
(1.11719 0.0314843 0)
(1.11783 0.0326218 0)
(1.11848 0.0337401 0)
(1.11915 0.0348388 0)
(1.11985 0.0359182 -1.6792e-026)
(0.94394 0.000279964 0)
(0.981352 0.0023076 0)
(1.02331 0.00366159 0)
(1.06862 0.00502713 0)
(1.09629 0.00669726 0)
(1.09967 0.00824351 0)
(1.09992 0.00975716 0)
(1.10015 0.0113268 0)
(1.10042 0.0128954 0)
(1.10072 0.0144546 0)
(1.10105 0.016004 0)
(1.10142 0.0175423 0)
(1.10182 0.0190687 0)
(1.10225 0.0205821 0)
(1.10271 0.0220816 0)
(1.10321 0.0235661 0)
(1.10373 0.025035 0)
(1.10429 0.026487 0)
(1.10487 0.0279216 0)
(1.10549 0.0293376 0)
(1.10613 0.0307346 0)
(1.1068 0.0321113 0)
(1.1075 0.0334673 0)
(1.10822 0.0348017 0)
(1.10897 0.036114 0)
(1.10975 0.0374033 0)
(1.11054 0.038669 0)
(1.11137 0.0399105 0)
(1.11221 0.0411284 -1.83701e-026)
(0.934185 0.000330027 0)
(0.971494 0.00266418 0)
(1.01344 0.00422711 0)
(1.05876 0.0058104 0)
(1.0857 0.00773754 0)
(1.08892 0.00951379 0)
(1.0892 0.0112596 0)
(1.08949 0.0130673 0)
(1.08982 0.0148723 0)
(1.09018 0.0166658 0)
(1.09059 0.018447 0)
(1.09104 0.0202144 0)
(1.09153 0.0219669 0)
(1.09206 0.0237032 0)
(1.09262 0.0254222 0)
(1.09323 0.0271226 0)
(1.09387 0.0288034 0)
(1.09455 0.0304634 0)
(1.09526 0.0321017 0)
(1.09601 0.033717 0)
(1.09679 0.0353085 0)
(1.09761 0.0368752 0)
(1.09846 0.0384162 0)
(1.09934 0.0399305 0)
(1.10025 0.0414174 0)
(1.10119 0.042876 0)
(1.10216 0.0443056 0)
(1.10315 0.0457051 0)
(1.10418 0.0470759 1.94187e-026)
(0.923512 0.000388225 0)
(0.960711 0.00307883 0)
(1.00264 0.00488412 0)
(1.04798 0.00672195 0)
(1.07414 0.00894518 0)
(1.0772 0.0109846 0)
(1.07754 0.0129978 0)
(1.07788 0.0150788 0)
(1.07828 0.0171551 0)
(1.07873 0.019217 0)
(1.07923 0.0212636 0)
(1.07977 0.023293 0)
(1.08037 0.0253038 0)
(1.08101 0.0272945 0)
(1.0817 0.0292637 0)
(1.08243 0.0312098 0)
(1.08321 0.0331314 0)
(1.08403 0.0350273 0)
(1.0849 0.0368961 0)
(1.0858 0.0387365 0)
(1.08675 0.0405473 0)
(1.08774 0.0423275 0)
(1.08876 0.0440757 0)
(1.08982 0.0457911 0)
(1.09092 0.0474725 0)
(1.09206 0.0491191 0)
(1.09322 0.0507299 0)
(1.09442 0.0523034 0)
(1.09565 0.0538421 0)
(0.911843 0.000454715 0)
(0.948923 0.0035548 0)
(0.990853 0.00563636 0)
(1.03619 0.00776799 0)
(1.06152 0.0103298 0)
(1.06443 0.0126703 0)
(1.06483 0.014991 0)
(1.06525 0.0173853 0)
(1.06574 0.019772 0)
(1.06628 0.022141 0)
(1.06688 0.0244907 0)
(1.06754 0.0268191 0)
(1.06826 0.0291243 0)
(1.06903 0.0314045 0)
(1.06986 0.0336579 0)
(1.07075 0.0358826 0)
(1.07169 0.038077 0)
(1.07268 0.0402394 0)
(1.07372 0.0423682 0)
(1.07481 0.0444619 0)
(1.07595 0.046519 0)
(1.07714 0.048538 0)
(1.07837 0.0505178 0)
(1.07965 0.052457 0)
(1.08096 0.0543543 0)
(1.08232 0.0562088 0)
(1.08372 0.0580194 0)
(1.08516 0.0597839 0)
(1.08663 0.0615064 0)
(0.89911 0.000530566 0)
(0.936064 0.00409838 0)
(0.977999 0.00649315 0)
(1.02333 0.00896244 0)
(1.04778 0.0119091 0)
(1.05056 0.0145919 0)
(1.05103 0.0172643 0)
(1.05154 0.0200157 0)
(1.05212 0.0227561 0)
(1.05277 0.0254744 0)
(1.05349 0.0281686 0)
(1.05429 0.0308365 0)
(1.05515 0.0334756 0)
(1.05608 0.0360836 0)
(1.05708 0.0386584 0)
(1.05814 0.0411976 0)
(1.05927 0.0436993 0)
(1.06045 0.0461613 0)
(1.0617 0.0485819 0)
(1.06301 0.0509591 0)
(1.06438 0.0532909 0)
(1.0658 0.055576 0)
(1.06727 0.0578126 0)
(1.06879 0.0599989 0)
(1.07037 0.0621345 0)
(1.07199 0.0642165 0)
(1.07365 0.066245 0)
(1.07536 0.0682173 0)
(1.07711 0.0701372 0)
(0.885243 0.000616746 5.65451e-026)
(0.922064 0.00471686 0)
(0.964019 0.00746514 0)
(1.00931 0.0103214 0)
(1.03284 0.0137029 0)
(1.0355 0.0167733 0)
(1.03606 0.0198459 0)
(1.03667 0.0230024 0)
(1.03736 0.0261434 0)
(1.03814 0.029257 0)
(1.03901 0.0323409 0)
(1.03996 0.0353922 0)
(1.04099 0.038408 0)
(1.0421 0.0413855 0)
(1.0433 0.0443218 0)
(1.04457 0.0472145 0)
(1.04591 0.0500606 0)
(1.04733 0.0528582 0)
(1.04882 0.0556046 0)
(1.05038 0.0582972 0)
(1.05201 0.0609354 0)
(1.0537 0.0635147 0)
(1.05545 0.0660352 0)
(1.05726 0.0684957 0)
(1.05913 0.0708904 0)
(1.06106 0.0732239 0)
(1.06303 0.0754911 0)
(1.06506 0.0776865 0)
(1.06713 0.0798252 0)
(0.870176 0.000713834 1.89793e-027)
(0.906858 0.00541735 0)
(0.948849 0.00856222 0)
(0.994084 0.0118602 0)
(1.01664 0.0157301 0)
(1.0192 0.0192374 0)
(1.01986 0.0227634 0)
(1.02058 0.0263771 0)
(1.02141 0.0299698 0)
(1.02234 0.0335288 0)
(1.02337 0.0370514 0)
(1.0245 0.0405338 0)
(1.02573 0.0439727 0)
(1.02706 0.0473643 0)
(1.02848 0.0507059 0)
(1.02999 0.0539929 0)
(1.03159 0.0572243 0)
(1.03327 0.0603949 0)
(1.03505 0.0635026 0)
(1.03689 0.0665475 0)
(1.03882 0.0695199 0)
(1.04083 0.0724262 0)
(1.0429 0.0752597 0)
(1.04505 0.0780118 0)
(1.04726 0.0806989 0)
(1.04952 0.0832975 0)
(1.05187 0.0858163 0)
(1.05425 0.088262 0)
(1.05669 0.0906161 0)
(0.85385 0.000822021 -6.54227e-026)
(0.890388 0.0062067 0)
(0.932438 0.00979323 0)
(0.977573 0.013593 0)
(0.9991 0.0180083 0)
(1.00159 0.0220061 0)
(1.00237 0.026043 0)
(1.00323 0.0301705 0)
(1.00421 0.0342701 0)
(1.00531 0.0383284 0)
(1.00653 0.0423425 0)
(1.00788 0.0463074 0)
(1.00933 0.050219 0)
(1.0109 0.0540739 0)
(1.01258 0.0578652 0)
(1.01437 0.0615946 0)
(1.01626 0.0652502 0)
(1.01826 0.068836 0)
(1.02034 0.0723478 0)
(1.02254 0.0757699 0)
(1.02482 0.0791247 0)
(1.02716 0.0823833 0)
(1.02965 0.0855475 0)
(1.03215 0.0886494 0)
(1.03474 0.0916202 0)
(1.03747 0.0945186 0)
(1.04015 0.0973364 0)
(1.04298 0.100002 0)
(1.04587 0.102634 0)
(0.836216 0.00094123 0)
(0.872604 0.00709143 0)
(0.914741 0.0111659 0)
(0.959721 0.0155332 0)
(0.98018 0.0205531 0)
(0.982624 0.0250994 0)
(0.983533 0.0297095 0)
(0.984546 0.0344113 0)
(0.985704 0.0390765 0)
(0.987007 0.0436928 0)
(0.988449 0.048254 0)
(0.990032 0.0527571 0)
(0.991748 0.0571953 0)
(0.993601 0.0615617 0)
(0.995582 0.0658602 0)
(0.997679 0.0700674 0)
(0.999931 0.0742046 0)
(1.00224 0.0782467 0)
(1.00474 0.0821851 0)
(1.0073 0.0860611 0)
(1.00993 0.0897954 0)
(1.01281 0.0934431 0)
(1.01557 0.0970249 0)
(1.01858 0.100402 0)
(1.02171 0.103767 0)
(1.02466 0.106988 0)
(1.02803 0.110012 0)
(1.03129 0.113068 0)
(1.03449 0.115885 0)
(0.817233 0.00107081 -8.09767e-026)
(0.853469 0.00807748 0)
(0.895728 0.0126864 0)
(0.940481 0.0176922 0)
(0.959835 0.0233782 0)
(0.962257 0.0285351 0)
(0.963317 0.033785 0)
(0.964506 0.0391246 0)
(0.965865 0.0444199 0)
(0.967391 0.0496527 0)
(0.969088 0.0548249 0)
(0.970938 0.0599212 0)
(0.972961 0.064942 0)
(0.975124 0.069885 0)
(0.977441 0.0747182 0)
(0.979945 0.0794904 0)
(0.982472 0.0841258 0)
(0.985349 0.0886652 0)
(0.988109 0.0931358 0)
(0.991138 0.0973998 0)
(0.994429 0.101626 0)
(0.99736 0.105744 0)
(1.00101 0.109569 0)
(1.00443 0.113519 0)
(1.00767 0.117151 0)
(1.01184 0.120593 0)
(1.01523 0.124209 0)
(1.01896 0.127272 0)
(1.02332 0.130454 7.31841e-026)
(0.796878 0.00120941 -2.88893e-027)
(0.832959 0.00916984 0)
(0.875383 0.0143582 0)
(0.919812 0.0200786 0)
(0.938031 0.0264929 0)
(0.940459 0.0323274 0)
(0.941689 0.0382859 0)
(0.943076 0.0443337 0)
(0.944659 0.0503194 0)
(0.946446 0.0562435 0)
(0.94841 0.0620761 0)
(0.950594 0.0678404 0)
(0.952917 0.0735024 0)
(0.955469 0.0790519 0)
(0.958199 0.0845437 0)
(0.960952 0.0898407 0)
(0.964263 0.0950892 0)
(0.9671 0.100214 0)
(0.970742 0.105088 0)
(0.974302 0.110002 0)
(0.977406 0.114702 0)
(0.982012 0.119048 0)
(0.985321 0.123725 0)
(0.989177 0.127741 0)
(0.994285 0.131742 0)
(0.997351 0.136015 0)
(1.0022 0.139283 0)
(1.00716 0.143154 0)
(1.01048 0.146605 1.50018e-027)
(0.775141 0.00135494 9.40951e-026)
(0.811068 0.0103722 0)
(0.853707 0.0161819 0)
(0.897688 0.0226971 0)
(0.914752 0.029903 0)
(0.917214 0.0364837 0)
(0.918633 0.0432276 0)
(0.920237 0.0500445 0)
(0.922081 0.056808 0)
(0.92413 0.0634585 0)
(0.926454 0.0700631 0)
(0.928901 0.076514 0)
(0.931709 0.0828943 0)
(0.93459 0.0891706 0)
(0.937635 0.0952276 0)
(0.941362 0.101293 0)
(0.944147 0.107124 0)
(0.948749 0.112731 0)
(0.952122 0.118414 0)
(0.955754 0.123768 0)
(0.96142 0.1287 0)
(0.964062 0.134272 0)
(0.969379 0.138614 0)
(0.974959 0.143353 0)
(0.977538 0.148374 0)
(0.984376 0.151723 0)
(0.989132 0.156614 0)
(0.992605 0.160221 0)
(1.00007 0.163553 -8.37344e-026)
(0.752034 0.0015042 0)
(0.787808 0.0116866 0)
(0.83072 0.0181542 0)
(0.874097 0.0255484 0)
(0.889997 0.0336063 0)
(0.89252 0.0410108 0)
(0.894144 0.0486035 0)
(0.896 0.0562882 0)
(0.898095 0.0638452 0)
(0.900521 0.0713869 0)
(0.903054 0.0786954 0)
(0.906125 0.0860437 0)
(0.90904 0.0931318 0)
(0.912531 0.100116 0)
(0.916465 0.107045 0)
(0.919257 0.113693 0)
(0.925076 0.120142 0)
(0.927582 0.126671 0)
(0.932658 0.132797 0)
(0.938798 0.13833 0)
(0.940653 0.145106 0)
(0.948353 0.149572 0)
(0.953236 0.155376 0)
(0.95611 0.161215 0)
(0.965139 0.164492 0)
(0.968823 0.170888 0)
(0.973556 0.174445 0)
(0.982576 0.178418 0)
(0.985516 0.183407 0)
(0.727589 0.00165273 0)
(0.763215 0.0131128 0)
(0.806462 0.0202666 0)
(0.849044 0.0286253 0)
(0.863785 0.0375993 0)
(0.866392 0.0458927 0)
(0.868248 0.0544395 0)
(0.870342 0.0629931 0)
(0.87281 0.0715611 0)
(0.875398 0.0798093 0)
(0.87869 0.0882595 0)
(0.881537 0.096165 0)
(0.885658 0.104319 0)
(0.889367 0.112043 0)
(0.892604 0.119763 0)
(0.899424 0.127012 0)
(0.900674 0.134642 0)
(0.908298 0.141534 0)
(0.913478 0.147769 0)
(0.915494 0.156131 0)
(0.925563 0.160198 0)
(0.928949 0.167887 0)
(0.933448 0.17423 0)
(0.943684 0.177426 0)
(0.946645 0.18601 0)
(0.953109 0.188811 0)
(0.962786 0.194044 0)
(0.965724 0.199891 0)
(0.97439 0.202249 9.90166e-026)
(0.701862 0.00179479 0)
(0.737349 0.0146486 0)
(0.780992 0.0225049 0)
(0.822552 0.0319179 0)
(0.836151 0.0418589 0)
(0.838871 0.0511433 0)
(0.840951 0.0606474 0)
(0.843386 0.0703125 0)
(0.846 0.0796117 0)
(0.849406 0.0892521 0)
(0.852168 0.0980221 0)
(0.856976 0.107586 0)
(0.859983 0.115959 0)
(0.864477 0.125149 0)
(0.871341 0.132983 0)
(0.871818 0.142288 0)
(0.882247 0.149434 0)
(0.885144 0.157071 0)
(0.88904 0.166856 0)
(0.900383 0.170283 0)
(0.902731 0.181017 0)
(0.908954 0.18669 0)
(0.919616 0.190751 0)
(0.922948 0.20159 0)
(0.930522 0.203065 0)
(0.94084 0.210544 0)
(0.944291 0.216832 0)
(0.954593 0.219013 0)
(0.962235 0.226009 1.52187e-027)
(0.674937 0.00192336 0)
(0.710297 0.0162891 0)
(0.754389 0.0248498 0)
(0.794662 0.0354009 0)
(0.80716 0.0463822 0)
(0.809998 0.0566809 0)
(0.812369 0.0673655 0)
(0.814968 0.0778448 0)
(0.818335 0.0886997 0)
(0.821093 0.0984868 0)
(0.826381 0.109559 0)
(0.828515 0.118548 0)
(0.834999 0.129587 0)
(0.84031 0.137794 0)
(0.841443 0.149211 0)
(0.853893 0.156035 0)
(0.854441 0.166488 0)
(0.861235 0.176332 0)
(0.872518 0.18036 0)
(0.874504 0.193966 0)
(0.881877 0.198189 0)
(0.893595 0.204881 0)
(0.897219 0.216838 0)
(0.90581 0.217504 0)
(0.916724 0.227905 0)
(0.920845 0.233955 0)
(0.93247 0.236242 0)
(0.940649 0.245443 0)
(0.947144 0.248335 -2.27552e-025)
(0.646922 0.00202998 0)
(0.682175 0.0180275 0)
(0.726747 0.0272737 0)
(0.765441 0.0390581 0)
(0.776886 0.0511059 0)
(0.779883 0.0625904 0)
(0.782446 0.0742353 0)
(0.785633 0.0862923 0)
(0.788482 0.0973404 0)
(0.793818 0.109807 0)
(0.795393 0.119693 0)
(0.803809 0.132613 0)
(0.806247 0.141252 0)
(0.810453 0.154844 0)
(0.822922 0.161641 0)
(0.821735 0.175269 0)
(0.831277 0.183749 0)
(0.842188 0.190507 0)
(0.843768 0.206182 0)
(0.852999 0.209035 0)
(0.865551 0.219372 0)
(0.86861 0.230911 0)
(0.87875 0.232252 0)
(0.890259 0.245546 0)
(0.895429 0.250724 0)
(0.908407 0.253827 0)
(0.91675 0.265716 0)
(0.92442 0.267338 0)
(0.93867 0.27255 -1.31947e-027)
(0.617947 0.00210533 0)
(0.65313 0.0198548 0)
(0.698169 0.0297461 0)
(0.734976 0.0428402 0)
(0.745444 0.0560537 0)
(0.748576 0.0686324 0)
(0.751539 0.0817698 0)
(0.754492 0.0943067 0)
(0.759432 0.107949 0)
(0.761044 0.119222 0)
(0.770437 0.13354 0)
(0.770225 0.143347 0)
(0.779111 0.158628 0)
(0.788214 0.166024 0)
(0.787007 0.182207 0)
(0.800597 0.190119 0)
(0.808735 0.20095 0)
(0.80987 0.215789 0)
(0.822903 0.219731 0)
(0.834787 0.233407 0)
(0.837279 0.243894 0)
(0.850058 0.247407 0)
(0.861136 0.262606 0)
(0.867345 0.266864 0)
(0.882197 0.272454 0)
(0.890304 0.286107 0)
(0.899106 0.28625 0)
(0.915338 0.294172 0)
(0.921861 0.302208 1.30395e-025)
(0.588166 0.00213955 0)
(0.623333 0.0217611 0)
(0.668762 0.0322277 0)
(0.703378 0.0467309 0)
(0.712957 0.0611063 0)
(0.716286 0.0750515 0)
(0.719279 0.0890692 0)
(0.72357 0.103764 0)
(0.725708 0.116844 0)
(0.734867 0.132083 0)
(0.733386 0.144078 0)
(0.745831 0.159813 0)
(0.74957 0.169116 0)
(0.751745 0.187336 0)
(0.767802 0.195897 0)
(0.770737 0.209153 0)
(0.77547 0.223198 0)
(0.792509 0.230633 0)
(0.7989 0.245473 0)
(0.802955 0.255707 0)
(0.820518 0.2626 0)
(0.829168 0.277911 0)
(0.836476 0.282944 0)
(0.853619 0.291743 0)
(0.860311 0.305036 0)
(0.872207 0.305624 0)
(0.890266 0.316749 0)
(0.895934 0.324366 0)
(0.910962 0.326422 1.4052e-025)
(0.557749 0.00212394 0)
(0.59298 0.0237358 0)
(0.63863 0.0346818 0)
(0.670794 0.0506754 0)
(0.679576 0.0663041 0)
(0.683023 0.0814394 0)
(0.686699 0.0971158 0)
(0.68947 0.112157 0)
(0.697331 0.1282 0)
(0.695836 0.142413 0)
(0.710403 0.158429 0)
(0.709346 0.171071 0)
(0.717393 0.189722 0)
(0.73089 0.198114 0)
(0.730948 0.215887 0)
(0.742989 0.22927 0)
(0.756679 0.239776 0)
(0.758555 0.255292 0)
(0.769905 0.26679 0)
(0.78831 0.276272 0)
(0.792697 0.291761 0)
(0.803169 0.299457 0)
(0.822111 0.309039 0)
(0.828327 0.323306 0)
(0.844783 0.325587 0)
(0.858715 0.338597 0)
(0.86675 0.346512 0)
(0.887605 0.349452 0)
(0.897356 0.358727 -1.49516e-025)
(0.526872 0.00205325 0)
(0.56228 0.0257645 0)
(0.607869 0.0370827 0)
(0.63737 0.0546374 0)
(0.645483 0.0715561 0)
(0.649184 0.0880255 0)
(0.652364 0.104824 0)
(0.658474 0.121743 0)
(0.658285 0.138137 0)
(0.672664 0.154608 0)
(0.66879 0.170697 0)
(0.682017 0.188545 0)
(0.689791 0.198847 0)
(0.691567 0.221761 0)
(0.707099 0.231434 0)
(0.714825 0.247841 0)
(0.719623 0.263227 0)
(0.737494 0.276244 0)
(0.750131 0.287382 0)
(0.752375 0.30492 0)
(0.76998 0.313965 0)
(0.787805 0.325617 0)
(0.793564 0.340681 0)
(0.812629 0.344407 0)
(0.822569 0.361051 0)
(0.839987 0.367426 0)
(0.858197 0.3726 0)
(0.866721 0.385161 0)
(0.888422 0.389361 1.59914e-025)
(0.495721 0.00192456 0)
(0.531443 0.027826 0)
(0.576557 0.0393935 0)
(0.603318 0.0586393 0)
(0.610837 0.0767248 0)
(0.614526 0.0947039 0)
(0.619166 0.112615 0)
(0.6208 0.130999 0)
(0.632792 0.148412 0)
(0.628299 0.166844 0)
(0.645068 0.184724 0)
(0.646606 0.198795 0)
(0.65324 0.222776 0)
(0.667866 0.231487 0)
(0.672065 0.254114 0)
(0.681931 0.266773 0)
(0.700096 0.283765 0)
(0.705686 0.297274 0)
(0.712469 0.316718 0)
(0.736026 0.326301 0)
(0.746326 0.340985 0)
(0.756636 0.354726 0)
(0.776829 0.364296 0)
(0.78635 0.382398 0)
(0.810733 0.385098 0)
(0.819827 0.397524 0)
(0.836841 0.40975 0)
(0.860766 0.413312 0)
(0.870061 0.422136 -3.39649e-025)
(0.46449 0.00174857 0)
(0.500662 0.029875 0)
(0.544801 0.0416444 0)
(0.568788 0.0625058 0)
(0.575843 0.0820692 0)
(0.579977 0.100902 0)
(0.582897 0.120928 0)
(0.591437 0.139532 0)
(0.588467 0.159505 0)
(0.605933 0.1788 0)
(0.603139 0.195543 0)
(0.615535 0.21942 0)
(0.624346 0.230103 0)
(0.63052 0.256552 0)
(0.642249 0.26762 0)
(0.657322 0.289395 0)
(0.659397 0.30477 0)
(0.676401 0.324169 0)
(0.696848 0.335232 0)
(0.701011 0.354104 0)
(0.721832 0.366979 0)
(0.733184 0.383744 0)
(0.75024 0.397565 0)
(0.773633 0.403736 0)
(0.781777 0.423114 0)
(0.807122 0.430528 0)
(0.822923 0.439028 0)
(0.838046 0.449651 0)
(0.866509 0.456294 6.19275e-028)
(0.433382 0.00154157 0)
(0.47011 0.0318714 0)
(0.512699 0.0437717 0)
(0.534059 0.0664654 0)
(0.540751 0.0868562 0)
(0.544489 0.10786 0)
(0.550269 0.127634 0)
(0.550425 0.149608 0)
(0.565232 0.169213 0)
(0.56067 0.188868 0)
(0.576638 0.212774 0)
(0.579677 0.226756 0)
(0.590372 0.253832 0)
(0.598629 0.267124 0)
(0.61266 0.291187 0)
(0.616251 0.307693 0)
(0.639321 0.327307 0)
(0.648194 0.342915 0)
(0.657218 0.364934 0)
(0.683019 0.37729 0)
(0.687772 0.399613 0)
(0.712468 0.409104 0)
(0.729248 0.424507 0)
(0.741949 0.443204 0)
(0.771407 0.450842 0)
(0.781309 0.466242 0)
(0.807434 0.473992 0)
(0.83045 0.484905 0)
(0.844053 0.492014 1.16948e-027)
(0.402609 0.00135647 0)
(0.439906 0.0337244 0)
(0.480417 0.0459154 0)
(0.499315 0.070036 0)
(0.50561 0.0921705 0)
(0.51024 0.113122 0)
(0.512603 0.136466 0)
(0.522905 0.156713 0)
(0.519038 0.179381 0)
(0.536893 0.202897 0)
(0.535465 0.220135 0)
(0.5487 0.247295 0)
(0.555242 0.263669 0)
(0.568373 0.288434 0)
(0.573368 0.306935 0)
(0.5959 0.328296 0)
(0.597612 0.348427 0)
(0.617826 0.37045 0)
(0.635167 0.384854 0)
(0.641899 0.409583 0)
(0.671219 0.42207 0)
(0.682099 0.442416 0)
(0.702389 0.457513 0)
(0.727326 0.470665 0)
(0.739162 0.48945 0)
(0.771986 0.495542 0)
(0.787583 0.513939 0)
(0.811659 0.519208 0)
(0.840918 0.529716 2.02852e-025)
(0.372381 0.00124419 0)
(0.41014 0.0353866 0)
(0.448118 0.047951 0)
(0.4648 0.0737753 0)
(0.471044 0.0963068 0)
(0.474582 0.120164 0)
(0.481321 0.14166 0)
(0.480613 0.166836 0)
(0.496148 0.189056 0)
(0.491655 0.210019 0)
(0.508107 0.23806 0)
(0.51257 0.25604 0)
(0.521973 0.2809 0)
(0.531739 0.304556 0)
(0.548931 0.324749 0)
(0.549833 0.34936 0)
(0.576476 0.37062 0)
(0.581809 0.389639 0)
(0.601099 0.415804 0)
(0.623728 0.429618 0)
(0.631804 0.454227 0)
(0.662495 0.469101 0)
(0.67663 0.491752 0)
(0.696131 0.505425 0)
(0.728653 0.518145 0)
(0.742878 0.540469 0)
(0.776227 0.544046 0)
(0.797114 0.560474 0)
(0.821295 0.568218 -2.1101e-025)
(0.342902 0.0012942 0)
(0.380868 0.0367368 0)
(0.416 0.0501043 0)
(0.430835 0.0768873 0)
(0.436497 0.101309 0)
(0.441635 0.124355 0)
(0.44334 0.150388 0)
(0.454335 0.172722 0)
(0.45059 0.197552 0)
(0.46808 0.224545 0)
(0.467854 0.243743 0)
(0.47813 0.271891 0)
(0.491111 0.297913 0)
(0.498997 0.315276 0)
(0.506045 0.34745 0)
(0.529935 0.366115 0)
(0.531811 0.390434 0)
(0.558202 0.416755 0)
(0.569232 0.434195 0)
(0.583671 0.463419 0)
(0.614757 0.47709 0)
(0.623811 0.506512 0)
(0.654459 0.516418 0)
(0.676855 0.543424 0)
(0.695947 0.557674 0)
(0.733292 0.568406 0)
(0.748819 0.590548 0)
(0.785642 0.595661 0)
(0.813663 0.611958 2.24845e-025)
(0.314349 0.00155873 0)
(0.352138 0.0377553 0)
(0.384313 0.0521748 0)
(0.397399 0.0801295 0)
(0.403427 0.104824 0)
(0.406518 0.130688 0)
(0.413792 0.154725 0)
(0.412956 0.181179 0)
(0.427404 0.207573 0)
(0.424407 0.228857 0)
(0.438743 0.260195 0)
(0.446912 0.284043 0)
(0.45072 0.30413 0)
(0.466911 0.340525 0)
(0.480297 0.356213 0)
(0.484683 0.387427 0)
(0.510665 0.413005 0)
(0.515994 0.434791 0)
(0.537616 0.463097 0)
(0.561683 0.484981 0)
(0.572575 0.511667 0)
(0.605019 0.52824 0)
(0.619417 0.559205 0)
(0.651962 0.56982 0)
(0.68107 0.595264 0)
(0.698678 0.61154 0)
(0.74273 0.623794 0)
(0.763112 0.642181 0)
(0.799736 0.648829 0)
(0.28687 0.00208255 0)
(0.324035 0.0383816 0)
(0.353185 0.054307 0)
(0.365107 0.082786 0)
(0.370163 0.10887 0)
(0.375589 0.134651 0)
(0.377005 0.1611 0)
(0.386821 0.188417 0)
(0.385393 0.211398 0)
(0.39975 0.244567 0)
(0.401105 0.265192 0)
(0.409255 0.29304 0)
(0.426916 0.326104 0)
(0.42825 0.345125 0)
(0.44065 0.379941 0)
(0.462229 0.40082 0)
(0.464315 0.431726 0)
(0.493082 0.458354 0)
(0.504012 0.48786 0)
(0.521463 0.508489 0)
(0.552711 0.536999 0)
(0.564447 0.565917 0)
(0.600328 0.582301 0)
(0.620073 0.613284 0)
(0.650889 0.627567 0)
(0.690868 0.65117 0)
(0.710043 0.669923 0)
(0.75538 0.677389 0)
(0.78379 0.696714 2.39224e-025)
(0.260577 0.00285144 0)
(0.296632 0.0386465 0)
(0.322937 0.0563639 0)
(0.333483 0.0852152 0)
(0.33924 0.112252 0)
(0.342048 0.138559 0)
(0.348562 0.167337 0)
(0.349644 0.190911 0)
(0.359646 0.225249 0)
(0.360095 0.244407 0)
(0.37208 0.278943 0)
(0.382016 0.305892 0)
(0.380481 0.330085 0)
(0.401737 0.367474 0)
(0.413521 0.385556 0)
(0.41704 0.424935 0)
(0.443402 0.446891 0)
(0.446377 0.481116 0)
(0.475861 0.504554 0)
(0.495343 0.538565 0)
(0.506426 0.566881 0)
(0.544925 0.589 0)
(0.562544 0.62379 0)
(0.598972 0.63931 0)
(0.62489 0.6714 0)
(0.655184 0.687946 0)
(0.704884 0.707719 0)
(0.72766 0.730094 0)
(0.778833 0.735945 -8.23524e-027)
(0.235547 0.00380125 0)
(0.270071 0.0386303 0)
(0.293575 0.0582115 0)
(0.303432 0.0875763 0)
(0.308034 0.114526 0)
(0.312971 0.143885 0)
(0.315292 0.168133 0)
(0.321619 0.203138 0)
(0.324191 0.221969 0)
(0.334161 0.260433 0)
(0.337293 0.28278 0)
(0.342345 0.314429 0)
(0.360442 0.347624 0)
(0.364167 0.367893 0)
(0.373776 0.411155 0)
(0.392405 0.432232 0)
(0.400029 0.46968 0)
(0.425183 0.495308 0)
(0.433368 0.530421 0)
(0.456997 0.56134 0)
(0.487876 0.590958 0)
(0.499346 0.624183 0)
(0.540194 0.645577 0)
(0.561623 0.684754 0)
(0.60246 0.70176 0)