/*--------------------------------*- C++ -*----------------------------------*\
| =========                 |                                                 |
| \\      /  F ield         | OpenFOAM: The Open Source CFD Toolbox           |
|  \\    /   O peration     | Version:  5.x                                   |
|   \\  /    A nd           | Web:      www.OpenFOAM.org                      |
|    \\/     M anipulation  |                                                 |
\*---------------------------------------------------------------------------*/
/*   Windows 32 and 64 bit porting by blueCAPE: http://www.bluecape.com.pt   *\
|  Based on Windows porting (2.0.x v4) by Symscape: http://www.symscape.com   |
\*---------------------------------------------------------------------------*/
FoamFile
{
    version     2.0;
    format      ascii;
    class       volScalarField;
    location    "110";
    object      epsilon;
}
// * * * * * * * * * * * * * * * * * * * * * * * * * * * * * * * * * * * * * //

dimensions      [0 2 -3 0 0 0 0];

internalField   nonuniform List<scalar> 
43900
(
0.00154123
0.00151944
0.00151976
0.00151972
0.00151967
0.00151967
0.00151967
0.00151968
0.00151968
0.00151968
0.00151968
0.00151969
0.00151969
0.00151969
0.00151969
0.00151969
0.00151969
0.00151969
0.00151969
0.00151969
0.00151969
0.00151969
0.00151969
0.00151969
0.00151969
0.00151969
0.00151969
0.00151969
0.00151969
0.000195169
3.45821e-005
3.15959e-005
3.15425e-005
3.27766e-005
3.28019e-005
3.27868e-005
3.28007e-005
3.27993e-005
3.28061e-005
3.28071e-005
3.28086e-005
3.28099e-005
3.28111e-005
3.28121e-005
3.2813e-005
3.28138e-005
3.28145e-005
3.28152e-005
3.28157e-005
3.2816e-005
3.28161e-005
3.28163e-005
3.28165e-005
3.28167e-005
3.28168e-005
3.28169e-005
3.28171e-005
3.2817e-005
0.045655
0.00445086
0.000165383
6.05986e-006
1.43551e-006
1.32192e-006
1.40703e-006
1.41814e-006
1.4176e-006
1.41749e-006
1.41788e-006
1.41832e-006
1.41871e-006
1.41905e-006
1.41934e-006
1.41959e-006
1.41981e-006
1.41999e-006
1.42015e-006
1.42028e-006
1.4204e-006
1.4205e-006
1.4206e-006
1.42068e-006
1.42076e-006
1.42084e-006
1.42091e-006
1.42097e-006
1.42102e-006
0.136131
0.0370585
0.00689765
0.000646915
2.26546e-005
8.46979e-007
1.40617e-007
1.07851e-007
1.15996e-007
1.18721e-007
1.1892e-007
1.18962e-007
1.19008e-007
1.1905e-007
1.19088e-007
1.19122e-007
1.19153e-007
1.19181e-007
1.19207e-007
1.1923e-007
1.19252e-007
1.19272e-007
1.19291e-007
1.19308e-007
1.19325e-007
1.1934e-007
1.19356e-007
1.1937e-007
1.19384e-007
0.189096
0.0768314
0.0281578
0.00770044
0.00130985
9.47815e-005
3.00098e-006
1.30462e-007
2.24733e-008
1.70582e-008
1.73024e-008
1.73545e-008
1.73605e-008
1.73651e-008
1.73703e-008
1.73751e-008
1.73796e-008
1.7384e-008
1.73882e-008
1.73926e-008
1.73955e-008
1.7399e-008
1.74023e-008
1.74061e-008
1.74089e-008
1.74123e-008
1.74149e-008
1.74169e-008
1.74194e-008
0.216048
0.10216
0.0476806
0.0209777
0.00759024
0.00179361
0.000207532
8.86254e-006
2.44027e-007
1.45981e-008
6.32658e-009
6.06424e-009
6.05951e-009
6.05968e-009
6.06026e-009
6.06146e-009
6.06282e-009
6.06426e-009
6.06556e-009
6.06746e-009
6.07038e-009
6.07122e-009
6.07193e-009
6.07271e-009
6.07365e-009
6.07593e-009
6.07389e-009
6.07392e-009
6.07416e-009
0.22698
0.115597
0.0592737
0.0299778
0.0143725
0.00596699
0.00165242
0.000225716
9.98661e-006
2.29785e-007
1.07149e-008
6.20063e-009
6.11443e-009
6.11417e-009
6.11423e-009
6.11471e-009
6.11607e-009
6.11758e-009
6.11898e-009
6.12134e-009
6.12498e-009
6.1272e-009
6.13111e-009
6.13073e-009
6.13088e-009
6.13192e-009
6.127e-009
6.127e-009
6.1272e-009
0.232096
0.123677
0.0668179
0.0361432
0.0191793
0.009629
0.00423196
0.00123229
0.000146842
4.91644e-006
9.74828e-008
1.29059e-008
1.15382e-008
1.15238e-008
1.15239e-008
1.15246e-008
1.15282e-008
1.15313e-008
1.15341e-008
1.15381e-008
1.1545e-008
1.15604e-008
1.1562e-008
1.15616e-008
1.1562e-008
1.15492e-008
1.1542e-008
1.1542e-008
1.15429e-008
0.22973
0.12474
0.0689787
0.0384505
0.0212938
0.0114436
0.00571026
0.00238382
0.000571579
4.09594e-005
8.50483e-007
4.67455e-008
3.49714e-008
3.48331e-008
3.48331e-008
3.4836e-008
3.48504e-008
3.48673e-008
3.48799e-008
3.48878e-008
3.49049e-008
3.49566e-008
3.49206e-008
3.49203e-008
3.49211e-008
3.48564e-008
3.48534e-008
3.48534e-008
3.48151e-008
0.224761
0.123474
0.0690386
0.0390362
0.0220479
0.0122044
0.00640645
0.00297538
0.000993959
0.000131977
4.10415e-006
1.72721e-007
1.16876e-007
1.1621e-007
1.1621e-007
1.16216e-007
1.16256e-007
1.16348e-007
1.16391e-007
1.16496e-007
1.16495e-007
1.16613e-007
1.16371e-007
1.16371e-007
1.16206e-007
1.1618e-007
1.16193e-007
1.16014e-007
1.15846e-007
0.219105
0.121231
0.0683435
0.0389061
0.0221457
0.0124093
0.00665224
0.00321651
0.00119731
0.000207296
9.11828e-006
4.85543e-007
3.48616e-007
3.46828e-007
3.46828e-007
3.46942e-007
3.46912e-007
3.46928e-007
3.47004e-007
3.47084e-007
3.47264e-007
3.47119e-007
3.46569e-007
3.46569e-007
3.46038e-007
3.46039e-007
3.45906e-007
3.45433e-007
3.45366e-007
0.213022
0.118326
0.0670096
0.0383905
0.0219845
0.012382
0.00668339
0.0032799
0.00127081
0.000242371
1.223e-005
7.74325e-007
5.85626e-007
5.83056e-007
5.83056e-007
5.82878e-007
5.8288e-007
5.82895e-007
5.82681e-007
5.82683e-007
5.82376e-007
5.8194e-007
5.81904e-007
5.81904e-007
5.81437e-007
5.81534e-007
5.80784e-007
5.80597e-007
5.806e-007
0.206471
0.114913
0.0652145
0.0374677
0.0215671
0.0122312
0.00664442
0.00327995
0.00128916
0.000256373
1.40053e-005
9.74501e-007
7.42625e-007
7.38919e-007
7.38885e-007
7.39009e-007
7.38687e-007
7.38686e-007
7.38409e-007
7.38409e-007
7.38039e-007
7.38037e-007
7.37532e-007
7.37527e-007
7.3753e-007
7.36989e-007
7.36456e-007
7.3644e-007
7.36443e-007
0.19948
0.11118
0.0631911
0.0363629
0.0209664
0.0119294
0.00652618
0.00325151
0.00128825
0.000262821
1.53449e-005
1.12027e-006
8.38042e-007
8.33197e-007
8.33211e-007
8.32868e-007
8.32767e-007
8.32768e-007
8.32515e-007
8.32516e-007
8.3203e-007
8.31907e-007
8.31867e-007
8.31869e-007
8.31494e-007
8.31075e-007
8.30744e-007
8.30745e-007
8.30887e-007
0.192129
0.107217
0.0610229
0.0351693
0.0203117
0.0115758
0.00634446
0.00317915
0.00127489
0.000263577
1.6307e-005
1.22933e-006
8.92822e-007
8.86222e-007
8.85915e-007
8.8579e-007
8.85789e-007
8.85659e-007
8.85531e-007
8.8553e-007
8.85056e-007
8.85003e-007
8.85003e-007
8.85026e-007
8.84488e-007
8.84386e-007
8.84297e-007
8.84297e-007
8.8412e-007
0.184473
0.103081
0.058755
0.0339187
0.0196247
0.0112047
0.00615135
0.00308583
0.0012434
0.000261675
1.71062e-005
1.32134e-006
9.23243e-007
9.14293e-007
9.14027e-007
9.13986e-007
9.13965e-007
9.13966e-007
9.13883e-007
9.13976e-007
9.13516e-007
9.13514e-007
9.13307e-007
9.13283e-007
9.13283e-007
9.13345e-007
9.12901e-007
9.1301e-007
9.12544e-007
0.176513
0.0987851
0.0564019
0.032624
0.0189163
0.0108247
0.00595593
0.00299343
0.00120614
0.00025628
1.76413e-005
1.40499e-006
9.41023e-007
9.291e-007
9.2882e-007
9.2899e-007
9.28622e-007
9.28622e-007
9.28643e-007
9.28389e-007
9.28389e-007
9.28405e-007
9.28167e-007
9.2824e-007
9.27882e-007
9.2782e-007
9.28162e-007
9.27721e-007
9.27677e-007
0.16824
0.094327
0.0539651
0.0312871
0.0181882
0.0104371
0.00575947
0.00290316
0.00117235
0.00025098
1.82798e-005
1.50016e-006
9.52895e-007
9.36821e-007
9.3644e-007
9.36183e-007
9.36182e-007
9.36107e-007
9.36149e-007
9.36259e-007
9.35955e-007
9.35934e-007
9.3576e-007
9.35781e-007
9.35623e-007
9.35977e-007
9.35456e-007
9.35365e-007
9.35411e-007
0.159665
0.0897112
0.0514462
0.0299084
0.0174401
0.0100415
0.00556141
0.00281464
0.00114143
0.000247439
1.91967e-005
1.61714e-006
9.63437e-007
9.41196e-007
9.40714e-007
9.4059e-007
9.40426e-007
9.4068e-007
9.40283e-007
9.40619e-007
9.40265e-007
9.40246e-007
9.40114e-007
9.39746e-007
9.40096e-007
9.39899e-007
9.39669e-007
9.39721e-007
9.39277e-007
0.150815
0.0849509
0.0488507
0.02849
0.0166725
0.00963761
0.00536101
0.00272676
0.00111314
0.000245595
2.04924e-005
1.77658e-006
9.75481e-007
9.44672e-007
9.43193e-007
9.43605e-007
9.43492e-007
9.42873e-007
9.43378e-007
9.42736e-007
9.42719e-007
9.43291e-007
9.4237e-007
9.42986e-007
9.42514e-007
9.4213e-007
9.42748e-007
9.42102e-007
9.4202e-007
0.141729
0.0800636
0.0461869
0.0270353
0.0158865
0.00922547
0.00515833
0.00263997
0.0010863
0.000246071
2.22277e-005
1.9762e-006
9.91556e-007
9.47263e-007
9.46333e-007
9.45763e-007
9.45051e-007
9.45791e-007
9.45159e-007
9.45235e-007
9.45444e-007
9.44674e-007
9.45234e-007
9.45036e-007
9.44151e-007
9.44943e-007
9.44394e-007
9.43935e-007
9.44497e-007
0.132458
0.0750748
0.043467
0.0255501
0.0150848
0.00880617
0.0049531
0.00255279
0.00106165
0.000248044
2.42521e-005
2.24038e-006
1.01315e-006
9.51688e-007
9.47966e-007
9.47412e-007
9.48406e-007
9.47751e-007
9.47372e-007
9.47985e-007
9.46902e-007
9.47304e-007
9.4783e-007
9.46541e-007
9.47026e-007
9.46798e-007
9.459e-007
9.46822e-007
9.46148e-007
0.12306
0.070013
0.0407048
0.0240405
0.0142696
0.00838008
0.00474569
0.00246678
0.00103819
0.000250438
2.6773e-005
2.58218e-006
1.04567e-006
9.5541e-007
9.50686e-007
9.5147e-007
9.50396e-007
9.49774e-007
9.51035e-007
9.49995e-007
9.49678e-007
9.50364e-007
9.49189e-007
9.49561e-007
9.50142e-007
9.48446e-007
9.49234e-007
9.485e-007
9.47817e-007
0.113604
0.0649108
0.0379157
0.0225137
0.0134442
0.00794885
0.00453616
0.00237974
0.00101582
0.000254947
2.97046e-005
3.00591e-006
1.08871e-006
9.61968e-007
9.55343e-007
9.53694e-007
9.53063e-007
9.54824e-007
9.53324e-007
9.52321e-007
9.53939e-007
9.52246e-007
9.52782e-007
9.53645e-007
9.51655e-007
9.52194e-007
9.51972e-007
9.51081e-007
9.51604e-007
0.104172
0.0598096
0.0351203
0.0209794
0.0126123
0.00751295
0.0043242
0.00229318
0.000995081
0.000259271
3.30162e-005
3.57572e-006
1.15316e-006
9.73269e-007
9.58384e-007
9.57318e-007
9.59296e-007
9.57481e-007
9.56276e-007
9.58506e-007
9.56611e-007
9.56634e-007
9.5639e-007
9.55361e-007
9.56464e-007
9.55703e-007
9.54428e-007
9.54653e-007
9.54729e-007
0.0948364
0.054745
0.0323361
0.0194458
0.011778
0.00707473
0.00411095
0.00220545
0.000973703
0.000265294
3.72148e-005
4.28048e-006
1.24287e-006
9.84495e-007
9.64627e-007
9.64473e-007
9.62387e-007
9.62466e-007
9.63557e-007
9.61714e-007
9.61826e-007
9.60865e-007
9.60875e-007
9.60855e-007
9.59658e-007
9.60175e-007
9.59781e-007
9.59822e-007
9.58014e-007
0.0856897
0.0497628
0.0295851
0.0179229
0.0109449
0.0066343
0.00389513
0.00211694
0.000953158
0.000271699
4.13866e-005
5.13267e-006
1.36236e-006
1.00586e-006
9.71941e-007
9.68781e-007
9.70085e-007
9.6784e-007
9.67134e-007
9.68151e-007
9.66601e-007
9.6764e-007
9.65835e-007
9.6558e-007
9.66333e-007
9.64312e-007
9.64823e-007
9.63328e-007
9.6297e-007
0.0768124
0.0449049
0.0268891
0.0164218
0.0101183
0.00619424
0.00367784
0.0020264
0.000932086
0.000278136
4.67456e-005
6.31358e-006
1.54807e-006
1.03326e-006
9.82165e-007
9.77498e-007
9.7468e-007
9.76018e-007
9.75566e-007
9.73428e-007
9.75252e-007
9.72862e-007
9.73439e-007
9.73405e-007
9.70936e-007
9.72132e-007
9.69757e-007
9.69501e-007
9.70741e-007
0.0682843
0.0402114
0.0242682
0.0149521
0.00930256
0.00575609
0.00345928
0.0019344
0.000908416
0.00028478
5.21612e-005
7.5988e-006
1.76448e-006
1.07782e-006
9.94888e-007
9.83718e-007
9.85987e-007
9.82866e-007
9.82526e-007
9.84617e-007
9.8173e-007
9.82986e-007
9.80996e-007
9.79506e-007
9.81153e-007
9.78082e-007
9.78443e-007
9.77353e-007
9.75341e-007
0.0601797
0.0357216
0.0217427
0.0135236
0.00850158
0.00532053
0.00323851
0.00183935
0.000885117
0.000290502
5.79429e-005
9.21952e-006
2.08511e-006
1.13154e-006
1.01088e-006
1.0011e-006
9.9393e-007
9.95221e-007
9.93947e-007
9.91025e-007
9.94949e-007
9.91432e-007
9.9061e-007
9.9e-007
9.88168e-007
9.89472e-007
9.86003e-007
9.86818e-007
9.8488e-007
0.0525645
0.0314709
0.0193318
0.0121469
0.00772117
0.00489078
0.00301719
0.00174075
0.000855669
0.000295147
6.42009e-005
1.11071e-005
2.4943e-006
1.22454e-006
1.03692e-006
1.01002e-006
1.01099e-006
1.00701e-006
1.00505e-006
1.00508e-006
1.00263e-006
1.00587e-006
1.00308e-006
1.00329e-006
1.00182e-006
9.97835e-007
9.99558e-007
9.95106e-007
9.95713e-007
0.0454885
0.0274879
0.0170517
0.0108307
0.00696546
0.00446807
0.00279518
0.00164078
0.000827022
0.000297311
7.00901e-005
1.33009e-005
3.01916e-006
1.3273e-006
1.06942e-006
1.03398e-006
1.02123e-006
1.02242e-006
1.02095e-006
1.02047e-006
1.0205e-006
1.01608e-006
1.01906e-006
1.01451e-006
1.01418e-006
1.01488e-006
1.01036e-006
1.01249e-006
1.00894e-006
0.0389899
0.0237953
0.0149156
0.00958242
0.00623846
0.00405446
0.00257282
0.0015339
0.000789729
0.000296701
7.5881e-005
1.55402e-005
3.59979e-006
1.496e-006
1.11752e-006
1.04824e-006
1.04487e-006
1.04105e-006
1.04083e-006
1.03485e-006
1.03192e-006
1.03564e-006
1.03329e-006
1.03641e-006
1.03134e-006
1.02648e-006
1.02933e-006
1.02445e-006
1.02497e-006
0.0330933
0.0204098
0.0129347
0.00840937
0.00554458
0.00365212
0.00235119
0.00142652
0.000752128
0.000293979
8.00727e-005
1.79343e-005
4.41104e-006
1.69364e-006
1.17682e-006
1.08995e-006
1.0617e-006
1.06104e-006
1.05932e-006
1.06433e-006
1.05977e-006
1.05039e-006
1.05352e-006
1.05209e-006
1.05632e-006
1.05029e-006
1.0427e-006
1.0458e-006
1.04102e-006
0.0278064
0.0173402
0.0111161
0.00731687
0.00488754
0.00326371
0.00213204
0.00131318
0.000705193
0.000287791
8.43548e-005
2.04533e-005
5.18176e-006
1.95085e-006
1.26408e-006
1.1173e-006
1.09597e-006
1.08565e-006
1.08579e-006
1.08154e-006
1.08822e-006
1.08466e-006
1.07306e-006
1.07564e-006
1.07198e-006
1.07854e-006
1.07211e-006
1.06156e-006
1.06477e-006
0.0231233
0.0145878
0.00946357
0.00630861
0.0042701
0.00289044
0.00191472
0.00119872
0.00065715
0.000277645
8.60523e-005
2.24468e-005
6.13018e-006
2.24293e-006
1.38195e-006
1.17442e-006
1.12147e-006
1.11892e-006
1.11596e-006
1.11963e-006
1.11175e-006
1.11445e-006
1.1106e-006
1.09821e-006
1.10073e-006
1.09731e-006
1.10705e-006
1.09938e-006
1.08384e-006
0.0190254
0.0121479
0.00797747
0.00538692
0.00369499
0.00253525
0.00170314
0.00107975
0.000601022
0.000262004
8.57648e-005
2.43772e-005
7.00566e-006
2.60498e-006
1.4888e-006
1.24286e-006
1.18047e-006
1.14857e-006
1.14709e-006
1.14368e-006
1.15417e-006
1.14505e-006
1.14625e-006
1.14351e-006
1.13287e-006
1.13249e-006
1.12724e-006
1.13737e-006
1.12741e-006
0.0154828
0.0100094
0.00665521
0.00455276
0.00316432
0.00219977
0.00149631
0.000962304
0.000543121
0.000243653
8.4171e-005
2.53547e-005
7.87546e-006
2.96737e-006
1.68184e-006
1.30965e-006
1.22124e-006
1.20727e-006
1.19746e-006
1.19573e-006
1.18688e-006
1.19702e-006
1.18503e-006
1.18146e-006
1.17534e-006
1.16453e-006
1.16654e-006
1.16135e-006
1.17122e-006
0.012457
0.00815615
0.00549107
0.00380516
0.00267905
0.00188594
0.00129873
0.000841578
0.000479525
0.000219438
8.04592e-005
2.58337e-005
8.51486e-006
3.38454e-006
1.82367e-006
1.4293e-006
1.28773e-006
1.2539e-006
1.24515e-006
1.23328e-006
1.23234e-006
1.22961e-006
1.24357e-006
1.23371e-006
1.23126e-006
1.22684e-006
1.21268e-006
1.21075e-006
1.19998e-006
0.00990325
0.00656808
0.004477
0.00314194
0.00223974
0.00159499
0.00110845
0.000725397
0.000415637
0.000193971
7.41627e-005
2.546e-005
8.99137e-006
3.72667e-006
2.08165e-006
1.51069e-006
1.3842e-006
1.31634e-006
1.301e-006
1.30406e-006
1.30405e-006
1.30431e-006
1.29541e-006
1.30812e-006
1.29225e-006
1.28319e-006
1.27475e-006
1.25722e-006
1.25774e-006
0.00777356
0.00522257
0.00360315
0.00255973
0.00184611
0.00132843
0.000931769
0.000609906
0.000350045
0.000165784
6.64763e-005
2.44964e-005
9.21034e-006
4.02451e-006
2.25245e-006
1.6941e-006
1.45216e-006
1.414e-006
1.38189e-006
1.36834e-006
1.36754e-006
1.36234e-006
1.36264e-006
1.35628e-006
1.37532e-006
1.35673e-006
1.34931e-006
1.33828e-006
1.31013e-006
0.00601847
0.00409544
0.00285842
0.00205428
0.00149764
0.00108736
0.000765165
0.000502096
0.00028698
0.000137972
5.74649e-005
2.26124e-005
9.12753e-006
4.23192e-006
2.46406e-006
1.79956e-006
1.59569e-006
1.47498e-006
1.4716e-006
1.45187e-006
1.45043e-006
1.45384e-006
1.45297e-006
1.44963e-006
1.43678e-006
1.45482e-006
1.43105e-006
1.42696e-006
1.40997e-006
0.00458924
0.00316208
0.00223093
0.00162053
0.0011925
0.000871214
0.000615594
0.000399885
0.000227738
0.000110548
4.80346e-005
2.02878e-005
8.8657e-006
4.38948e-006
2.59845e-006
1.938e-006
1.69384e-006
1.62241e-006
1.55274e-006
1.5685e-006
1.54701e-006
1.54173e-006
1.5441e-006
1.54281e-006
1.53866e-006
1.53254e-006
1.54948e-006
1.52462e-006
1.5216e-006
0.00343942
0.00239835
0.00170858
0.00125297
0.000929371
0.000682136
0.000478961
0.000309258
0.000173998
8.60606e-005
3.90399e-005
1.75447e-005
8.32309e-006
4.36664e-006
2.80107e-006
2.08388e-006
1.80814e-006
1.71126e-006
1.68606e-006
1.66258e-006
1.69653e-006
1.67483e-006
1.66817e-006
1.6681e-006
1.66173e-006
1.65961e-006
1.65202e-006
1.6625e-006
1.64282e-006
0.00252613
0.00178142
0.00127961
0.000946141
0.000705753
0.000517689
0.000362319
0.000228862
0.000128157
6.42369e-005
3.08065e-005
1.47964e-005
7.5817e-006
4.29982e-006
2.85563e-006
2.2697e-006
1.9356e-006
1.81703e-006
1.80159e-006
1.79002e-006
1.78589e-006
1.8352e-006
1.81765e-006
1.82756e-006
1.82427e-006
1.80895e-006
1.8068e-006
1.78068e-006
1.78847e-006
0.00181082
0.00129029
0.000932761
0.000694169
0.000519448
0.000380208
0.000260595
0.000162702
9.06601e-005
4.712e-005
2.36741e-005
1.2169e-005
6.66394e-006
4.13916e-006
2.94205e-006
2.36309e-006
2.14346e-006
1.97933e-006
1.93866e-006
1.94621e-006
1.94212e-006
1.94089e-006
2.0039e-006
1.98427e-006
2.01811e-006
1.99952e-006
1.99968e-006
1.9931e-006
1.95175e-006
0.00125974
0.000906029
0.000657578
0.000491662
0.000368119
0.000266029
0.000180263
0.000110256
6.20644e-005
3.32094e-005
1.77227e-005
9.84119e-006
5.83513e-006
3.9408e-006
2.97389e-006
2.47283e-006
2.21346e-006
2.12682e-006
2.07701e-006
2.07959e-006
2.11448e-006
2.11924e-006
2.13341e-006
2.21788e-006
2.20587e-006
2.24062e-006
2.21857e-006
2.22588e-006
2.21083e-006
0.000843885
0.000611887
0.000444518
0.000333495
0.000248325
0.000177528
0.00011723
7.17552e-005
4.10619e-005
2.30301e-005
1.31209e-005
7.91174e-006
5.14636e-006
3.73552e-006
2.95333e-006
2.52684e-006
2.33349e-006
2.25899e-006
2.26468e-006
2.27031e-006
2.2936e-006
2.3545e-006
2.37294e-006
2.40429e-006
2.53624e-006
2.51851e-006
2.5559e-006
2.52674e-006
2.53483e-006
0.000538546
0.000393058
0.000285108
0.000214078
0.000158572
0.000111178
7.30679e-005
4.47059e-005
2.67583e-005
1.58545e-005
9.81183e-006
6.32896e-006
4.57228e-006
3.48366e-006
2.92533e-006
2.60016e-006
2.44754e-006
2.42621e-006
2.42692e-006
2.44278e-006
2.47164e-006
2.51546e-006
2.62354e-006
2.64134e-006
2.69855e-006
2.91104e-006
2.8947e-006
2.93921e-006
2.89194e-006
0.000322578
0.000236601
0.0001712
0.000129369
9.48809e-005
6.60749e-005
4.34296e-005
2.77044e-005
1.72215e-005
1.10983e-005
7.44713e-006
5.27255e-006
4.07357e-006
3.32515e-006
2.87589e-006
2.70875e-006
2.59485e-006
2.58027e-006
2.59556e-006
2.6294e-006
2.66205e-006
2.73045e-006
2.80932e-006
3.02373e-006
3.06163e-006
3.15308e-006
3.46467e-006
3.43655e-006
3.4903e-006
0.0001779
0.000131158
9.5823e-005
7.31302e-005
5.38929e-005
3.78548e-005
2.55739e-005
1.70759e-005
1.15642e-005
8.06316e-006
5.83242e-006
4.51774e-006
3.67396e-006
3.21823e-006
2.8826e-006
2.76452e-006
2.74509e-006
2.73615e-006
2.75023e-006
2.80029e-006
2.86061e-006
2.95243e-006
3.0723e-006
3.20207e-006
3.53917e-006
3.62285e-006
3.78741e-006
4.21869e-006
4.14551e-006
8.87881e-005
6.66039e-005
5.03652e-005
3.95451e-005
2.97986e-005
2.14845e-005
1.54415e-005
1.09664e-005
8.05674e-006
6.12825e-006
4.7515e-006
4.06791e-006
3.4441e-006
3.18448e-006
2.95717e-006
2.88417e-006
2.88051e-006
2.89656e-006
2.90818e-006
2.95921e-006
3.0458e-006
3.17705e-006
3.38766e-006
3.55675e-006
3.77217e-006
4.26825e-006
4.50805e-006
4.79015e-006
5.42672e-006
4.03687e-005
3.17815e-005
2.57673e-005
2.12031e-005
1.65425e-005
1.27531e-005
9.80398e-006
7.47479e-006
6.03804e-006
4.7664e-006
4.22751e-006
3.63475e-006
3.39701e-006
3.12236e-006
3.04233e-006
2.98977e-006
2.99756e-006
3.02108e-006
3.08801e-006
3.14655e-006
3.29046e-006
3.39192e-006
3.62773e-006
3.81806e-006
4.10189e-006
4.46169e-006
5.16836e-006
5.48452e-006
6.26656e-006
1.763e-005
1.51271e-005
1.34265e-005
1.16885e-005
9.68207e-006
8.04309e-006
6.52372e-006
5.45891e-006
4.75472e-006
4.11105e-006
3.84992e-006
3.45542e-006
3.33742e-006
3.13998e-006
3.10731e-006
3.10219e-006
3.11414e-006
3.15113e-006
3.23793e-006
3.34604e-006
3.60335e-006
3.84487e-006
4.40196e-006
4.97276e-006
6.13537e-006
7.06818e-006
8.98068e-006
9.78226e-006
1.0184e-005
8.06908e-006
7.6506e-006
7.3949e-006
6.79452e-006
6.17095e-006
5.32468e-006
4.86489e-006
4.27022e-006
3.99773e-006
3.63713e-006
3.45438e-006
3.23126e-006
3.22443e-006
3.21914e-006
3.32327e-006
3.60838e-006
4.54658e-006
6.45571e-006
1.21741e-005
2.10835e-005
4.3938e-005
7.22012e-005
0.000128425
0.000208319
0.000293977
0.000435044
0.000526124
0.000614024
0.00056368
4.1273e-006
4.22678e-006
4.40194e-006
4.30264e-006
4.2009e-006
3.88141e-006
3.62944e-006
3.40121e-006
3.38121e-006
3.41055e-006
3.61322e-006
4.30297e-006
7.25619e-006
1.42442e-005
3.3486e-005
7.35165e-005
0.000169242
0.000299916
0.000596153
0.000921669
0.00158156
0.00229644
0.00342205
0.00485727
0.00639547
0.00901123
0.0106888
0.0146641
0.0146537
2.47936e-006
2.6698e-006
2.83248e-006
2.92871e-006
3.04165e-006
3.20277e-006
3.62971e-006
4.36336e-006
6.71885e-006
1.36341e-005
3.86055e-005
9.55633e-005
0.00024212
0.000466679
0.000923949
0.00156388
0.00264843
0.00397158
0.00610988
0.00858046
0.0122923
0.0166205
0.0227485
0.0303398
0.0398469
0.0539481
0.0674971
0.0970282
0.11237
1.74473e-006
1.91585e-006
2.25166e-006
2.95718e-006
5.85423e-006
1.00508e-005
2.70661e-005
5.59611e-005
0.000135115
0.000306987
0.000712641
0.00133318
0.00245884
0.00393739
0.00617689
0.0091121
0.0131869
0.0182935
0.0253692
0.0339477
0.0457283
0.0599767
0.0797907
0.103948
0.138045
0.182434
0.242998
0.3429
0.439717
1.58949e-006
2.26442e-006
4.52738e-006
1.22313e-005
4.73587e-005
0.000103846
0.000286488
0.000559195
0.00117167
0.00218738
0.00399898
0.00645659
0.0102166
0.0149759
0.0216236
0.030075
0.0412023
0.0551087
0.073646
0.0961426
0.126591
0.163335
0.215104
0.276938
0.370731
0.483424
0.673573
0.911004
1.26636
0.00151969
0.00151969
0.00151969
0.00151969
0.00151969
0.00151969
0.00151969
0.00151969
0.00151969
0.00151969
0.00151969
0.00151969
0.00151969
0.00151969
0.00151969
0.00151969
0.00151969
0.00151969
0.00151969
0.00151969
0.00151969
0.00151969
0.00151969
0.00151969
0.00151969
0.00151969
0.00151969
0.00151969
0.00151969
0.00151969
0.0015197
0.0015197
0.0015197
0.0015197
0.0015197
0.0015197
0.0015197
0.0015197
0.0015197
0.0015197
0.0015197
0.0015197
0.0015197
0.0015197
0.0015197
0.0015197
0.0015197
0.0015197
0.0015197
0.0015197
0.0015197
0.0015197
0.0015197
0.0015197
0.0015197
0.0015197
0.0015197
0.0015197
0.0015197
0.0015197
0.00151971
0.00151971
0.00151971
0.00151971
0.00151971
0.00151971
0.00151971
0.00151971
0.00151971
0.00151971
0.00151971
0.00151971
0.00151971
0.00151971
0.00151971
0.00151971
0.00151971
0.00151971
0.00151971
0.00151971
0.00151971
0.00151971
0.00151971
0.00151971
0.00151971
0.00151971
0.00151971
0.00151971
0.00151971
0.00151971
0.00151971
0.00151971
0.00151971
0.00151971
0.00151971
0.00151971
0.00151971
0.00151971
0.00151971
0.00151971
0.00151971
0.00151971
0.00151971
0.00151971
0.00151971
0.00151971
0.00151971
0.00151971
0.00151971
0.00151971
0.00151971
0.00151971
0.00151971
0.0015197
0.0015197
0.0015197
0.0015197
0.0015197
0.0015197
0.0015197
0.0015197
0.0015197
0.00151971
0.00151971
0.00151971
0.00151971
0.00151971
0.00151971
0.00151971
0.00151971
0.00151971
0.00151971
0.00151971
0.00151971
0.00151971
0.00151972
0.00151971
0.00151974
0.00154201
3.28171e-005
3.28174e-005
3.28175e-005
3.28176e-005
3.28176e-005
3.28177e-005
3.28178e-005
3.28178e-005
3.28179e-005
3.2818e-005
3.28181e-005
3.28182e-005
3.28183e-005
3.28185e-005
3.28186e-005
3.28188e-005
3.28189e-005
3.28191e-005
3.28193e-005
3.28196e-005
3.28198e-005
3.282e-005
3.28203e-005
3.28206e-005
3.28208e-005
3.28211e-005
3.28214e-005
3.28218e-005
3.28221e-005
3.28224e-005
3.28228e-005
3.28231e-005
3.28234e-005
3.28238e-005
3.28242e-005
3.28246e-005
3.2825e-005
3.28255e-005
3.28259e-005
3.28263e-005
3.28267e-005
3.28271e-005
3.28275e-005
3.28279e-005
3.28283e-005
3.28287e-005
3.28291e-005
3.28295e-005
3.28299e-005
3.28303e-005
3.28307e-005
3.28311e-005
3.28315e-005
3.2832e-005
3.28324e-005
3.28328e-005
3.28332e-005
3.28336e-005
3.2834e-005
3.28344e-005
3.28348e-005
3.28351e-005
3.28355e-005
3.28358e-005
3.28361e-005
3.28364e-005
3.28367e-005
3.28369e-005
3.28372e-005
3.28374e-005
3.28377e-005
3.28379e-005
3.28381e-005
3.28383e-005
3.28385e-005
3.28387e-005
3.28389e-005
3.28391e-005
3.28392e-005
3.28394e-005
3.28396e-005
3.28397e-005
3.28398e-005
3.28399e-005
3.284e-005
3.28402e-005
3.28402e-005
3.28403e-005
3.28404e-005
3.28403e-005
3.28403e-005
3.28402e-005
3.28401e-005
3.28399e-005
3.28398e-005
3.28396e-005
3.28393e-005
3.28391e-005
3.28388e-005
3.28385e-005
3.28382e-005
3.28379e-005
3.28375e-005
3.28372e-005
3.28369e-005
3.28367e-005
3.28364e-005
3.28361e-005
3.28359e-005
3.28356e-005
3.28353e-005
3.28352e-005
3.2835e-005
3.28347e-005
3.28344e-005
3.28342e-005
3.2834e-005
3.28338e-005
3.28338e-005
3.28339e-005
3.28342e-005
3.28346e-005
3.28349e-005
3.28353e-005
3.28357e-005
3.2836e-005
3.28363e-005
3.28364e-005
3.28371e-005
3.28368e-005
3.2838e-005
3.28381e-005
3.28391e-005
3.28426e-005
3.28404e-005
3.28476e-005
3.28565e-005
3.25977e-005
3.37406e-005
1.42109e-006
1.42118e-006
1.42126e-006
1.42133e-006
1.42139e-006
1.42146e-006
1.42152e-006
1.42159e-006
1.42165e-006
1.4217e-006
1.42176e-006
1.42182e-006
1.42187e-006
1.42193e-006
1.42198e-006
1.42204e-006
1.42209e-006
1.42214e-006
1.42219e-006
1.42225e-006
1.4223e-006
1.42235e-006
1.42241e-006
1.42246e-006
1.42251e-006
1.42256e-006
1.42262e-006
1.42267e-006
1.42272e-006
1.42278e-006
1.42283e-006
1.42288e-006
1.42294e-006
1.42299e-006
1.42304e-006
1.4231e-006
1.42315e-006
1.42321e-006
1.42326e-006
1.42332e-006
1.42337e-006
1.42343e-006
1.42349e-006
1.42354e-006
1.4236e-006
1.42366e-006
1.42372e-006
1.42378e-006
1.42383e-006
1.42389e-006
1.42395e-006
1.424e-006
1.42406e-006
1.42412e-006
1.42417e-006
1.42423e-006
1.42428e-006
1.42433e-006
1.42438e-006
1.42443e-006
1.42447e-006
1.42452e-006
1.42456e-006
1.4246e-006
1.42465e-006
1.42469e-006
1.42473e-006
1.42477e-006
1.42481e-006
1.42485e-006
1.42489e-006
1.42492e-006
1.42496e-006
1.42499e-006
1.42502e-006
1.42506e-006
1.42509e-006
1.42511e-006
1.42514e-006
1.42517e-006
1.42519e-006
1.42521e-006
1.42524e-006
1.42526e-006
1.42528e-006
1.4253e-006
1.42532e-006
1.42533e-006
1.42535e-006
1.42537e-006
1.42539e-006
1.4254e-006
1.4254e-006
1.42541e-006
1.4254e-006
1.4254e-006
1.42539e-006
1.42538e-006
1.42536e-006
1.42534e-006
1.42532e-006
1.42529e-006
1.42526e-006
1.42523e-006
1.4252e-006
1.42517e-006
1.42513e-006
1.42509e-006
1.42505e-006
1.42501e-006
1.42497e-006
1.42493e-006
1.42491e-006
1.42489e-006
1.42487e-006
1.42485e-006
1.42484e-006
1.42482e-006
1.42481e-006
1.4248e-006
1.42479e-006
1.42478e-006
1.42476e-006
1.42474e-006
1.42472e-006
1.42468e-006
1.42465e-006
1.42462e-006
1.42455e-006
1.42462e-006
1.42443e-006
1.4246e-006
1.42426e-006
1.42481e-006
1.42614e-006
1.42544e-006
1.33485e-006
2.54297e-006
0.000226654
1.19397e-007
1.19412e-007
1.19427e-007
1.19441e-007
1.19454e-007
1.19467e-007
1.19479e-007
1.19491e-007
1.19503e-007
1.19515e-007
1.19526e-007
1.19538e-007
1.1955e-007
1.19561e-007
1.19573e-007
1.19585e-007
1.19597e-007
1.19609e-007
1.19621e-007
1.19634e-007
1.19646e-007
1.19659e-007
1.19671e-007
1.19684e-007
1.19697e-007
1.1971e-007
1.19723e-007
1.19736e-007
1.19749e-007
1.19763e-007
1.19776e-007
1.1979e-007
1.19803e-007
1.19817e-007
1.19831e-007
1.19844e-007
1.19858e-007
1.19871e-007
1.19885e-007
1.19898e-007
1.19912e-007
1.19925e-007
1.19938e-007
1.19952e-007
1.19965e-007
1.19978e-007
1.19991e-007
1.20004e-007
1.20016e-007
1.20029e-007
1.20041e-007
1.20054e-007
1.20066e-007
1.20078e-007
1.2009e-007
1.20102e-007
1.20114e-007
1.20125e-007
1.20137e-007
1.20148e-007
1.20159e-007
1.2017e-007
1.20181e-007
1.20192e-007
1.20202e-007
1.20213e-007
1.20223e-007
1.20233e-007
1.20242e-007
1.20252e-007
1.20261e-007
1.2027e-007
1.20279e-007
1.20288e-007
1.20297e-007
1.20305e-007
1.20313e-007
1.20321e-007
1.20328e-007
1.20336e-007
1.20343e-007
1.20349e-007
1.20356e-007
1.20362e-007
1.20368e-007
1.20373e-007
1.20378e-007
1.20383e-007
1.20388e-007
1.20393e-007
1.20398e-007
1.20402e-007
1.20407e-007
1.20411e-007
1.20415e-007
1.20418e-007
1.20422e-007
1.20424e-007
1.20426e-007
1.20428e-007
1.20429e-007
1.2043e-007
1.2043e-007
1.20429e-007
1.20429e-007
1.20428e-007
1.20426e-007
1.20424e-007
1.20421e-007
1.20418e-007
1.20415e-007
1.20411e-007
1.20407e-007
1.20404e-007
1.20401e-007
1.20396e-007
1.20392e-007
1.20387e-007
1.2038e-007
1.20374e-007
1.20366e-007
1.20357e-007
1.20347e-007
1.20334e-007
1.2032e-007
1.20305e-007
1.20279e-007
1.20271e-007
1.20236e-007
1.20233e-007
1.20216e-007
1.20172e-007
1.20229e-007
1.1987e-007
1.13653e-007
1.12824e-007
7.44914e-007
0.000101613
0.00594774
1.74225e-008
1.74245e-008
1.74269e-008
1.74293e-008
1.74321e-008
1.74342e-008
1.74364e-008
1.74387e-008
1.74408e-008
1.7443e-008
1.74451e-008
1.74473e-008
1.74494e-008
1.74516e-008
1.74537e-008
1.7456e-008
1.74582e-008
1.74605e-008
1.74629e-008
1.74651e-008
1.74674e-008
1.74698e-008
1.74723e-008
1.74748e-008
1.74773e-008
1.74798e-008
1.74823e-008
1.74849e-008
1.74875e-008
1.74901e-008
1.74928e-008
1.74954e-008
1.74981e-008
1.75008e-008
1.75035e-008
1.75063e-008
1.7509e-008
1.75118e-008
1.75146e-008
1.75174e-008
1.75202e-008
1.7523e-008
1.75258e-008
1.75286e-008
1.75314e-008
1.75341e-008
1.75369e-008
1.75396e-008
1.75424e-008
1.75451e-008
1.75478e-008
1.75505e-008
1.75532e-008
1.75558e-008
1.75584e-008
1.75611e-008
1.75636e-008
1.75662e-008
1.75688e-008
1.75713e-008
1.75739e-008
1.75764e-008
1.75788e-008
1.75812e-008
1.75836e-008
1.7586e-008
1.75883e-008
1.75906e-008
1.75928e-008
1.7595e-008
1.75972e-008
1.75993e-008
1.76013e-008
1.76033e-008
1.76053e-008
1.76073e-008
1.76092e-008
1.76111e-008
1.76129e-008
1.76146e-008
1.76164e-008
1.7618e-008
1.76197e-008
1.76212e-008
1.76227e-008
1.76241e-008
1.76255e-008
1.76268e-008
1.76281e-008
1.76293e-008
1.76306e-008
1.76317e-008
1.76329e-008