/*--------------------------------*- C++ -*----------------------------------*\
| =========                 |                                                 |
| \\      /  F ield         | OpenFOAM: The Open Source CFD Toolbox           |
|  \\    /   O peration     | Version:  5.x                                   |
|   \\  /    A nd           | Web:      www.OpenFOAM.org                      |
|    \\/     M anipulation  |                                                 |
\*---------------------------------------------------------------------------*/
/*   Windows 32 and 64 bit porting by blueCAPE: http://www.bluecape.com.pt   *\
|  Based on Windows porting (2.0.x v4) by Symscape: http://www.symscape.com   |
\*---------------------------------------------------------------------------*/
FoamFile
{
    version     2.0;
    format      ascii;
    class       volScalarField;
    location    "110";
    object      k;
}
// * * * * * * * * * * * * * * * * * * * * * * * * * * * * * * * * * * * * * //

dimensions      [0 2 -2 0 0 0 0];

internalField   nonuniform List<scalar> 
43900
(
0.000999006
0.000989857
0.000990224
0.000990196
0.000990118
0.00099012
0.000990116
0.00099013
0.000990128
0.000990133
0.000990134
0.000990135
0.000990136
0.000990136
0.000990137
0.000990138
0.000990138
0.000990139
0.000990139
0.00099014
0.00099014
0.00099014
0.00099014
0.00099014
0.00099014
0.00099014
0.00099014
0.00099014
0.00099014
0.000672204
4.63914e-005
3.88024e-005
3.80643e-005
4.09253e-005
4.09812e-005
4.09516e-005
4.09666e-005
4.09656e-005
4.09741e-005
4.09756e-005
4.09776e-005
4.09795e-005
4.0981e-005
4.09824e-005
4.09837e-005
4.09847e-005
4.09857e-005
4.09865e-005
4.09872e-005
4.09876e-005
4.09879e-005
4.09881e-005
4.09884e-005
4.09886e-005
4.09888e-005
4.0989e-005
4.09892e-005
4.09891e-005
0.263278
0.041728
0.00221401
5.02355e-005
3.57963e-006
3.00994e-006
3.32955e-006
3.37938e-006
3.37559e-006
3.37392e-006
3.37474e-006
3.37578e-006
3.3767e-006
3.37749e-006
3.37818e-006
3.37877e-006
3.37928e-006
3.37972e-006
3.3801e-006
3.38042e-006
3.3807e-006
3.38095e-006
3.38118e-006
3.38138e-006
3.38158e-006
3.38176e-006
3.38193e-006
3.38209e-006
3.38221e-006
0.808529
0.319879
0.0871616
0.0118855
0.000529274
1.29147e-005
7.78925e-007
4.62956e-007
5.01861e-007
5.24853e-007
5.26482e-007
5.2665e-007
5.26845e-007
5.27025e-007
5.27186e-007
5.27332e-007
5.27465e-007
5.27584e-007
5.27697e-007
5.27793e-007
5.27891e-007
5.27982e-007
5.28067e-007
5.28139e-007
5.28215e-007
5.28278e-007
5.28356e-007
5.28421e-007
5.28483e-007
1.21144
0.666888
0.330255
0.124532
0.0291363
0.00281024
0.00010119
2.89572e-006
2.37202e-007
1.32268e-007
1.28312e-007
1.29071e-007
1.29128e-007
1.29158e-007
1.29196e-007
1.2923e-007
1.29261e-007
1.29292e-007
1.29321e-007
1.29354e-007
1.29367e-007
1.29392e-007
1.29416e-007
1.29446e-007
1.29464e-007
1.2949e-007
1.29509e-007
1.29519e-007
1.29533e-007
1.47229
0.912166
0.55145
0.312233
0.147689
0.0461527
0.00709517
0.000363026
1.02299e-005
3.557e-007
1.10711e-007
1.03065e-007
1.02909e-007
1.02909e-007
1.02911e-007
1.02921e-007
1.02942e-007
1.02966e-007
1.02988e-007
1.03025e-007
1.03096e-007
1.03102e-007
1.03108e-007
1.03118e-007
1.03133e-007
1.03175e-007
1.03108e-007
1.03108e-007
1.03111e-007
1.62093
1.06153
0.691588
0.44023
0.264719
0.139762
0.0514183
0.00915192
0.00048495
1.15617e-005
3.9871e-007
1.70122e-007
1.65825e-007
1.65805e-007
1.65805e-007
1.65812e-007
1.65849e-007
1.65894e-007
1.65941e-007
1.66029e-007
1.66169e-007
1.66236e-007
1.66435e-007
1.66363e-007
1.66364e-007
1.66441e-007
1.66116e-007
1.66117e-007
1.6612e-007
1.71894
1.16305
0.788494
0.529851
0.34682
0.214409
0.117012
0.0445439
0.00690001
0.000271693
5.54731e-006
7.14923e-007
6.35533e-007
6.34751e-007
6.34769e-007
6.34975e-007
6.35182e-007
6.35356e-007
6.35599e-007
6.35887e-007
6.36163e-007
6.366e-007
6.38079e-007
6.37091e-007
6.37089e-007
6.37395e-007
6.35246e-007
6.35226e-007
6.35235e-007
1.73791
1.19323
0.824007
0.567608
0.385225
0.252492
0.153953
0.0799568
0.0252117
0.00229927
5.27885e-005
3.49237e-006
2.76304e-006
2.75496e-006
2.75505e-006
2.75613e-006
2.75766e-006
2.76078e-006
2.76115e-006
2.76144e-006
2.76193e-006
2.76307e-006
2.76801e-006
2.76088e-006
2.76089e-006
2.76165e-006
2.75378e-006
2.75251e-006
2.75251e-006
1.73235
1.19827
0.834852
0.581798
0.401368
0.269794
0.171868
0.0978705
0.04178
0.00727248
0.000266181
1.42055e-005
1.05771e-005
1.05362e-005
1.05362e-005
1.05378e-005
1.05444e-005
1.05684e-005
1.05675e-005
1.05675e-005
1.05693e-005
1.05675e-005
1.05784e-005
1.05411e-005
1.05319e-005
1.05272e-005
1.05157e-005
1.05158e-005
1.05164e-005
1.71615
1.19295
0.834752
0.584586
0.406093
0.275936
0.178975
0.105517
0.0495912
0.0113092
0.000617031
4.30863e-005
3.37391e-005
3.36258e-005
3.3626e-005
3.36288e-005
3.36615e-005
3.36599e-005
3.36656e-005
3.36518e-005
3.3652e-005
3.36501e-005
3.36823e-005
3.35887e-005
3.35249e-005
3.35057e-005
3.35054e-005
3.35061e-005
3.35109e-005
1.69046
1.1788
0.828256
0.582182
0.405698
0.276684
0.18063
0.107946
0.0525191
0.0131993
0.000840982
7.19333e-005
5.87078e-005
5.85238e-005
5.85237e-005
5.85111e-005
5.85112e-005
5.8514e-005
5.84755e-005
5.84753e-005
5.84753e-005
5.84764e-005
5.84639e-005
5.83566e-005
5.83123e-005
5.83046e-005
5.83048e-005
5.8285e-005
5.82853e-005
1.65773
1.15748
0.814664
0.574446
0.402035
0.275306
0.180367
0.108274
0.0533876
0.0139634
0.000967079
9.1613e-005
7.52691e-005
7.49763e-005
7.49696e-005
7.49702e-005
7.4988e-005
7.49552e-005
7.49173e-005
7.49172e-005
7.49199e-005
7.49349e-005
7.48717e-005
7.48216e-005
7.48216e-005
7.47734e-005
7.47733e-005
7.47434e-005
7.47435e-005
1.62077
1.1327
0.797935
0.563159
0.39475
0.271294
0.178693
0.107832
0.0534148
0.0142961
0.0010561
0.00010512
8.53063e-005
8.49314e-005
8.49418e-005
8.49298e-005
8.49339e-005
8.48987e-005
8.48839e-005
8.4884e-005
8.48561e-005
8.48548e-005
8.48182e-005
8.48145e-005
8.47838e-005
8.47611e-005
8.47613e-005
8.4712e-005
8.47055e-005
1.58086
1.10569
0.779573
0.550693
0.386358
0.265735
0.175326
0.106344
0.0531011
0.0143608
0.00111785
0.000114509
9.10222e-005
9.055e-005
9.05396e-005
9.05245e-005
9.05245e-005
9.04877e-005
9.04876e-005
9.0489e-005
9.0507e-005
9.04582e-005
9.04322e-005
9.04315e-005
9.04146e-005
9.04143e-005
9.04084e-005
9.03753e-005
9.03795e-005
1.53858
1.07703
0.760049
0.537424
0.377421
0.259824
0.171554
0.104109
0.0522189
0.0142943
0.00116723
0.000121771
9.42001e-005
9.35606e-005
9.3537e-005
9.35371e-005
9.35437e-005
9.35151e-005
9.35151e-005
9.35014e-005
9.35013e-005
9.34756e-005
9.34755e-005
9.34416e-005
9.34415e-005
9.34426e-005
9.34493e-005
9.34289e-005
9.34076e-005
1.494
1.04685
0.739535
0.523524
0.368104
0.253712
0.167695
0.101833
0.0510158
0.0140579
0.00119753
0.0001278
9.59325e-005
9.5099e-005
9.50783e-005
9.5065e-005
9.5055e-005
9.50547e-005
9.50547e-005
9.50571e-005
9.5076e-005
9.50415e-005
9.50343e-005
9.50343e-005
9.50124e-005
9.50074e-005
9.50218e-005
9.49842e-005
9.49783e-005
1.44704
1.01513
0.71803
0.509013
0.358437
0.247431
0.163795
0.0996031
0.0499194
0.0137908
0.00123091
0.000134202
9.70377e-005
9.59355e-005
9.58956e-005
9.58707e-005
9.58879e-005
9.58748e-005
9.5884e-005
9.58593e-005
9.58644e-005
9.5845e-005
9.58449e-005
9.58429e-005
9.58124e-005
9.58321e-005
9.58084e-005
9.58001e-005
9.58194e-005
1.39763
0.981818
0.695503
0.493864
0.348399
0.240965
0.159841
0.097413
0.0489206
0.0136096
0.00128029
0.000141707
9.78614e-005
9.63505e-005
9.63144e-005
9.63155e-005
9.63067e-005
9.63264e-005
9.62922e-005
9.62946e-005
9.62688e-005
9.62647e-005
9.62803e-005
9.62464e-005
9.62854e-005
9.62514e-005
9.62303e-005
9.62644e-005
9.62354e-005
1.34577
0.946909
0.671943
0.478067
0.337976
0.234298
0.155811
0.0952342
0.0480089
0.0134986
0.00135224
0.000151844
9.87286e-005
9.66717e-005
9.65536e-005
9.6569e-005
9.66048e-005
9.65583e-005
9.65914e-005
9.65383e-005
9.65366e-005
9.65621e-005
9.65022e-005
9.6549e-005
9.65334e-005
9.64882e-005
9.65303e-005
9.64964e-005
9.64864e-005
1.29152
0.910424
0.647356
0.461615
0.327156
0.227417
0.151702
0.0930708
0.0471481
0.0135189
0.00145167
0.000164431
9.98141e-005
9.68763e-005
9.68367e-005
9.67873e-005
9.67359e-005
9.67937e-005
9.67484e-005
9.67448e-005
9.67855e-005
9.66946e-005
9.67401e-005
9.67441e-005
9.6677e-005
9.6735e-005
9.67002e-005
9.66592e-005
9.6708e-005
1.23499
0.872436
0.62178
0.444529
0.315951
0.220324
0.147497
0.0908895
0.046361
0.0136118
0.00156847
0.000181024
0.000101228
9.72395e-005
9.69788e-005
9.69242e-005
9.70053e-005
9.69563e-005
9.69224e-005
9.69654e-005
9.68999e-005
9.69274e-005
9.69627e-005
9.68628e-005
9.68979e-005
9.69007e-005
9.68249e-005
9.6901e-005
9.68582e-005
1.17635
0.833035
0.595266
0.42683
0.304362
0.213011
0.143201
0.0887188
0.0456103
0.0137293
0.00171385
0.000202274
0.000103334
9.75085e-005
9.71966e-005
9.72499e-005
9.71745e-005
9.71161e-005
9.72121e-005
9.71309e-005
9.71029e-005
9.71691e-005
9.70729e-005
9.70901e-005
9.71486e-005
9.70285e-005
9.70852e-005
9.70453e-005
9.69945e-005
1.11581
0.792349
0.567882
0.408555
0.292408
0.20549
0.138802
0.0865084
0.0449051
0.0139466
0.00188271
0.00022853
0.000106063
9.79507e-005
9.75493e-005
9.7425e-005
9.73788e-005
9.75119e-005
9.74033e-005
9.73121e-005
9.74344e-005
9.73159e-005
9.7352e-005
9.74116e-005
9.72677e-005
9.73109e-005
9.73067e-005
9.72487e-005
9.7288e-005
1.0537
0.750567
0.539738
0.389758
0.280106
0.19775
0.13429
0.0842877
0.044245
0.0141595
0.00207371
0.000263659
0.000110132
9.87534e-005
9.77767e-005
9.77005e-005
9.78508e-005
9.77207e-005
9.76281e-005
9.77884e-005
9.76442e-005
9.76484e-005
9.7636e-005
9.75508e-005
9.76331e-005
9.75905e-005
9.74937e-005
9.74978e-005
9.75127e-005
0.990296
0.707861
0.510932
0.370495
0.267488
0.189814
0.129673
0.0820091
0.0435718
0.0144606
0.00231537
0.000306852
0.000115777
9.94906e-005
9.82444e-005
9.82411e-005
9.8084e-005
9.8094e-005
9.81786e-005
9.80355e-005
9.80439e-005
9.79735e-005
9.79768e-005
9.79765e-005
9.78826e-005
9.79277e-005
9.79039e-005
9.79154e-005
9.779e-005
0.926042
0.664483
0.481603
0.350829
0.254568
0.181662
0.124918
0.0796842
0.0429238
0.0147781
0.00255484
0.000358927
0.000123186
0.000100898
9.87447e-005
9.85385e-005
9.86459e-005
9.84989e-005
9.84454e-005
9.85173e-005
9.84024e-005
9.84766e-005
9.83538e-005
9.83289e-005
9.83927e-005
9.82452e-005
9.82826e-005
9.81854e-005
9.81559e-005
0.861343
0.620691
0.451909
0.330852
0.241397
0.173319
0.12003
0.0772628
0.0422472
0.0151076
0.00286349
0.0004309
0.000134728
0.00010264
9.94871e-005
9.92115e-005
9.89939e-005
9.90979e-005
9.90736e-005
9.89108e-005
9.90375e-005
9.88648e-005
9.89073e-005
9.89183e-005
9.87422e-005
9.88353e-005
9.86717e-005
9.86468e-005
9.87371e-005
0.79666
0.576756
0.422004
0.310646
0.228008
0.164791
0.115002
0.0747582
0.0414882
0.0154518
0.00317388
0.000508921
0.000147942
0.000105506
0.00010038
9.96711e-005
9.98322e-005
9.96126e-005
9.95766e-005
9.9733e-005
9.95199e-005
9.96136e-005
9.9487e-005
9.93727e-005
9.9494e-005
9.92771e-005
9.93086e-005
9.92482e-005
9.90932e-005
0.732473
0.532975
0.39206
0.290297
0.214432
0.156068
0.109796
0.0721161
0.0407137
0.0157513
0.00350617
0.000607256
0.000167703
0.00010886
0.000101481
0.000100932
0.000100426
0.000100518
0.000100447
0.000100218
0.000100497
0.00010025
0.000100187
0.000100149
0.000100016
0.000100113
9.98775e-005
9.9944e-005
9.98229e-005
0.669287
0.489661
0.362273
0.269923
0.200737
0.147188
0.104427
0.0693062
0.0397239
0.0160064
0.003865
0.000721398
0.000192768
0.000114717
0.000103236
0.000101572
0.000101679
0.000101403
0.000101254
0.000101257
0.000101072
0.000101303
0.000101109
0.000101126
0.000101032
0.000100737
0.00010085
0.000100544
0.000100594
0.607566
0.447113
0.332824
0.249629
0.186968
0.138157
0.0988879
0.0663835
0.038722
0.0161601
0.00420513
0.000853935
0.000224756
0.000121007
0.000105374
0.000103294
0.000102425
0.000102512
0.00010243
0.000102385
0.000102387
0.000102057
0.00010226
0.000101943
0.000101915
0.000101979
0.000101668
0.000101811
0.000101575
0.547767
0.405623
0.303895
0.229517
0.173179
0.12899
0.0931457
0.0631658
0.0373953
0.0161469
0.00453847
0.000989561
0.000260316
0.000131483
0.000108474
0.000104269
0.00010411
0.00010387
0.000103849
0.000103428
0.000103212
0.000103475
0.000103309
0.000103521
0.000103181
0.00010282
0.000103016
0.000102674
0.000102711
0.490327
0.36548
0.275677
0.209709
0.159442
0.119724
0.0872339
0.0598337
0.0360045
0.0160445
0.00478026
0.00113346
0.000309547
0.000143448
0.000112205
0.000107122
0.0001053
0.000105266
0.000105155
0.000105527
0.000105217
0.000104546
0.000104759
0.000104661
0.000104956
0.000104555
0.000103985
0.000104199
0.00010387
0.435617
0.326942
0.248345
0.190321
0.145827
0.1104
0.0811548
0.0561956
0.0342291
0.0157872
0.00502735
0.00128499
0.000356746
0.000159275
0.000117715
0.000108914
0.000107701
0.000107052
0.000107066
0.000106758
0.00010723
0.000106993
0.000106164
0.000106337
0.000106092
0.00010654
0.000106105
0.000105341
0.000105565
0.383956
0.290238
0.222057
0.171459
0.132397
0.101037
0.074898
0.0523936
0.0323438
0.0153264
0.00513857
0.00140701
0.000414085
0.000176816
0.000124974
0.000112676
0.000109454
0.000109338
0.000109148
0.000109414
0.000108881
0.000109066
0.000108814
0.000107945
0.000108092
0.000107869
0.000108561
0.000108051
0.000106954
0.335605
0.255564
0.196963
0.153235
0.119237
0.0917088
0.0685365
0.0482982
0.0300773
0.0145855
0.00512676
0.00152197
0.000467553
0.000198887
0.000131469
0.00011706
0.000113499
0.000111429
0.000111375
0.000111133
0.000111849
0.000111243
0.000111321
0.00011114
0.000110442
0.00011039
0.000109985
0.000110683
0.000110063
0.290752
0.22308
0.173194
0.135753
0.106426
0.0824589
0.0620576
0.0440888
0.0276607
0.0136873
0.00504468
0.00158341
0.000519803
0.000220557
0.000143194
0.000121215
0.000116127
0.000115434
0.00011483
0.000114737
0.000114122
0.000114789
0.000114006
0.000113757
0.000113347
0.00011261
0.00011271
0.00011235
0.000113031
0.249513
0.192902
0.150855
0.119107
0.0940426
0.0733608
0.0555662
0.0396028
0.0249148
0.0124677
0.00484232
0.00161053
0.000558575
0.00024565
0.000151665
0.000128651
0.000120535
0.0001186
0.000118162
0.000117386
0.000117335
0.000117083
0.000118009
0.000117386
0.000117208
0.000116896
0.000115962
0.000115797
0.000115017
0.21194
0.165104
0.13003
0.10338
0.0821642
0.0644689
0.049035
0.0350808
0.0220524
0.0111515
0.00448723
0.00158884
0.000586462
0.000265792
0.000167159
0.000133582
0.0001266
0.000122813
0.000121891
0.000122097
0.000122085
0.000122129
0.000121527
0.00012235
0.000121361
0.000120777
0.000120212
0.000119032
0.000119019
0.178018
0.139723
0.110781
0.0886458
0.0708675
0.0558735
0.0426466
0.0304081
0.0190053
0.0096533
0.00403777
0.00153039
0.000598387
0.00028318
0.00017713
0.000144748
0.000130833
0.000128926
0.000127304
0.000126561
0.000126505
0.00012612
0.000126117
0.000125645
0.000126832
0.000125665
0.000125191
0.000124474
0.000122576
0.147679
0.116756
0.0931455
0.0749682
0.0602315
0.0476467
0.0363375
0.0258143
0.0159504
0.00813532
0.00351009
0.0014155
0.000592314
0.000294725
0.000189185
0.000150955
0.000139742
0.00013286
0.000132846
0.000131768
0.000131698
0.000131967
0.00013194
0.000131765
0.000130947
0.000132049
0.000130578
0.000130306
0.000129264
0.120805
0.0961712
0.0771427
0.0623948
0.0503127
0.0398464
0.0303418
0.0212601
0.0129551
0.00660198
0.00294839
0.00127014
0.000574332
0.000302637
0.000196769
0.000158935
0.000145701
0.000142031
0.000138265
0.000139326
0.000138085
0.000137758
0.000137908
0.00013784
0.000137609
0.000137133
0.000138133
0.000136609
0.00013637
0.0972393
0.0779053
0.0627707
0.0509649
0.0411883
0.0325942
0.0245829
0.0169789
0.0101256
0.00519319
0.00240638
0.00110059
0.000538753
0.00030046
0.000207911
0.00016722
0.000152408
0.000147575
0.000146518
0.000145392
0.000147478
0.000146229
0.000145768
0.00014574
0.00014537
0.0001452
0.000144647
0.000145272
0.00014415
0.0767985
0.0618776
0.0500158
0.04071
0.0329029
0.0259029
0.0193374
0.0129889
0.00760681
0.0039172
0.00190403
0.000930073
0.000491432
0.000295078
0.000210675
0.000177689
0.000159858
0.000154011
0.000153513
0.000153114
0.000152929
0.000155888
0.00015497
0.000155592
0.000155415
0.000154518
0.000154293
0.000152538
0.000152882
0.0592843
0.0479935
0.0388509
0.0316453
0.0255137
0.019922
0.0145036
0.00950237
0.00547189
0.00288872
0.00146954
0.000768326
0.000435146
0.000284055
0.000214872
0.000182922
0.000171548
0.000163544
0.000161941
0.000162637
0.00016251
0.000162451
0.000165988
0.00016491
0.000166891
0.000165942
0.000166007
0.000165624
0.000163193
0.0444945
0.0361508
0.029242
0.0237866
0.0190679
0.0146248
0.0104038
0.00660561
0.00379363
0.0020527
0.00110677
0.000625343
0.000384035
0.000271432
0.000215902
0.00018866
0.000175555
0.000172001
0.000170139
0.000170449
0.000172692
0.000173071
0.000173944
0.000178662
0.00017803
0.000179865
0.000178612
0.000178939
0.000178067
0.0322318
0.0262447
0.021152
0.0171452
0.013581
0.010203
0.00700384
0.00438166
0.00253908
0.00143503
0.000826616
0.000507837
0.000341561
0.000258328
0.000214336
0.000191632
0.000182572
0.000179818
0.000180563
0.000181144
0.000182764
0.000186463
0.000188085
0.000189711
0.0001965
0.000195725
0.000197771
0.000196277
0.000196627
0.0223082
0.0181693
0.0145476
0.0117103
0.00913544
0.00666029
0.00448019
0.0027802
0.00167165
0.000998987
0.000624814
0.000413423
0.000306768
0.000244149
0.000212569
0.000195787
0.000189492
0.000189238
0.000189667
0.000191123
0.000193096
0.00019559
0.000201447
0.000203266
0.000206337
0.00021677
0.000215818
0.000217916
0.000215486
0.014543
0.0118229
0.00938529
0.00751239
0.00573771
0.00409572
0.00272673
0.00174656
0.00109401
0.000709389
0.000482638
0.000350178
0.000278229
0.000235159
0.000210424
0.000201754
0.000197943
0.000197933
0.000198996
0.000201676
0.000203719
0.000208158
0.000212227
0.000222623
0.000226242
0.00023077
0.000245682
0.000244459
0.000247157
0.00876474
0.00710834
0.00563573
0.00449171
0.0033952
0.00241449
0.00164056
0.00109839
0.000746987
0.000525903
0.000387526
0.000306632
0.000256854
0.000229837
0.000211547
0.000206453
0.000206468
0.000206631
0.00020778
0.00021074
0.000215556
0.000219585
0.000227353
0.000233709
0.000249422
0.000256043
0.000263137
0.000282094
0.000278164
0.00479952
0.00392061
0.00316412
0.00255053
0.00194418
0.00141037
0.00101324
0.000723541
0.000534449
0.000410753
0.000325735
0.000281783
0.000245498
0.000229506
0.000217591
0.000215
0.000215158
0.00021652
0.000217288
0.000220527
0.000224496
0.000232413
0.000241543
0.000251417
0.000261847
0.000284556
0.000298262
0.000310928
0.000339829
0.00240086
0.00202892
0.00171754
0.00142864
0.00111856
0.000861946
0.000662682
0.000510038
0.000412874
0.000333485
0.000296059
0.000260371
0.00024463
0.000228809
0.000223937
0.000221743
0.000222325
0.000223895
0.000228159
0.000231673
0.000239963
0.000245825
0.00025892
0.00026679
0.00028017
0.000295704
0.000327374
0.00034124
0.000369144
0.00115544
0.00104417
0.000945103
0.000823866
0.000679669
0.000564077
0.000459605
0.000386628
0.000337776
0.00029548
0.000276198
0.000252223
0.000243725
0.000232744
0.000231758
0.000231076
0.000231398
0.000232798
0.000236483
0.000241184
0.000252033
0.000260508
0.000280474
0.000295447
0.00032649
0.000345307
0.000390836
0.000416611
0.000437634
0.000582467
0.000568135
0.000549747
0.000504027
0.000449734
0.000391322
0.000354594
0.000314872
0.000294574
0.000271455
0.000257898
0.000242857
0.00024079
0.000237572
0.00024047
0.00024717
0.00026959
0.000305144
0.000410569
0.000557708
0.000923085
0.00131461
0.002079
0.0029472
0.00393265
0.00506233
0.00587531
0.00586011
0.00519676
0.000326865
0.000336767
0.000345689
0.00033584
0.000322834
0.000296428
0.000278872
0.00026042
0.000255569
0.000252646
0.000256391
0.000269527
0.000332135
0.00047007
0.0008358
0.00150037
0.0030278
0.00475206
0.00848159
0.0121355
0.0187029
0.0251447
0.0340884
0.0444452
0.0540321
0.0688481
0.0758918
0.0907406
0.0850022
0.000212074
0.000225514
0.000235349
0.000239331
0.000243948
0.000248861
0.000263056
0.000282103
0.00033771
0.000488093
0.000990543
0.00200979
0.00442336
0.00741211
0.013027
0.0199113
0.0302151
0.041474
0.0576358
0.0747414
0.0973358
0.122098
0.152068
0.188558
0.225122
0.28127
0.321025
0.415336
0.422766
0.00015845
0.000170395
0.000192507
0.000229279
0.000377423
0.000490935
0.000956364
0.00150209
0.00290975
0.00549868
0.0109803
0.0178961
0.0285815
0.0410319
0.0575968
0.0772053
0.101527
0.129424
0.163914
0.203057
0.250423
0.305317
0.370656
0.449984
0.540318
0.66503
0.788235
1.02551
1.13918
0.000145625
0.000185883
0.000293499
0.000564871
0.00174523
0.00279133
0.00593619
0.00915685
0.0159532
0.0256144
0.0397738
0.0569748
0.0795501
0.105763
0.138121
0.175786
0.220587
0.272505
0.334754
0.406084
0.491753
0.591173
0.712008
0.855694
1.0333
1.25892
1.53994
1.94364
2.29158
0.00099014
0.00099014
0.00099014
0.00099014
0.00099014
0.00099014
0.00099014
0.00099014
0.00099014
0.00099014
0.000990141
0.000990141
0.000990141
0.000990141
0.000990141
0.000990141
0.000990141
0.000990141
0.000990141
0.000990141
0.000990142
0.000990142
0.000990142
0.000990142
0.000990142
0.000990143
0.000990143
0.000990143
0.000990143
0.000990144
0.000990144
0.000990144
0.000990144
0.000990145
0.000990145
0.000990145
0.000990146
0.000990146
0.000990146
0.000990147
0.000990147
0.000990147
0.000990148
0.000990148
0.000990148
0.000990149
0.000990149
0.000990149
0.000990149
0.00099015
0.00099015
0.00099015
0.000990151
0.000990151
0.000990151
0.000990152
0.000990152
0.000990152
0.000990153
0.000990153
0.000990153
0.000990154
0.000990154
0.000990154
0.000990154
0.000990155
0.000990155
0.000990155
0.000990155
0.000990155
0.000990156
0.000990156
0.000990156
0.000990156
0.000990156
0.000990156
0.000990157
0.000990157
0.000990157
0.000990157
0.000990157
0.000990157
0.000990157
0.000990157
0.000990157
0.000990157
0.000990158
0.000990158
0.000990158
0.000990158
0.000990158
0.000990157
0.000990157
0.000990157
0.000990157
0.000990157
0.000990157
0.000990156
0.000990156
0.000990156
0.000990156
0.000990155
0.000990155
0.000990155
0.000990155
0.000990155
0.000990154
0.000990154
0.000990154
0.000990154
0.000990154
0.000990153
0.000990153
0.000990153
0.000990153
0.000990153
0.000990152
0.000990152
0.000990152
0.000990152
0.000990153
0.000990153
0.000990153
0.000990154
0.000990154
0.000990154
0.000990155
0.000990155
0.000990155
0.000990155
0.000990156
0.000990156
0.000990157
0.00099016
0.000990159
0.000990164
0.000990161
0.000990192
0.00100821
4.09894e-005
4.09897e-005
4.09898e-005
4.099e-005
4.09901e-005
4.09902e-005
4.09904e-005
4.09905e-005
4.09906e-005
4.09907e-005
4.09909e-005
4.09911e-005
4.09912e-005
4.09914e-005
4.09917e-005
4.09919e-005
4.09921e-005
4.09924e-005
4.09927e-005
4.09929e-005
4.09933e-005
4.09936e-005
4.09939e-005
4.09943e-005
4.09947e-005
4.0995e-005
4.09954e-005
4.09958e-005
4.09963e-005
4.09967e-005
4.09971e-005
4.09976e-005
4.0998e-005
4.09984e-005
4.0999e-005
4.09995e-005
4.1e-005
4.10006e-005
4.10011e-005
4.10016e-005
4.10021e-005
4.10027e-005
4.10032e-005
4.10037e-005
4.10042e-005
4.10047e-005
4.10052e-005
4.10057e-005
4.10062e-005
4.10068e-005
4.10073e-005
4.10078e-005
4.10083e-005
4.10089e-005
4.10094e-005
4.10099e-005
4.10105e-005
4.1011e-005
4.10115e-005
4.1012e-005
4.10124e-005
4.10129e-005
4.10133e-005
4.10137e-005
4.10141e-005
4.10144e-005
4.10148e-005
4.10151e-005
4.10155e-005
4.10158e-005
4.10161e-005
4.10164e-005
4.10167e-005
4.10169e-005
4.10172e-005
4.10174e-005
4.10177e-005
4.10179e-005
4.10181e-005
4.10183e-005
4.10185e-005
4.10186e-005
4.10188e-005
4.1019e-005
4.10191e-005
4.10192e-005
4.10194e-005
4.10195e-005
4.10195e-005
4.10195e-005
4.10194e-005
4.10193e-005
4.10192e-005
4.1019e-005
4.10188e-005
4.10185e-005
4.10183e-005
4.1018e-005
4.10176e-005
4.10172e-005
4.10168e-005
4.10164e-005
4.1016e-005
4.10156e-005
4.10152e-005
4.10148e-005
4.10145e-005
4.10141e-005
4.10138e-005
4.10134e-005
4.10131e-005
4.10128e-005
4.10126e-005
4.10123e-005
4.1012e-005
4.10117e-005
4.10114e-005
4.10112e-005
4.10112e-005
4.10114e-005
4.10117e-005
4.10122e-005
4.10126e-005
4.10131e-005
4.10135e-005
4.10139e-005
4.10143e-005
4.10143e-005
4.10152e-005
4.10149e-005
4.10163e-005
4.10166e-005
4.10175e-005
4.10219e-005
4.10188e-005
4.10282e-005
4.10519e-005
4.04467e-005
4.2098e-005
3.38239e-006
3.38261e-006
3.38279e-006
3.38295e-006
3.38312e-006
3.38328e-006
3.38343e-006
3.38358e-006
3.38373e-006
3.38387e-006
3.38401e-006
3.38415e-006
3.38428e-006
3.38441e-006
3.38454e-006
3.38467e-006
3.3848e-006
3.38493e-006
3.38506e-006
3.38518e-006
3.38531e-006
3.38544e-006
3.38557e-006
3.3857e-006
3.38582e-006
3.38595e-006
3.38608e-006
3.38621e-006
3.38634e-006
3.38647e-006
3.38659e-006
3.38672e-006
3.38685e-006
3.38698e-006
3.38711e-006
3.38724e-006
3.38737e-006
3.3875e-006
3.38763e-006
3.38777e-006
3.3879e-006
3.38804e-006
3.38817e-006
3.38831e-006
3.38844e-006
3.38858e-006
3.38872e-006
3.38885e-006
3.38899e-006
3.38913e-006
3.38926e-006
3.3894e-006
3.38953e-006
3.38966e-006
3.38979e-006
3.38992e-006
3.39005e-006
3.39017e-006
3.39028e-006
3.3904e-006
3.3905e-006
3.39061e-006
3.39071e-006
3.39081e-006
3.39091e-006
3.39101e-006
3.39111e-006
3.39121e-006
3.3913e-006
3.39139e-006
3.39148e-006
3.39156e-006
3.39165e-006
3.39173e-006
3.39181e-006
3.39188e-006
3.39195e-006
3.39202e-006
3.39208e-006
3.39214e-006
3.3922e-006
3.39226e-006
3.39231e-006
3.39236e-006
3.39241e-006
3.39245e-006
3.39249e-006
3.39253e-006
3.39257e-006
3.39262e-006
3.39266e-006
3.39268e-006
3.3927e-006
3.39271e-006
3.39271e-006
3.3927e-006
3.39269e-006
3.39266e-006
3.39263e-006
3.39259e-006
3.39253e-006
3.39247e-006
3.39241e-006
3.39234e-006
3.39226e-006
3.39219e-006
3.39211e-006
3.39202e-006
3.39193e-006
3.39183e-006
3.39173e-006
3.39164e-006
3.39158e-006
3.39154e-006
3.3915e-006
3.39146e-006
3.39142e-006
3.39139e-006
3.39136e-006
3.39133e-006
3.39131e-006
3.39128e-006
3.39125e-006
3.39119e-006
3.39115e-006
3.39105e-006
3.39096e-006
3.39089e-006
3.39071e-006
3.39086e-006
3.39041e-006
3.39078e-006
3.39003e-006
3.3914e-006
3.39832e-006
3.39382e-006
3.03644e-006
9.94738e-006
0.00164255
5.2854e-007
5.28615e-007
5.28683e-007
5.28747e-007
5.28806e-007
5.28866e-007
5.28923e-007
5.28978e-007
5.29034e-007
5.29088e-007
5.29142e-007
5.29197e-007
5.29252e-007
5.29307e-007
5.29362e-007
5.29418e-007
5.29474e-007
5.2953e-007
5.29587e-007
5.29645e-007
5.29704e-007
5.29763e-007
5.29822e-007
5.29882e-007
5.29943e-007
5.30003e-007
5.30065e-007
5.30127e-007
5.30189e-007
5.30252e-007
5.30315e-007
5.30378e-007
5.30442e-007
5.30506e-007
5.30571e-007
5.30635e-007
5.30699e-007
5.30763e-007
5.30827e-007
5.3089e-007
5.30953e-007
5.31016e-007
5.31079e-007
5.31141e-007
5.31203e-007
5.31264e-007
5.31325e-007
5.31386e-007
5.31447e-007
5.31506e-007
5.31566e-007
5.31624e-007
5.31682e-007
5.31739e-007
5.31796e-007
5.31851e-007
5.31907e-007
5.31961e-007
5.32015e-007
5.32068e-007
5.32122e-007
5.32174e-007
5.32226e-007
5.32277e-007
5.32327e-007
5.32377e-007
5.32425e-007
5.32472e-007
5.32519e-007
5.32564e-007
5.32609e-007
5.32653e-007
5.32696e-007
5.32737e-007
5.32778e-007
5.32818e-007
5.32856e-007
5.32894e-007
5.3293e-007
5.32966e-007
5.33e-007
5.33032e-007
5.33064e-007
5.33094e-007
5.33123e-007
5.3315e-007
5.33175e-007
5.33198e-007
5.33221e-007
5.33246e-007
5.3327e-007
5.33293e-007
5.33316e-007
5.33337e-007
5.33357e-007
5.33375e-007
5.33391e-007
5.33406e-007
5.33418e-007
5.33429e-007
5.33436e-007
5.33442e-007
5.33446e-007
5.33448e-007
5.33448e-007
5.33446e-007
5.33441e-007
5.33435e-007
5.33426e-007
5.33415e-007
5.33401e-007
5.33385e-007
5.33371e-007
5.33358e-007
5.33343e-007
5.33325e-007
5.33305e-007
5.33282e-007
5.33256e-007
5.33227e-007
5.33193e-007
5.33154e-007
5.33111e-007
5.33056e-007
5.32993e-007
5.32926e-007
5.32812e-007
5.32771e-007
5.32621e-007
5.32589e-007
5.32531e-007
5.32298e-007
5.32622e-007
5.29605e-007
4.77832e-007
4.98793e-007
7.84692e-006
0.00125649
0.0461758
1.29556e-007
1.29568e-007
1.2958e-007
1.29596e-007
1.29615e-007
1.29627e-007
1.2964e-007
1.29655e-007
1.29667e-007
1.2968e-007
1.29693e-007
1.29706e-007
1.29719e-007
1.29732e-007
1.29745e-007
1.29759e-007
1.29772e-007
1.29786e-007
1.29801e-007
1.29813e-007
1.29827e-007
1.29841e-007
1.29856e-007
1.29871e-007
1.29886e-007
1.29901e-007
1.29916e-007
1.29932e-007
1.29948e-007
1.29963e-007
1.29979e-007
1.29995e-007
1.30012e-007
1.30028e-007
1.30044e-007
1.30061e-007
1.30078e-007
1.30095e-007
1.30112e-007
1.30129e-007
1.30146e-007
1.30163e-007
1.3018e-007
1.30197e-007
1.30214e-007
1.30231e-007
1.30248e-007
1.30265e-007
1.30282e-007
1.30298e-007
1.30315e-007
1.30331e-007
1.30348e-007
1.30364e-007
1.3038e-007
1.30397e-007
1.30413e-007
1.30429e-007
1.30445e-007
1.30461e-007
1.30476e-007
1.30492e-007
1.30507e-007
1.30523e-007
1.30538e-007
1.30553e-007
1.30567e-007
1.30581e-007
1.30595e-007
1.30609e-007
1.30623e-007
1.30637e-007
1.30649e-007
1.30662e-007
1.30674e-007
1.30687e-007
1.30699e-007
1.30711e-007
1.30723e-007
1.30734e-007
1.30745e-007
1.30756e-007
1.30766e-007
1.30776e-007
1.30786e-007
1.30795e-007
1.30804e-007
1.30812e-007
1.30821e-007
1.30829e-007
1.30836e-007
1.30844e-007
1.30851e-007
1.30858e-007
1.30865e-007
1.30872e-007
1.30878e-007
1.30883e-007
1.30889e-007
1.30893e-007
1.30898e-007
1.30901e-007
1.30904e-007
1.30906e-007
1.30908e-007
1.30909e-007
1.3091e-007
1.30909e-007
1.30908e-007
1.30906e-007
1.30904e-007
1.309e-007
1.30895e-007
1.30889e-007
1.30883e-007
1.30875e-007
1.30866e-007
1.30856e-007
1.30845e-007
1.30832e-007
1.30819e-007
1.30803e-007
1.30785e-007
1.30765e-007
1.30739e-007
1.30717e-007
1.30679e-007
1.30656e-007
1.30622e-007
1.3057e-007
1.30605e-007
1.30415e-007
1.2982e-007
1.35809e-007
3.23863e-007
1.11004e-005
0.000941652
0.0293631
0.240152
1.03141e-007
1.03067e-007
1.03043e-007
1.0303e-007
1.03019e-007
1.03003e-007
1.02986e-007
1.02968e-007
1.02947e-007
1.02926e-007
1.02903e-007
1.02879e-007
1.02854e-007
1.02828e-007
1.02801e-007
1.02773e-007
1.02744e-007
1.02715e-007
1.02685e-007
1.02652e-007
1.02618e-007
1.02586e-007
1.02552e-007
1.02519e-007
1.02484e-007
1.0245e-007
1.02416e-007
1.02381e-007
1.02345e-007
1.02309e-007
1.02273e-007
1.02238e-007
1.02202e-007
1.02166e-007
1.02129e-007
1.02093e-007
1.02056e-007
1.02019e-007
1.01984e-007
1.01948e-007
1.01912e-007
1.01876e-007
1.01841e-007
1.01806e-007
1.0177e-007
1.01735e-007
1.01701e-007
1.01667e-007
1.01631e-007
1.01598e-007
1.01565e-007