/*--------------------------------*- C++ -*----------------------------------*\
| =========                 |                                                 |
| \\      /  F ield         | OpenFOAM: The Open Source CFD Toolbox           |
|  \\    /   O peration     | Version:  5.x                                   |
|   \\  /    A nd           | Web:      www.OpenFOAM.org                      |
|    \\/     M anipulation  |                                                 |
\*---------------------------------------------------------------------------*/
/*   Windows 32 and 64 bit porting by blueCAPE: http://www.bluecape.com.pt   *\
|  Based on Windows porting (2.0.x v4) by Symscape: http://www.symscape.com   |
\*---------------------------------------------------------------------------*/
FoamFile
{
    version     2.0;
    format      ascii;
    class       volScalarField;
    location    "110";
    object      nut;
}
// * * * * * * * * * * * * * * * * * * * * * * * * * * * * * * * * * * * * * //

dimensions      [0 2 -1 0 0 0 0];

internalField   nonuniform List<scalar> 
43900
(
5.8279e-005
5.80367e-005
5.80676e-005
5.80658e-005
5.80588e-005
5.80589e-005
5.80586e-005
5.80597e-005
5.80595e-005
5.80599e-005
5.806e-005
5.80601e-005
5.80601e-005
5.80602e-005
5.80602e-005
5.80603e-005
5.80603e-005
5.80604e-005
5.80604e-005
5.80604e-005
5.80604e-005
5.80604e-005
5.80604e-005
5.80605e-005
5.80605e-005
5.80605e-005
5.80605e-005
5.80605e-005
5.80605e-005
0.000208369
5.60101e-006
4.28874e-006
4.13411e-006
4.59899e-006
4.608e-006
4.60348e-006
4.60488e-006
4.60487e-006
4.60581e-006
4.60601e-006
4.60626e-006
4.60649e-006
4.60668e-006
4.60685e-006
4.607e-006
4.60713e-006
4.60724e-006
4.60734e-006
4.60742e-006
4.60747e-006
4.6075e-006
4.60753e-006
4.60756e-006
4.6076e-006
4.60762e-006
4.60765e-006
4.60767e-006
4.60766e-006
0.136642
0.035209
0.00266753
3.74802e-005
8.03367e-007
6.16812e-007
7.09101e-007
7.24765e-007
7.23417e-007
7.22756e-007
7.22912e-007
7.2313e-007
7.23324e-007
7.23492e-007
7.23638e-007
7.23764e-007
7.23872e-007
7.23967e-007
7.24047e-007
7.24117e-007
7.24177e-007
7.24231e-007
7.24281e-007
7.24327e-007
7.2437e-007
7.24411e-007
7.24447e-007
7.24483e-007
7.24508e-007
0.432192
0.248499
0.099127
0.0196531
0.00111288
1.77231e-005
3.88327e-007
1.78854e-007
1.95419e-007
2.08828e-007
2.09775e-007
2.09835e-007
2.0991e-007
2.09979e-007
2.1004e-007
2.10096e-007
2.10148e-007
2.10194e-007
2.10237e-007
2.10274e-007
2.10313e-007
2.10349e-007
2.10383e-007
2.10411e-007
2.10442e-007
2.10466e-007
2.105e-007
2.10527e-007
2.10552e-007
0.698497
0.520966
0.348612
0.181256
0.0583295
0.00749907
0.000307083
5.78455e-006
2.25326e-007
9.23034e-008
8.56387e-008
8.63946e-008
8.64415e-008
8.64577e-008
8.64828e-008
8.65053e-008
8.65242e-008
8.65437e-008
8.6562e-008
8.65845e-008
8.65865e-008
8.66031e-008
8.66185e-008
8.66398e-008
8.66501e-008
8.66679e-008
8.66808e-008
8.66833e-008
8.66899e-008
0.90298
0.733012
0.574002
0.418256
0.258634
0.106883
0.0218315
0.00133832
3.85967e-005
7.80038e-007
1.74363e-007
1.57649e-007
1.57293e-007
1.57288e-007
1.5728e-007
1.57279e-007
1.57308e-007
1.57343e-007
1.57378e-007
1.57443e-007
1.57584e-007
1.57579e-007
1.57579e-007
1.5759e-007
1.57613e-007
1.57682e-007
1.57529e-007
1.57529e-007
1.5753e-007
1.0418
0.877329
0.726233
0.581837
0.438815
0.294621
0.143998
0.0333968
0.00211943
5.23559e-005
1.33526e-006
4.20076e-007
4.04749e-007
4.04668e-007
4.04665e-007
4.04669e-007
4.04759e-007
4.04878e-007
4.05015e-007
4.05286e-007
4.05732e-007
4.0591e-007
4.06623e-007
4.06296e-007
4.06291e-007
4.06597e-007
4.0534e-007
4.05341e-007
4.05342e-007
1.14577
0.984348
0.837427
0.699074
0.564441
0.429684
0.29118
0.144913
0.0291804
0.00135129
2.84105e-005
3.56428e-006
3.15052e-006
3.14669e-006
3.14684e-006
3.14868e-006
3.14977e-006
3.15064e-006
3.15227e-006
3.15406e-006
3.15491e-006
3.15504e-006
3.16926e-006
3.15956e-006
3.15943e-006
3.16597e-006
3.14662e-006
3.14643e-006
3.14626e-006
1.18326
1.02727
0.885909
0.754116
0.627217
0.501389
0.373562
0.241368
0.100085
0.0116164
0.000294887
2.34825e-005
1.96473e-005
1.96102e-005
1.96115e-005
1.96252e-005
1.96388e-005
1.96738e-005
1.9672e-005
1.96716e-005
1.96689e-005
1.96561e-005
1.97467e-005
1.96454e-005
1.9645e-005
1.96923e-005
1.95819e-005
1.95639e-005
1.95853e-005
1.20169
1.04658
0.908594
0.780402
0.657598
0.536773
0.414969
0.289737
0.158056
0.0360671
0.00155372
0.000105151
8.61486e-005
8.59739e-005
8.59745e-005
8.59949e-005
8.60739e-005
8.63981e-005
8.63516e-005
8.62738e-005
8.63024e-005
8.61869e-005
8.65446e-005
8.59348e-005
8.59065e-005
8.58495e-005
8.56516e-005
8.57857e-005
8.5921e-005
1.20976
1.05651
0.917616
0.790536
0.670197
0.55222
0.43337
0.31153
0.184862
0.0555283
0.00375789
0.000344107
0.000293874
0.00029341
0.000293412
0.000293365
0.000293961
0.00029392
0.000293954
0.000293647
0.000293498
0.000293586
0.000294616
0.000292981
0.000292317
0.00029198
0.000292089
0.0002925
0.000292641
1.20734
1.05693
0.921371
0.794578
0.673801
0.556439
0.439363
0.319739
0.195342
0.0646941
0.00520464
0.000601422
0.00052968
0.000528685
0.000528684
0.000528618
0.000528618
0.000528654
0.000528153
0.000528147
0.000528426
0.000528841
0.000528648
0.000526708
0.000526333
0.000526106
0.000526789
0.000526601
0.000526604
1.19788
1.04929
0.915917
0.792655
0.674493
0.557703
0.440657
0.321678
0.198983
0.0684464
0.00601001
0.00077513
0.000686603
0.000684689
0.000684599
0.000684495
0.000685118
0.00068452
0.000684083
0.000684083
0.000684475
0.000684751
0.000684065
0.000683153
0.000683151
0.000682773
0.000683265
0.000682732
0.000682732
1.18519
1.03859
0.906822
0.784958
0.668904
0.555272
0.440352
0.321849
0.199326
0.0699866
0.00654162
0.000887758
0.000781519
0.000779169
0.000779346
0.000779448
0.000779617
0.000778971
0.000778936
0.000778935
0.000778877
0.00077897
0.000778335
0.000778266
0.000778054
0.000778029
0.000778343
0.000777436
0.000777184
1.17067
1.02624
0.896319
0.776063
0.661421
0.549023
0.436055
0.32015
0.199056
0.070419
0.00689657
0.000959956
0.000835164
0.000832677
0.000832775
0.000832614
0.000832615
0.000832061
0.000832179
0.000832205
0.000832982
0.000832135
0.000831657
0.000831621
0.000831817
0.000831908
0.000831882
0.000831274
0.000831518
1.15491
1.01279
0.884874
0.766368
0.653266
0.542251
0.4306
0.316115
0.197372
0.0702759
0.0071681
0.00100998
0.000865026
0.000861675
0.000861491
0.00086153
0.000861672
0.000861145
0.000861222
0.000860882
0.000861315
0.000860843
0.000861036
0.000860434
0.000860432
0.000860394
0.000860936
0.000860457
0.000860506
1.13807
0.998443
0.872702
0.7561
0.644686
0.535192
0.424947
0.311785
0.194203
0.0694019
0.00731623
0.00104625
0.000880184
0.000876056
0.000875939
0.000875533
0.000875695
0.00087569
0.00087567
0.000875954
0.000876304
0.000875652
0.000875744
0.000875675
0.000875609
0.000875576
0.000875518
0.000875242
0.000875174
1.12014
0.983222
0.859834
0.745304
0.635739
0.527922
0.419237
0.307551
0.191305
0.0681999
0.00745975
0.00108049
0.000889361
0.000884188
0.000883811
0.000883596
0.000883914
0.000883744
0.000883874
0.000883313
0.000883695
0.000883356
0.00088352
0.000883463
0.000883049
0.000883078
0.000883133
0.000883066
0.000883379
1.10107
0.96707
0.846228
0.733947
0.626394
0.520418
0.41346
0.303426
0.188702
0.06737
0.00768484
0.00111758
0.000894627
0.000887709
0.000887499
0.000887635
0.000887628
0.000887752
0.000887495
0.000887224
0.00088708
0.000887024
0.000887436
0.000887159
0.000887546
0.000887106
0.000886933
0.000887514
0.000887399
1.08078
0.949928
0.831834
0.721983
0.616613
0.512636
0.407562
0.299352
0.186354
0.0667728
0.00803075
0.00116803
0.000899311
0.000890348
0.000889567
0.000889462
0.000890229
0.000889956
0.000890088
0.000889717
0.000889701
0.000889633
0.000889396
0.000889678
0.000889836
0.000889364
0.000889557
0.000889543
0.000889435
1.05921
0.931741
0.816602
0.709366
0.60635
0.504543
0.401526
0.295305
0.184171
0.0668439
0.0085327
0.00123133
0.000904293
0.000891675
0.000891821
0.00089145
0.000891175
0.000891542
0.000891303
0.000891165
0.000891718
0.000890769
0.000891079
0.00089134
0.000890938
0.00089126
0.000891136
0.000890813
0.000891183
1.03631
0.912463
0.800492
0.696066
0.595582
0.49611
0.395303
0.291243
0.182207
0.0672275
0.00912949
0.00131641
0.00091027
0.000894197
0.0008929
0.000892418
0.000892975
0.000892689
0.000892422
0.000892636
0.000892451
0.000892579
0.000892733
0.000892108
0.000892297
0.000892563
0.000892014
0.000892546
0.000892393
1.01203
0.892053
0.783465
0.68204
0.584266
0.487304
0.388895
0.287172
0.180339
0.0677386
0.00987399
0.00142606
0.000919042
0.000895648
0.00089435
0.000894593
0.000894216
0.000893727
0.000894307
0.000893792
0.000893574
0.000894146
0.000893481
0.000893448
0.000893979
0.000893364
0.000893666
0.000893624
0.00089333
0.986342
0.870479
0.76549
0.667261
0.572381
0.478103
0.382247
0.283028
0.178656
0.0686644
0.0107396
0.0015637
0.000929943
0.00089763
0.00089646
0.000895724
0.000895467
0.000896261
0.000895673
0.000894937
0.000895667
0.000895079
0.000895237
0.000895524
0.000894747
0.000895035
0.000895166
0.000894938
0.000895169
0.959228
0.847717
0.746534
0.651689
0.559876
0.468453
0.375341
0.278826
0.177057
0.0695956
0.0117222
0.0017497
0.000946629
0.000901808
0.000897788
0.000897387
0.000898294
0.000897606
0.000897034
0.000897888
0.000897015
0.000897071
0.000897072
0.000896472
0.000896949
0.00089688
0.000896298
0.000896162
0.000896365
0.930675
0.823747
0.726576
0.635302
0.546737
0.458343
0.368129
0.274454
0.175479
0.0709396
0.0129649
0.00197974
0.000970639
0.000904885
0.000900531
0.000900614
0.000899682
0.000899792
0.000900324
0.000899422
0.000899471
0.000899078
0.000899129
0.000899141
0.000898539
0.000898883
0.000898815
0.000898987
0.000898379
0.900689
0.798556
0.705584
0.61805
0.532892
0.447688
0.360557
0.269946
0.17397
0.0723418
0.0141942
0.00225898
0.00100246
0.000910899
0.000902881
0.000902045
0.0009028
0.000902198
0.000901875
0.000902245
0.000901584
0.000901975
0.000901409
0.00090119
0.000901657
0.000900841
0.000901049
0.000900662
0.000900457
0.869288
0.772146
0.683546
0.599914
0.518321
0.436462
0.352555
0.26513
0.172338
0.0738547
0.0157868
0.00264679
0.00105528
0.000917621
0.000906968
0.000906255
0.000904894
0.000905552
0.000905528
0.000904538
0.000905159
0.000904221
0.000904463
0.000904695
0.000903769
0.00090436
0.000903577
0.00090336
0.000903858
0.836504
0.744522
0.660445
0.580858
0.50297
0.424604
0.344085
0.260024
0.170532
0.0754558
0.017381
0.00306759
0.00111637
0.000929505
0.000911509
0.000908888
0.000909731
0.000908608
0.000908266
0.000909187
0.000907968
0.000908516
0.000908046
0.00090734
0.000908029
0.000906912
0.000907153
0.000907061
0.000906095
0.802372
0.71569
0.636261
0.560834
0.486769
0.412018
0.335017
0.254474
0.168548
0.0768643
0.0190945
0.00359979
0.00121393
0.000942562
0.000916882
0.000915837
0.000913229
0.000913721
0.000913595
0.000912116
0.000913584
0.000912331
0.000911929
0.000911801
0.000911069
0.000911642
0.000910542
0.000911001
0.000910583
0.766963
0.685685
0.611
0.539831
0.469691
0.398666
0.325289
0.248342
0.165974
0.0781255
0.0209412
0.00421687
0.00134079
0.000967221
0.000925041
0.000919297
0.000920359
0.000918987
0.000918075
0.000918099
0.000916994
0.000918226
0.000917242
0.00091736
0.000917002
0.000915297
0.000915776
0.0009143
0.00091465
0.730344
0.654539
0.58466
0.517815
0.451676
0.384472
0.314861
0.24172
0.16317
0.0790534
0.0227062
0.00493412
0.00150584
0.000992874
0.000934456
0.000928707
0.000924551
0.00092505
0.000924897
0.000924509
0.000924515
0.000922567
0.00092354
0.000921929
0.000921732
0.000922246
0.000920731
0.000921387
0.000920336
0.692601
0.622295
0.55725
0.494762
0.432671
0.369338
0.303499
0.234104
0.159367
0.0790865
0.0244303
0.00567115
0.00169421
0.00104004
0.000947624
0.000933448
0.000933609
0.000932722
0.000932549
0.00093033
0.000929084
0.000930482
0.000929594
0.000930604
0.000929057
0.000926932
0.000927895
0.000926133
0.000926322
0.653845
0.58902
0.528797
0.470669
0.412646
0.353231
0.291289
0.22587
0.155119
0.0788092
0.0256839
0.0064472
0.00195504
0.00109348
0.000962843
0.000947523
0.000939935
0.000939918
0.000939454
0.000941659
0.000940166
0.000936498
0.000937525
0.00093704
0.00093855
0.000936756
0.000933311
0.000934382
0.00093275
0.614196
0.554793
0.499342
0.445544
0.391584
0.336098
0.27802
0.216432
0.149529
0.0779426
0.0269657
0.00726573
0.00221046
0.00117034
0.000986588
0.000955526
0.000952536
0.000950035
0.000950171
0.000948425
0.00095094
0.000949859
0.000945308
0.000946121
0.000944973
0.000947184
0.000945093
0.000940788
0.000941941
0.573794
0.519707
0.468939
0.419402
0.369454
0.317862
0.263681
0.206102
0.143271
0.0761434
0.0276163
0.00793742
0.00251738
0.0012545
0.00101715
0.000972923
0.000961434
0.000961574
0.000960787
0.000962311
0.00095971
0.000960636
0.000959525
0.000954908
0.000955317
0.000954344
0.000958134
0.000955764
0.000949883
0.532802
0.483882
0.437669
0.392297
0.346297
0.298569
0.24822
0.194437
0.135466
0.073077
0.0275816
0.00855211
0.00280838
0.00136663
0.00104485
0.000992285
0.000982147
0.000972935
0.000973245
0.000971909
0.000975527
0.000972668
0.000973008
0.000972168
0.000969016
0.000968429
0.000965815
0.000969403
0.000967042
0.491403
0.447461
0.405644
0.364308
0.322152
0.27819
0.23164
0.181797
0.126786
0.0692001
0.0272112
0.00889962
0.00308777
0.00147541
0.00109725
0.00100971
0.000993822
0.000993356
0.000991051
0.00099086
0.000987584
0.000990702
0.000987123
0.000985774
0.000983787
0.000980045
0.000980094
0.000978191
0.000981747
0.449799
0.410611
0.372996
0.335539
0.297106
0.256829
0.213967
0.167726
0.116505
0.0637532
0.0262285
0.00903632
0.00329782
0.00160464
0.00113519
0.00104218
0.00101541
0.0010096
0.0010092
0.00100557
0.00100546
0.00100338
0.00100787
0.00100522
0.00100417
0.00100243
0.000997985
0.000996735
0.000992182
0.408215
0.373526
0.339894
0.306138
0.271275
0.234523
0.195226
0.152688
0.105303
0.0576998
0.0244351
0.00892374
0.00344268
0.00170611
0.00120807
0.00106308
0.00104211
0.00103125
0.0010278
0.00102886
0.00102866
0.0010292
0.00102607
0.00102992
0.00102578
0.00102311
0.00102026
0.00101428
0.00101365
0.366902
0.336429
0.306539
0.27629
0.244838
0.211503
0.175672
0.136445
0.0928688
0.0505885
0.0220729
0.00860488
0.00349889
0.0017933
0.00125363
0.00111308
0.00106088
0.00105798
0.00105548
0.00105354
0.00105322
0.00105081
0.00105053
0.00104757
0.00105267
0.00104755
0.00104539
0.00104196
0.00103214
0.326133
0.299574
0.273175
0.246228
0.218013
0.187904
0.15531
0.119447
0.0797871
0.043172
0.0192964
0.00797477
0.00345933
0.00184731
0.00130727
0.00113965
0.00110141
0.00107707
0.00107931
0.0010763
0.00107624
0.0010781
0.00107829
0.00107791
0.00107409
0.0010787
0.00107232
0.00107093
0.00106656
0.286202
0.263245
0.240075
0.216213
0.191047
0.16402
0.134596
0.101728
0.0663265
0.0354847
0.0162877
0.0071566
0.00334855
0.00187791
0.00134104
0.00117308
0.00112796
0.00111905
0.00110807
0.00111385
0.00110929
0.00110781
0.00110853
0.00110837
0.00110762
0.00110437
0.00110828
0.00110165
0.00109997
0.247423
0.227753
0.207549
0.186571
0.164286
0.140169
0.113555
0.0838962
0.0530322
0.0282037
0.0133494
0.0062136
0.00313861
0.00186067
0.00138891
0.00120766
0.00115619
0.00114538
0.00114592
0.0011443
0.00115382
0.00114905
0.00114637
0.00114598
0.00114455
0.00114332
0.00113984
0.00114247
0.00113837
0.210132
0.193438
0.175946
0.157648
0.138057
0.116647
0.0928858
0.0663458
0.0406354
0.0214986
0.0105913
0.00526162
0.00286684
0.00182249
0.00139884
0.00125198
0.00118821
0.00117486
0.00117728
0.00117873
0.00117861
0.00119175
0.00118913
0.00119219
0.00119162
0.00118788
0.00118583
0.00117602
0.00117619
0.174682
0.160665
0.145638
0.129837
0.112784
0.0939485
0.072649
0.0499473
0.0297236
0.0159386
0.00820982
0.00436595
0.0025573
0.00175442
0.00141237
0.00127436
0.00123567
0.00121617
0.00121746
0.00122319
0.00122385
0.00122373
0.00123743
0.0012335
0.00124212
0.00123944
0.00124033
0.00123868
0.00122806
0.14144
0.129818
0.117033
0.103571
0.0888918
0.0723593
0.0540403
0.0356177
0.0208694
0.0114191
0.00622049
0.00357628
0.00227476
0.0016826
0.00141069
0.00129542
0.00125313
0.00125191
0.00125432
0.00125735
0.00126936
0.00127207
0.00127641
0.0012953
0.00129315
0.00129947
0.00129416
0.00129464
0.00129078
0.110797
0.10131
0.0905846
0.0793303
0.0668477
0.0527749
0.0376596
0.0240805
0.0141304
0.00804765
0.00468691
0.00293372
0.00204023
0.00160781
0.00139997
0.00130798
0.0012856
0.00128824
0.00129567
0.00130078
0.00131071
0.00132902
0.00134173
0.00134722
0.00137018
0.00136897
0.00137728
0.00137221
0.00137271
0.0831665
0.0755898
0.0668062
0.0576513
0.0473669
0.0359095
0.0247234
0.0155607
0.00939883
0.00566513
0.00358092
0.00243052
0.00185237
0.00153999
0.00139017
0.00132681
0.00132036
0.00132841
0.00133404
0.00134581
0.0013577
0.00136873
0.00139212
0.00140782
0.00141992
0.00145275
0.00144815
0.00145408
0.00144509
0.0590091
0.0531706
0.0463056
0.0392617
0.0312278
0.0228489
0.0154078
0.00990971
0.00625483
0.00408088
0.00281512
0.00209314
0.0017103
0.00149677
0.00138567
0.00135245
0.00135897
0.00136651
0.00137309
0.00139217
0.0014031
0.00142822
0.00144292
0.00147516
0.00150466
0.00152008
0.00156793
0.00156506
0.00157516
0.0388637
0.0346724
0.0298313
0.0248295
0.0192505
0.0138603
0.00947172
0.00635872
0.00434265
0.00308708
0.00231737
0.00187307
0.00161615
0.00147728
0.00139724
0.0013876
0.00139763
0.00140441
0.0014128
0.00142735
0.00146185
0.00146983
0.00151419
0.00153519
0.00158201
0.00162862
0.00164537
0.00169766
0.00167983
0.0233498
0.0207707
0.0178903
0.0148051
0.0114162
0.00833268
0.00598384
0.0042964
0.00319077
0.00247781
0.00200974
0.00175672
0.00157493
0.00148865
0.00144095
0.00144244
0.0014464
0.00145665
0.00146114
0.00147907
0.00148922
0.00153017
0.00155
0.00159948
0.00163586
0.00170738
0.00177602
0.00181641
0.00191525
0.0128508
0.0116573
0.0103035
0.00866348
0.00680705
0.00524308
0.00403135
0.0031322
0.00254087
0.00209993
0.00186601
0.00167862
0.0015855
0.00150906
0.0014835
0.00148015
0.00148405
0.00149338
0.00151719
0.00153517
0.00157498
0.00160343
0.00166317
0.0016778
0.00172227
0.00176383
0.00186629
0.00191084
0.00195706
0.00681535
0.00648674
0.00598741
0.00522632
0.00429407
0.00356038
0.00291419
0.00246447
0.00215961
0.00191137
0.00178333
0.00165695
0.00160189
0.00155265
0.00155571
0.00154912
0.00154748
0.00154787
0.00155444
0.00156462
0.00158653
0.00158856
0.00160835
0.00157981
0.00156366
0.00151826
0.00153081
0.00159685
0.00169257
0.00378409
0.00379708
0.0036782
0.00336505
0.00294986
0.00258832
0.00232612
0.00208959
0.00195352
0.00182339
0.00173288
0.00164275
0.00161833
0.00157795
0.00156602
0.00152378
0.00143868
0.0012981
0.00124617
0.00132774
0.00174537
0.00215424
0.00302903
0.0037526
0.00473477
0.00530164
0.00590495
0.00503348
0.00431196
0.00232977
0.00241487
0.00244325
0.00235925
0.00223285
0.00203747
0.00192847
0.00179455
0.00173855
0.00168439
0.00163739
0.00151943
0.00136825
0.00139614
0.00187752
0.00275586
0.00487515
0.00677652
0.0108602
0.0143808
0.0199055
0.0247789
0.0305612
0.0366017
0.041084
0.0473415
0.0484958
0.0505349
0.0443769
0.00163259
0.0017144
0.00175996
0.0017602
0.00176087
0.00174033
0.0017158
0.00164149
0.00152769
0.00157261
0.00228739
0.00380409
0.00727304
0.0105952
0.0165303
0.0228159
0.0310243
0.038979
0.0489321
0.0585941
0.0693674
0.080726
0.091488
0.105468
0.114468
0.131981
0.137415
0.160009
0.143151
0.00129508
0.00136395
0.00148126
0.0015999
0.00218992
0.0021582
0.00304133
0.00362869
0.00563962
0.00886419
0.0152264
0.0216208
0.0299008
0.0384838
0.0483359
0.0588733
0.0703505
0.0824096
0.0953166
0.109312
0.123426
0.139882
0.154965
0.175316
0.190335
0.218182
0.230119
0.276031
0.265618
0.00120077
0.0013733
0.00171242
0.00234783
0.00578826
0.00675262
0.0110701
0.013495
0.0195493
0.0269951
0.035603
0.0452487
0.0557467
0.0672231
0.0794024
0.0924706
0.106287
0.121275
0.136945
0.154368
0.171923
0.192572
0.212112
0.237956
0.2592
0.295058
0.316857
0.37321
0.373214
5.80605e-005
5.80605e-005
5.80605e-005
5.80605e-005
5.80605e-005
5.80605e-005
5.80605e-005
5.80605e-005
5.80605e-005
5.80605e-005
5.80605e-005
5.80605e-005
5.80605e-005
5.80605e-005
5.80605e-005
5.80605e-005
5.80605e-005
5.80605e-005
5.80606e-005
5.80606e-005
5.80606e-005
5.80606e-005
5.80606e-005
5.80606e-005
5.80606e-005
5.80607e-005
5.80607e-005
5.80607e-005
5.80607e-005
5.80607e-005
5.80608e-005
5.80608e-005
5.80608e-005
5.80608e-005
5.80608e-005
5.80609e-005
5.80609e-005
5.80609e-005
5.80609e-005
5.8061e-005
5.8061e-005
5.8061e-005
5.8061e-005
5.80611e-005
5.80611e-005
5.80611e-005
5.80611e-005
5.80612e-005
5.80612e-005
5.80612e-005
5.80612e-005
5.80613e-005
5.80613e-005
5.80613e-005
5.80613e-005
5.80614e-005
5.80614e-005
5.80614e-005
5.80614e-005
5.80615e-005
5.80615e-005
5.80615e-005
5.80615e-005
5.80615e-005
5.80616e-005
5.80616e-005
5.80616e-005
5.80616e-005
5.80616e-005
5.80616e-005
5.80617e-005
5.80617e-005
5.80617e-005
5.80617e-005
5.80617e-005
5.80617e-005
5.80617e-005
5.80617e-005
5.80617e-005
5.80618e-005
5.80618e-005
5.80618e-005
5.80618e-005
5.80618e-005
5.80618e-005
5.80618e-005
5.80618e-005
5.80618e-005
5.80618e-005
5.80618e-005
5.80618e-005
5.80618e-005
5.80618e-005
5.80618e-005
5.80618e-005
5.80618e-005
5.80617e-005
5.80617e-005
5.80617e-005
5.80617e-005
5.80617e-005
5.80616e-005
5.80616e-005
5.80616e-005
5.80616e-005
5.80616e-005
5.80616e-005
5.80615e-005
5.80615e-005
5.80615e-005
5.80615e-005
5.80615e-005
5.80615e-005
5.80615e-005
5.80614e-005
5.80614e-005
5.80614e-005
5.80614e-005
5.80614e-005
5.80614e-005
5.80614e-005
5.80614e-005
5.80615e-005
5.80615e-005
5.80615e-005
5.80615e-005
5.80616e-005
5.80616e-005
5.80616e-005
5.80616e-005
5.80617e-005
5.80617e-005
5.80618e-005
5.8062e-005
5.80619e-005
5.80623e-005
5.8062e-005
5.80647e-005
5.93279e-005
4.6077e-006
4.60774e-006
4.60776e-006
4.60778e-006
4.6078e-006
4.60782e-006
4.60783e-006
4.60785e-006
4.60787e-006
4.60789e-006
4.60791e-006
4.60793e-006
4.60796e-006
4.60798e-006
4.60801e-006
4.60804e-006
4.60807e-006
4.6081e-006
4.60813e-006
4.60817e-006
4.6082e-006
4.60824e-006
4.60828e-006
4.60832e-006
4.60837e-006
4.60841e-006
4.60846e-006
4.60851e-006
4.60855e-006
4.6086e-006
4.60865e-006
4.60871e-006
4.60876e-006
4.60881e-006
4.60887e-006
4.60893e-006
4.60899e-006
4.60905e-006
4.60911e-006
4.60917e-006
4.60923e-006
4.60929e-006
4.60935e-006
4.60941e-006
4.60946e-006
4.60952e-006
4.60958e-006
4.60964e-006
4.6097e-006
4.60976e-006
4.60982e-006
4.60988e-006
4.60994e-006
4.61e-006
4.61006e-006
4.61012e-006
4.61018e-006
4.61024e-006
4.6103e-006
4.61036e-006
4.61041e-006
4.61046e-006
4.6105e-006
4.61055e-006
4.61059e-006
4.61064e-006
4.61068e-006
4.61072e-006
4.61075e-006
4.61079e-006
4.61083e-006
4.61086e-006
4.61089e-006
4.61092e-006
4.61095e-006
4.61098e-006
4.61101e-006
4.61103e-006
4.61105e-006
4.61108e-006
4.6111e-006
4.61112e-006
4.61114e-006
4.61115e-006
4.61117e-006
4.61118e-006
4.6112e-006
4.61121e-006
4.61122e-006
4.61121e-006
4.61121e-006
4.6112e-006
4.61118e-006
4.61116e-006
4.61114e-006
4.61111e-006
4.61108e-006
4.61104e-006
4.61101e-006
4.61096e-006
4.61091e-006
4.61086e-006
4.61081e-006
4.61077e-006
4.61072e-006
4.61068e-006
4.61064e-006
4.6106e-006
4.61056e-006
4.61052e-006
4.61047e-006
4.61044e-006
4.61042e-006
4.61038e-006
4.61035e-006
4.61032e-006
4.61029e-006
4.61027e-006
4.61027e-006
4.61029e-006
4.61033e-006
4.61038e-006
4.61043e-006
4.61048e-006
4.61053e-006
4.61057e-006
4.61061e-006
4.61062e-006
4.61071e-006
4.61068e-006
4.61082e-006
4.61086e-006
4.61094e-006
4.61145e-006
4.61104e-006
4.61214e-006
4.61624e-006
4.51671e-006
4.72729e-006
7.24548e-007
7.24595e-007
7.24634e-007
7.24671e-007
7.24707e-007
7.24742e-007
7.24775e-007
7.24807e-007
7.2484e-007
7.24871e-007
7.24901e-007
7.24931e-007
7.2496e-007
7.24989e-007
7.25017e-007
7.25046e-007
7.25074e-007
7.25102e-007
7.2513e-007
7.25157e-007
7.25185e-007
7.25213e-007
7.25241e-007
7.25269e-007
7.25297e-007
7.25324e-007
7.25352e-007
7.2538e-007
7.25408e-007
7.25436e-007
7.25464e-007
7.25492e-007
7.2552e-007
7.25548e-007
7.25576e-007
7.25603e-007
7.25631e-007
7.2566e-007
7.25688e-007
7.25717e-007
7.25746e-007
7.25775e-007
7.25804e-007
7.25833e-007
7.25862e-007
7.25892e-007
7.25921e-007
7.2595e-007
7.25979e-007
7.26008e-007
7.26037e-007
7.26065e-007
7.26094e-007
7.26122e-007
7.2615e-007
7.26177e-007
7.26203e-007
7.26229e-007
7.26254e-007
7.26278e-007
7.263e-007
7.26322e-007
7.26344e-007
7.26366e-007
7.26387e-007
7.26409e-007
7.2643e-007
7.2645e-007
7.2647e-007
7.26489e-007
7.26508e-007
7.26527e-007
7.26545e-007
7.26562e-007
7.26579e-007
7.26594e-007
7.26609e-007
7.26623e-007
7.26637e-007
7.2665e-007
7.26662e-007
7.26674e-007
7.26686e-007
7.26696e-007
7.26706e-007
7.26715e-007
7.26723e-007
7.26731e-007
7.2674e-007
7.2675e-007
7.26758e-007
7.26764e-007
7.26769e-007
7.26772e-007
7.26772e-007
7.26771e-007
7.26769e-007
7.26764e-007
7.26758e-007
7.26749e-007
7.26739e-007
7.26726e-007
7.26713e-007
7.26699e-007
7.26684e-007
7.26668e-007
7.26651e-007
7.26633e-007
7.26614e-007
7.26594e-007
7.26573e-007
7.26553e-007
7.26541e-007
7.26532e-007
7.26524e-007
7.26517e-007
7.2651e-007
7.26503e-007
7.26496e-007
7.26491e-007
7.26485e-007
7.26479e-007
7.26472e-007
7.2646e-007
7.26449e-007
7.26427e-007
7.26406e-007
7.26392e-007
7.26347e-007
7.2638e-007
7.26283e-007
7.26357e-007
7.26209e-007
7.26511e-007
7.288e-007
7.27231e-007
6.21642e-007
3.50202e-006
0.00107132
2.10575e-007
2.10607e-007
2.10635e-007
2.10661e-007
2.10686e-007
2.10711e-007
2.10734e-007
2.10757e-007
2.10781e-007
2.10804e-007
2.10826e-007
2.10849e-007
2.10872e-007
2.10895e-007
2.10918e-007
2.10942e-007
2.10965e-007
2.10989e-007
2.11013e-007
2.11037e-007
2.11062e-007
2.11087e-007
2.11112e-007
2.11137e-007
2.11163e-007
2.11188e-007
2.11214e-007
2.1124e-007
2.11267e-007
2.11293e-007
2.1132e-007
2.11346e-007
2.11373e-007
2.114e-007
2.11427e-007
2.11454e-007
2.11482e-007
2.11509e-007
2.11535e-007
2.11562e-007
2.11589e-007
2.11616e-007
2.11642e-007
2.11668e-007
2.11695e-007
2.11721e-007
2.11747e-007
2.11772e-007
2.11798e-007
2.11823e-007
2.11848e-007
2.11873e-007
2.11897e-007
2.11922e-007
2.11946e-007
2.11969e-007
2.11993e-007
2.12016e-007
2.12039e-007
2.12061e-007
2.12084e-007
2.12107e-007
2.12128e-007
2.1215e-007
2.12172e-007
2.12193e-007
2.12213e-007
2.12234e-007
2.12253e-007
2.12273e-007
2.12292e-007
2.1231e-007
2.12329e-007
2.12347e-007
2.12364e-007
2.12381e-007
2.12398e-007
2.12414e-007
2.1243e-007
2.12445e-007
2.1246e-007
2.12474e-007
2.12488e-007
2.12501e-007
2.12513e-007
2.12525e-007
2.12536e-007
2.12547e-007
2.12557e-007
2.12568e-007
2.12578e-007
2.12588e-007
2.12598e-007
2.12608e-007
2.12617e-007
2.12625e-007
2.12633e-007
2.1264e-007
2.12646e-007
2.12651e-007
2.12656e-007
2.12659e-007
2.12662e-007
2.12664e-007
2.12665e-007
2.12665e-007
2.12665e-007
2.12663e-007
2.12661e-007
2.12657e-007
2.12653e-007
2.12647e-007
2.12642e-007
2.12637e-007
2.12631e-007
2.12624e-007
2.12616e-007
2.12608e-007
2.12597e-007
2.12586e-007
2.12573e-007
2.12558e-007
2.12541e-007
2.12519e-007
2.12494e-007
2.12467e-007
2.12422e-007
2.12404e-007
2.12346e-007
2.12325e-007
2.1231e-007
2.12202e-007
2.12359e-007
2.1059e-007
1.80806e-007
1.98464e-007
7.43934e-006
0.00139833
0.032264
8.67056e-008
8.67114e-008
8.67162e-008
8.67246e-008
8.67369e-008
8.67423e-008
8.67485e-008
8.67577e-008
8.67632e-008
8.67698e-008
8.67762e-008
8.67834e-008
8.67898e-008
8.67967e-008
8.68033e-008
8.68102e-008
8.6817e-008
8.68238e-008
8.6832e-008
8.68379e-008
8.68446e-008
8.68518e-008
8.68593e-008
8.68671e-008
8.68748e-008
8.68824e-008
8.68904e-008
8.68987e-008
8.69062e-008
8.6914e-008
8.69225e-008
8.69309e-008
8.69393e-008
8.69476e-008
8.69562e-008
8.69651e-008
8.69734e-008
8.69821e-008
8.6991e-008
8.69999e-008
8.7009e-008
8.7018e-008
8.70269e-008
8.7036e-008
8.70447e-008
8.70534e-008
8.70624e-008
8.70715e-008
8.70804e-008
8.7089e-008
8.70978e-008
8.71068e-008
8.71159e-008
8.71243e-008
8.71327e-008
8.71414e-008
8.71501e-008
8.71587e-008
8.71674e-008
8.71759e-008
8.71846e-008
8.71934e-008
8.72014e-008
8.72098e-008
8.7218e-008
8.72261e-008
8.7234e-008
8.72419e-008
8.72496e-008
8.72572e-008
8.72648e-008
8.72724e-008
8.72792e-008
8.72859e-008
8.7293e-008
8.73e-008
8.73069e-008
8.73137e-008
8.73203e-008
8.73266e-008
8.73328e-008
8.73389e-008
8.73449e-008
8.73504e-008
8.73561e-008
8.73609e-008
8.73658e-008
8.73707e-008
8.73755e-008
8.73799e-008
8.73844e-008
8.73887e-008
8.73929e-008
8.73971e-008
8.74012e-008
8.74047e-008
8.74082e-008
8.74117e-008
8.74151e-008
8.74178e-008
8.74208e-008
8.74227e-008
8.74252e-008
8.74259e-008
8.74271e-008
8.74281e-008
8.74289e-008
8.7429e-008
8.74288e-008
8.74281e-008
8.74269e-008
8.74252e-008
8.74227e-008
8.74196e-008
8.74157e-008
8.74113e-008
8.74061e-008
8.74005e-008
8.73943e-008
8.73874e-008
8.73798e-008
8.73712e-008
8.73611e-008
8.73498e-008
8.73356e-008
8.73239e-008
8.73026e-008
8.72904e-008
8.72695e-008
8.72428e-008
8.72589e-008
8.71518e-008
8.64616e-008
9.72184e-008
3.46812e-007
2.05361e-005
0.00155815
0.0329352
0.168547
1.57584e-007
1.57425e-007
1.57369e-007
1.57333e-007
1.573e-007
1.57259e-007
1.57216e-007
1.57172e-007
1.57119e-007
1.57066e-007
1.57011e-007
1.56954e-007
1.56893e-007
1.56831e-007
1.56767e-007
1.56701e-007
1.56632e-007
1.56563e-007
1.56492e-007
1.56414e-007
1.56336e-007
1.5626e-007
1.56182e-007
1.56103e-007
1.56023e-007
1.55943e-007
1.55862e-007
1.55784e-007
1.55698e-007
1.55613e-007
1.55529e-007
1.55445e-007
1.5536e-007
1.55276e-007
1.55189e-007
1.55103e-007
1.55016e-007
1.54928e-007
1.54845e-007
1.54759e-007
1.54673e-007
1.54588e-007
1.54503e-007
1.54418e-007
1.54333e-007
1.5425e-007
1.54166e-007
1.54082e-007
1.53997e-007
1.53915e-007
1.53836e-007
1.53756e-007
1.53677e-007
1.53594e-007
1.53515e-007
1.53438e-007
1.53363e-007
1.53288e-007
1.53213e-007
1.5314e-007
1.53068e-007
1.52996e-007
1.52926e-007
1.52856e-007
1.52784e-007
1.52717e-007
1.5265e-007
1.52585e-007
1.5252e-007
1.52456e-007
1.52396e-007
1.52334e-007
1.52269e-007
1.52209e-007
1.5215e-007
1.52092e-007
1.52036e-007
1.51981e-007
1.5193e-007
1.51877e-007
1.51824e-007
1.51773e-007
1.51722e-007
1.51671e-007
1.51622e-007
1.51573e-007
1.51526e-007
1.51481e-007
1.5144e-007
1.51397e-007
1.51355e-007
1.51314e-007
1.51274e-007
1.51235e-007
1.512e-007
1.51163e-007
1.51128e-007
1.51094e-007
1.51062e-007
1.5103e-007
1.51001e-007
1.50971e-007
1.50946e-007
1.50919e-007
1.5089e-007