/*--------------------------------*- C++ -*----------------------------------*\
| =========                 |                                                 |
| \\      /  F ield         | OpenFOAM: The Open Source CFD Toolbox           |
|  \\    /   O peration     | Version:  5.x                                   |
|   \\  /    A nd           | Web:      www.OpenFOAM.org                      |
|    \\/     M anipulation  |                                                 |
\*---------------------------------------------------------------------------*/
/*   Windows 32 and 64 bit porting by blueCAPE: http://www.bluecape.com.pt   *\
|  Based on Windows porting (2.0.x v4) by Symscape: http://www.symscape.com   |
\*---------------------------------------------------------------------------*/
FoamFile
{
    version     2.0;
    format      ascii;
    class       volScalarField;
    location    "110";
    object      p;
}
// * * * * * * * * * * * * * * * * * * * * * * * * * * * * * * * * * * * * * //

dimensions      [0 2 -2 0 0 0 0];

internalField   nonuniform List<scalar> 
43900
(
0.431867
0.431663
0.431527
0.431395
0.431234
0.430969
0.430812
0.430495
0.430243
0.429956
0.429641
0.429331
0.429005
0.428668
0.428323
0.42797
0.427609
0.427241
0.426867
0.426486
0.4261
0.425708
0.425311
0.424909
0.424502
0.424091
0.423676
0.423256
0.422833
0.430237
0.43738
0.431998
0.43485
0.432723
0.433366
0.432596
0.432396
0.432041
0.431639
0.431282
0.430897
0.430509
0.43012
0.429727
0.429332
0.428933
0.428531
0.428125
0.427716
0.427304
0.426888
0.42647
0.426048
0.425624
0.425196
0.424765
0.424332
0.423895
0.424615
0.444527
0.433639
0.440138
0.43473
0.437483
0.434985
0.435445
0.43442
0.43402
0.433508
0.432995
0.432507
0.432028
0.431556
0.431089
0.430626
0.430167
0.429709
0.429254
0.428799
0.428344
0.427889
0.427433
0.426976
0.426518
0.426058
0.425597
0.425134
0.418823
0.444427
0.438215
0.438223
0.437649
0.437348
0.436128
0.436171
0.435279
0.434973
0.434395
0.43389
0.433389
0.432889
0.432391
0.431896
0.431404
0.430914
0.430425
0.429938
0.429452
0.428966
0.42848
0.427994
0.427506
0.427018
0.426529
0.426038
0.425545
0.419417
0.442426
0.437491
0.43675
0.436836
0.436505
0.436249
0.436006
0.435525
0.435234
0.434812
0.434421
0.434015
0.433599
0.433175
0.432742
0.432302
0.431855
0.431403
0.430945
0.430482
0.430013
0.42954
0.429063
0.428581
0.428094
0.427603
0.427108
0.426609
0.424351
0.441389
0.438363
0.438138
0.438076
0.43765
0.437457
0.437225
0.436957
0.436743
0.436472
0.436203
0.435919
0.43562
0.435304
0.434972
0.434626
0.434266
0.433892
0.433505
0.433105
0.432692
0.432269
0.431834
0.431389
0.430933
0.430467
0.429992
0.429507
0.430343
0.442718
0.440919
0.440537
0.440546
0.440431
0.44025
0.439956
0.43972
0.439522
0.439294
0.439063
0.438819
0.438557
0.43828
0.437988
0.437681
0.437358
0.437019
0.436665
0.436296
0.435912
0.435514
0.4351
0.434672
0.434231
0.433775
0.433306
0.432825
0.43757
0.445179
0.444304
0.443879
0.443747
0.443623
0.443438
0.443162
0.442912
0.442656
0.4424
0.442143
0.441874
0.441588
0.441285
0.440966
0.440631
0.44028
0.439913
0.439529
0.439129
0.438713
0.438281
0.437833
0.43737
0.436891
0.436397
0.435888
0.435364
0.445998
0.449605
0.449239
0.448819
0.448539
0.448284
0.448004
0.447693
0.447361
0.446995
0.446667
0.446368
0.446054
0.445721
0.445369
0.445
0.444612
0.444206
0.443783
0.443342
0.442884
0.442409
0.441917
0.441408
0.440882
0.44034
0.439781
0.439205
0.438612
0.454316
0.456543
0.456279
0.45586
0.455523
0.455203
0.454857
0.454482
0.454092
0.453683
0.453321
0.453012
0.452686
0.452334
0.451955
0.451552
0.451123
0.45067
0.450194
0.449694
0.449172
0.448628
0.448063
0.447476
0.446868
0.446241
0.445594
0.444928
0.444244
0.463627
0.464842
0.464608
0.464217
0.463863
0.46351
0.463129
0.462713
0.462275
0.461844
0.461464
0.461143
0.460809
0.460443
0.460043
0.459611
0.459147
0.458651
0.458125
0.45757
0.456985
0.456372
0.455732
0.455064
0.454371
0.453652
0.452908
0.45214
0.451349
0.473705
0.474085
0.47381
0.473423
0.473037
0.472631
0.472183
0.471685
0.471147
0.470614
0.470145
0.469744
0.469337
0.468896
0.46842
0.467909
0.467363
0.466783
0.46617
0.465524
0.464845
0.464135
0.463393
0.462622
0.46182
0.46099
0.460131
0.459245
0.458332
0.484607
0.484543
0.484174
0.483745
0.483301
0.482824
0.482294
0.481699
0.481044
0.480383
0.479792
0.479276
0.478757
0.478201
0.477607
0.476975
0.476305
0.475598
0.474854
0.474074
0.473259
0.472409
0.471524
0.470606
0.469654
0.468671
0.467655
0.46661
0.465534
0.496528
0.496288
0.495836
0.495348
0.494837
0.494282
0.493668
0.492981
0.49222
0.491448
0.490749
0.490129
0.489504
0.488834
0.48812
0.48736
0.486556
0.485709
0.484818
0.483887
0.482914
0.481901
0.480848
0.479757
0.478629
0.477463
0.476263
0.475027
0.473757
0.509571
0.50924
0.508721
0.508173
0.507594
0.506959
0.506253
0.505466
0.504599
0.503715
0.502908
0.502186
0.501452
0.50067
0.499831
0.498941
0.497997
0.497001
0.495958
0.494861
0.49372
0.49253
0.491294
0.490017
0.488691
0.487328
0.485921
0.484474
0.482991
0.523728
0.523348
0.522761
0.522141
0.521481
0.520756
0.519947
0.519041
0.51804
0.517018
0.516079
0.515228
0.514369
0.513444
0.512463
0.511415
0.510308
0.509144
0.507915
0.506639
0.505297
0.503906
0.502466
0.500963
0.499424
0.497827
0.496184
0.494503
0.492768
0.539014
0.538601
0.537942
0.537236
0.536482
0.53565
0.534719
0.533673
0.532516
0.531325
0.53023
0.529229
0.528208
0.527125
0.525959
0.524732
0.523431
0.522058
0.520631
0.519115
0.517555
0.51593
0.51423
0.512499
0.510685
0.508827
0.506929
0.504957
0.502955
0.555434
0.554995
0.554256
0.553453
0.552593
0.551641
0.550572
0.54937
0.548036
0.54667
0.545381
0.544206
0.543013
0.541734
0.540381
0.538924
0.537397
0.535804
0.5341
0.532357
0.530537
0.528623
0.526671
0.524611
0.522516
0.520376
0.518132
0.515874
0.513542
0.572966
0.5725
0.571673
0.570764
0.569786
0.568699
0.567476
0.566098
0.564568
0.562973
0.561511
0.560147
0.558752
0.557257
0.55564
0.553954
0.552206
0.55031
0.548357
0.546317
0.544173
0.541993
0.539669
0.537319
0.534914
0.532372
0.529829
0.527197
0.524484
0.59156
0.591066
0.590144
0.589119
0.58801
0.586776
0.585383
0.58381
0.582064
0.580274
0.578543
0.576943
0.57533
0.573578
0.571732
0.569804
0.56771
0.565557
0.563274
0.560891
0.558484
0.555881
0.553256
0.550573
0.547709
0.54486
0.541914
0.538842
0.535774
0.611156
0.610634
0.60961
0.608459
0.607208
0.605811
0.604231
0.602447
0.600452
0.598352
0.596398
0.594609
0.592716
0.590684
0.588562
0.586279
0.583926
0.5814
0.578766
0.576101
0.573212
0.570289
0.567315
0.564094
0.560909
0.557633
0.554152
0.550722
0.547177
0.631658
0.631105
0.629972
0.628684
0.627278
0.625701
0.623911
0.621881
0.619626
0.6173
0.615079
0.612938
0.610749
0.608475
0.605999
0.603417
0.600651
0.597751
0.594844
0.591658
0.588396
0.585127
0.58153
0.577982
0.574391
0.570469
0.566654
0.56272
0.55857
0.652986
0.652403
0.651157
0.649729
0.648161
0.646398
0.644397
0.642132
0.639589
0.636874
0.634315
0.631916
0.629473
0.626807
0.624013
0.62101
0.617835
0.614726
0.611213
0.607555
0.604011
0.600037
0.596085
0.592184
0.587772
0.583508
0.579195
0.574519
0.570027
0.674998
0.674384
0.673021
0.671444
0.669704
0.66774
0.665498
0.662943
0.660081
0.657137
0.654197
0.651427
0.648616
0.64566
0.642425
0.638997
0.635627
0.631781
0.627741
0.623977
0.619596
0.615163
0.610895
0.606009
0.601322
0.596647
0.591406
0.586348
0.581217
0.697555
0.696909
0.695427
0.693697
0.691778
0.689605
0.687126
0.684314
0.68116
0.677731
0.674511
0.671393
0.668209
0.664753
0.66111
0.657433
0.6533
0.64901
0.644953
0.640129
0.635267
0.630611
0.625321
0.620153
0.614906
0.609161
0.603626
0.597956
0.591951
0.720502
0.719824
0.718224
0.716344
0.71425
0.711871
0.709146
0.706024
0.702503
0.69881
0.695124
0.69161
0.687972
0.684225
0.680271
0.675749
0.671252
0.66678
0.661579
0.656395
0.651307
0.645674
0.63992
0.634019
0.627882
0.621822
0.615511
0.608914
0.602428
0.743649
0.742936
0.741218
0.739186
0.736909
0.734309
0.731321
0.727914
0.72407
0.719974
0.715915
0.711978
0.708102
0.703815
0.699097
0.694462
0.689472
0.684026
0.678555
0.67279
0.666788
0.660673
0.654177
0.647611
0.640869
0.633936
0.626755
0.619637
0.612411
0.76682
0.766072
0.764243
0.762069
0.759621
0.756817
0.753588
0.749885
0.745713
0.741141
0.736688
0.732406
0.727888
0.723186
0.718277
0.712832
0.707273
0.701495
0.695229
0.688831
0.682208
0.675293
0.668195
0.660776
0.653227
0.645536
0.637687
0.629771
0.621426
0.789814
0.789025
0.787092
0.784783
0.78217
0.779164
0.77569
0.771697
0.767158
0.762347
0.757472
0.752553
0.747695
0.742662
0.736996
0.731196
0.725057
0.718433
0.711756
0.704535
0.697174
0.68968
0.681588
0.673516
0.665261
0.656532
0.647861
0.638911
0.629827
0.81244
0.811603
0.809578
0.80715
0.804389
0.801197
0.797498
0.793244
0.78842
0.783164
0.777739
0.772697
0.767582
0.76171
0.755602
0.749133
0.742363
0.735477
0.727764
0.719972
0.711856
0.703202
0.694764
0.685757
0.676274
0.666833
0.657196
0.647289
0.637313
0.834503
0.833614
0.831508
0.828978
0.826084
0.822724
0.818817
0.814298
0.80913
0.803507
0.798015
0.792473
0.78649
0.780339
0.773761
0.766971
0.75961
0.751493
0.743443
0.734825
0.725777
0.716697
0.707043
0.696971
0.686744
0.676368
0.66553
0.654652
0.643658
0.85582
0.854871
0.852699
0.850087
0.847082
0.843578
0.839494
0.834784
0.829425
0.823552
0.81742
0.811314
0.805195
0.798709
0.791695
0.78384
0.775795
0.767665
0.758582
0.749124
0.739252
0.729143
0.71863
0.707636
0.696446
0.684755
0.673047
0.661092
0.648651
0.876234
0.875216
0.872995
0.870326
0.867235
0.863616
0.859383
0.854453
0.848751
0.842474
0.836029
0.829797
0.823405
0.81615
0.808402
0.800636
0.792226
0.782776
0.772939
0.762753
0.752198
0.740954
0.729298
0.717471
0.705098
0.692404
0.679408
0.666041
0.652745
0.8956
0.894502
0.892249
0.889544
0.886391
0.882677
0.878319
0.873264
0.867463
0.861087
0.854486
0.847664
0.840472
0.83307
0.825498
0.81659
0.807003
0.797474
0.787039
0.775787
0.764047
0.751999
0.739457
0.72632
0.712777
0.698811
0.684585
0.670112
0.655299
0.913807
0.91262
0.910356
0.907645
0.904466
0.900707
0.896293
0.891154
0.88522
0.878585
0.871635
0.86464
0.857532
0.849831
0.840817
0.831653
0.822044
0.811485
0.799955
0.788018
0.775687
0.762316
0.748394
0.734092
0.719339
0.704263
0.688526
0.67244
0.656128
0.930767
0.929477
0.92722
0.924525
0.921338
0.917548
0.913074
0.907856
0.901848
0.895108
0.888117
0.881098
0.873347
0.864886
0.856207
0.846582
0.83589
0.824429
0.812464
0.79965
0.785951
0.771723
0.756603
0.741055
0.724899
0.708063
0.691
0.673441
0.655624
0.946425
0.945021
0.942794
0.94014
0.936977
0.933202
0.928751
0.923544
0.917493
0.910804
0.903636
0.896117
0.888436
0.880111
0.870769
0.860339
0.848969
0.836826
0.824013
0.81029
0.795662
0.78012
0.763963
0.746777
0.728953
0.71088
0.692185
0.672979
0.653382
0.960754
0.959228
0.957048
0.95446
0.951345
0.947608
0.943184
0.938003
0.932006
0.925196
0.918173
0.910876
0.902875
0.893939
0.884124
0.873194
0.861711
0.848972
0.834813
0.819914
0.80434
0.787772
0.769974
0.751406
0.73221
0.712284
0.691685
0.670568
0.649278
0.973753
0.972098
0.969985
0.967482
0.964437
0.960771
0.956436
0.951354
0.945421
0.938887
0.931825
0.92434
0.916091
0.907129
0.897025
0.885788
0.873264
0.859641
0.844918
0.829113
0.812218
0.794195
0.775141
0.754902
0.733952
0.712083
0.689502
0.666612
0.643177
0.985445
0.983659
0.981635
0.979237
0.976287
0.972726
0.968509
0.963567
0.95783
0.951329
0.944457
0.937037
0.928826
0.919494
0.908751
0.897083
0.884233
0.869774
0.854167
0.837361
0.818984
0.799467
0.779005
0.75747
0.734332
0.7104
0.685932
0.660662
0.634854
0.995871
0.993955
0.992045
0.989766
0.986929
0.983498
0.97944
0.974681
0.969116
0.962978
0.956134
0.948791
0.940366
0.930737
0.919992
0.90778
0.894042
0.879127
0.862503
0.844367
0.824984
0.804261
0.782004
0.758269
0.733523
0.707331
0.680391
0.652639
0.624299
1.00509
1.00305
1.00128
0.999129
0.996423
0.993149
0.989286
0.984736
0.979471
0.973469
0.967016
0.959607
0.951168
0.94128
0.930037
0.917357
0.903234
0.887393
0.870155
0.851048
0.830175
0.807855
0.783796
0.758076
0.731086
0.702951
0.673146
0.642607
0.61152
1.01316
1.01102
1.0094
1.0074
1.00484
1.00175
0.998104
0.993853
0.988829
0.983251
0.976801
0.969429
0.960841
0.950821
0.939346
0.926208
0.911504
0.894994
0.876663
0.856644
0.834585
0.810442
0.784649
0.757084
0.727501
0.696424
0.664101
0.630561
0.596366
1.02017
1.01794
1.01651
1.01465
1.01225
1.00938
1.006
1.00198
0.997362
0.991853
0.985641
0.97839
0.969627
0.95949
0.947567
0.934048
0.918695
0.901672
0.882549
0.861247
0.838065
0.812458
0.784597
0.75475
0.722599
0.688588
0.652976
0.616214
0.578333
1.02618
1.0239
1.02268
1.02097
1.01874
1.0161
1.01297
1.00931
1.00488
0.999794
0.993605
0.986198
0.977395
0.966901
0.954895
0.941055
0.925317
0.907521
0.887534
0.865427
0.840512
0.813581
0.783709
0.751351
0.716557
0.679344
0.640322
0.599392
0.557691
1.03128
1.02899
1.02799
1.02642
1.02439
1.022
1.01919
1.01577
1.01173
1.00661
1.00055
0.993049
0.984157
0.97361
0.961337
0.947193
0.931029
0.912535
0.89183
0.868772
0.842598
0.813677
0.782009
0.747177
0.70949
0.668673
0.625635
0.580487
0.533849
1.03553
1.03331
1.03252
1.03109
1.02927
1.02716
1.02461
1.02153
1.01753
1.01267
1.00648
0.999041
0.99003
0.979359
0.966923
0.952381
0.935834
0.917014
0.895538
0.87131
0.844069
0.813566
0.779501
0.742148
0.701151
0.656784
0.609066
0.558968
0.507015
1.03902
1.03694
1.03635
1.03504
1.03345
1.03161
1.02936
1.02641
1.02264
1.01771
1.01158
1.00412
0.994967
0.984309
0.97159
0.956858
0.940052
0.920594
0.898657
0.873536
0.84509
0.813006
0.776714
0.736327
0.691957
0.643449
0.590921
0.534789
0.476654
1.04182
1.03995
1.03951
1.03834
1.03699
1.03543
1.03338
1.0306
1.02684
1.022
1.0159
1.00831
0.999227
0.988388
0.975546
0.960581
0.94362
0.92362
0.901211
0.875325
0.845667
0.812069
0.773695
0.730457
0.682165
0.629062
0.570794
0.508236
0.442334
1.04399
1.04242
1.04208
1.04105
1.03997
1.03864
1.03672
1.03404
1.03038
1.02551
1.01946
1.01179
1.00277
0.991768
0.978776
0.963833
0.946512
0.92616
0.903351
0.876603
0.845906
0.811029
0.770613
0.724613
0.672224
0.613681
0.549118
0.47858
0.404264
1.04564
1.04438
1.04411
1.04324
1.04243
1.04125
1.03946
1.03685
1.03319
1.02847
1.02228
1.01478
1.00554
0.994566
0.981501
0.966384
0.94892
0.928283
0.904869
0.877498
0.846131
0.809866
0.767623
0.718734
0.66244
0.598003
0.525771
0.446379
0.360899
1.04683
1.04587
1.04567
1.045
1.04441
1.04334
1.04164
1.03906
1.03552
1.03076
1.02458
1.01717
1.00778
0.996844
0.983711
0.968503
0.950715
0.929977
0.906034
0.87816
0.846162
0.808544
0.764753
0.713162
0.65295
0.582508
0.501571
0.410748
0.312675
1.04766
1.04695
1.04686
1.04636
1.04598
1.04497
1.04336
1.04078
1.03738
1.03248
1.02652
1.01894
1.00963
0.998623
0.985431
0.970136
0.952121
0.931237
0.906974
0.87862
0.845953
0.807243
0.762014
0.708026
0.644058
0.567274
0.477134
0.372703
0.25754
1.0482
1.04772
1.04774
1.04741
1.04719
1.04618
1.04467
1.04216
1.03872
1.03389
1.02799
1.02026
1.01111
0.999921
0.986805
0.971331
0.953219
0.932167
0.907599
0.878945
0.845569
0.80596
0.759384
0.703199
0.635717
0.552621
0.452675
0.332961
0.195747
1.04856
1.04827
1.0484
1.0482
1.04807
1.0471
1.04566
1.04318
1.03972
1.03497
1.029
1.0213
1.01213
1.00087
0.987836
0.972109
0.954007
0.932777
0.907946
0.878985
0.844968
0.804569
0.756695
0.698437
0.627731
0.538583
0.428302
0.289869
0.126049
1.04879
1.04865
1.04884
1.04881
1.04865
1.04776
1.04636
1.04389
1.04043
1.03578
1.0297
1.02211
1.01277
1.00156
0.988343
0.972512
0.954069
0.93278
0.907287
0.878128
0.842981
0.802132
0.752138
0.692512
0.617617
0.523754
0.401513
0.24097
0.0351971
1.04893
1.04892
1.04912
1.04926
1.04895
1.04827
1.04674
1.04443
1.04078
1.03626
1.02995
1.02248
1.01287
1.00162
0.988033
0.972063
0.953073
0.931487
0.905236
0.875576
0.839264
0.797519
0.745505
0.683929
0.605103
0.505861
0.372449
0.18665
-0.0816439
1.04901
1.04907
1.04927
1.04959
1.04905
1.04865
1.04685
1.04476
1.04091
1.03636
1.02979
1.02208
1.01215
1.00057
0.986579
0.970239
0.950823
0.928694
0.901902
0.871495
0.834325
0.791383
0.737884
0.673969
0.59209
0.48712
0.346256
0.142047
-0.189593
1.04906
1.04914
1.04934
1.04964
1.04898
1.04852
1.04655
1.04426
1.03986
1.03491
1.02795
1.01989
1.00959
0.997658
0.983316
0.966632
0.946776
0.924252
0.896847
0.866003
0.827927
0.784524
0.729382
0.66511
0.57958
0.474324
0.326096
0.130555
-0.100535
0.42233
0.421744
0.421151
0.420553
0.41995
0.419341
0.418726
0.418107
0.417483
0.416855
0.416223
0.415587
0.414947
0.414303
0.413656
0.413006
0.412353
0.411697
0.411038
0.410377
0.409714
0.409049
0.408382
0.407713
0.407042
0.406371
0.405698
0.405024
0.40435
0.403675
0.402999
0.402323
0.401648
0.400972
0.400298
0.399623
0.39895
0.398277
0.397606
0.396936
0.396267
0.395601
0.394936
0.394274
0.393614
0.392957
0.392303
0.391651
0.391003
0.390359
0.389718
0.389081
0.388449
0.38782
0.387197
0.386577
0.385963
0.385354
0.38475
0.384152
0.383559
0.382972
0.382392
0.381817
0.381249
0.380687
0.380132
0.379584
0.379043
0.378509
0.377982
0.377464
0.376953
0.376449
0.375954
0.375467
0.374989
0.374518
0.374057
0.373604
0.37316
0.372725
0.3723
0.371883
0.371476
0.371079
0.370691
0.370313
0.369944
0.369586
0.369238
0.3689
0.368572
0.368255
0.367947
0.367651
0.367364
0.367088
0.366823
0.366568
0.366324
0.36609
0.365867
0.365654
0.365452
0.365261
0.36508
0.364909
0.364749
0.364599
0.364459
0.364329
0.364209
0.364099
0.363998
0.363907
0.363826
0.363753
0.36369
0.363638
0.363595
0.363561
0.363535
0.363517
0.363505
0.3635
0.363501
0.363509
0.363521
0.363542
0.363567
0.363599
0.363637
0.363677
0.36373
0.363769
0.363856
0.363871
0.364045
0.423378
0.422777
0.422172
0.421561
0.420945
0.420325
0.4197
0.419069
0.418435
0.417795
0.417151
0.416503
0.415851
0.415194
0.414534
0.41387
0.413202
0.412531
0.411856
0.411179
0.410498
0.409815
0.40913
0.408442
0.407753
0.407061
0.406368
0.405674
0.404978
0.404282
0.403585
0.402887
0.402189
0.401492
0.400794
0.400097
0.399401
0.398706
0.398012
0.397319
0.396628
0.395939
0.395253
0.394568
0.393886
0.393207
0.392531
0.391858
0.391188
0.390522
0.38986
0.389202
0.388548
0.387898
0.387253
0.386612
0.385977
0.385347
0.384722
0.384103
0.383489
0.382882
0.382281
0.381686
0.381098
0.380517
0.379942
0.379375
0.378815
0.378263
0.377718
0.377181
0.376652
0.376131
0.375618
0.375114
0.374618
0.374131
0.373653
0.373184
0.372724
0.372274
0.371832
0.371401
0.370979
0.370566
0.370164
0.369771
0.369389
0.369017
0.368654
0.368302
0.36796
0.367629
0.367308
0.366998
0.366698
0.366409
0.366131
0.365864
0.365608
0.365363
0.365128
0.364905
0.364693
0.364492
0.364303
0.364124
0.363957
0.3638
0.363656
0.363525
0.363406
0.363299
0.363204
0.363119
0.363046
0.362984
0.362932
0.362889
0.362856
0.362832
0.362817
0.36281
0.362814
0.36282
0.362842
0.362858
0.362892
0.362918
0.362953
0.36299
0.363032
0.363062
0.363118
0.363118
0.363135
0.363122
0.363089
0.424586
0.423951
0.423312
0.422669
0.422022
0.42137
0.420714
0.420053
0.419388
0.418719
0.418045
0.417368
0.416686
0.416
0.415311
0.414617
0.41392
0.413219
0.412515
0.411808
0.411097
0.410384
0.409668
0.408949
0.408228
0.407505
0.40678
0.406054
0.405326
0.404596
0.403866
0.403135
0.402403
0.401671
0.400939
0.400207
0.399475
0.398744
0.398014
0.397285
0.396557
0.39583
0.395106
0.394383
0.393663
0.392945
0.392231
0.391519
0.39081
0.390106
0.389405
0.388708
0.388015
0.387327
0.386644
0.385966
0.385293
0.384626
0.383964
0.383309
0.38266
0.382017
0.38138
0.380751
0.380128
0.379513
0.378905
0.378305
0.377712
0.377128
0.376552
0.375984
0.375425
0.374874
0.374333
0.3738
0.373277
0.372763
0.372258
0.371764
0.371279
0.370804
0.370339
0.369884
0.36944
0.369006
0.368583
0.36817
0.367768
0.367377
0.366998
0.36663
0.366273
0.365928
0.365594
0.365273
0.364963
0.364665
0.36438
0.364106
0.363846
0.363597
0.363361
0.363138
0.362928
0.36273
0.362546
0.362375
0.362217
0.362073
0.361942
0.361823
0.361715
0.361621
0.361539
0.36147
0.361414
0.36137
0.361339
0.361321
0.361314
0.36132
0.36134
0.361373
0.361415
0.361481
0.361542
0.361638
0.361721
0.361829
0.36194
0.362054
0.362173
0.362343
0.362295
0.362796
0.362375
0.36358
0.362157
0.424962
0.424287
0.423606
0.422921
0.422232
0.421537
0.420837
0.420132
0.419421
0.418706
0.417985
0.417259
0.416528
0.415793
0.415053
0.414308
0.413559
0.412806
0.412049
0.411289
0.410525
0.409758
0.408987
0.408214
0.407439
0.406661
0.405881
0.4051
0.404316
0.403532
0.402746
0.40196
0.401172
0.400385
0.399597
0.39881
0.398024
0.397239
0.396454
0.395671
0.39489
0.394111
0.393334
0.39256
0.391788
0.39102
0.390255
0.389494
0.388736
0.387983
0.387235
0.386491
0.385752
0.385018
0.38429
0.383568
0.382851
0.382141
0.381437
0.38074
0.38005
0.379367
0.378691
0.378023
0.377363
0.376711
0.376067
0.375432
0.374805
0.374187
0.373579
0.372979
0.372389
0.371809
0.371238
0.370678
0.370127
0.369587
0.369058
0.368539
0.368031
0.367534
0.367049
0.366575
0.366112
0.365662
0.365224
0.364797
0.364383
0.363982
0.363594
0.363218
0.362855
0.362506
0.362169
0.361846
0.361536
0.36124
0.360958
0.360689
0.360435
0.360194
0.359968
0.359756
0.359558
0.359375
0.359207
0.359053
0.358915
0.358791
0.358682
0.358588
0.358509
0.358446
0.358398
0.358367
0.358352
0.358354
0.358372
0.358408
0.358462
0.358534
0.358625
0.358742
0.35887
0.359026
0.359201
0.359388
0.359631
0.359868
0.360085
0.360585
0.360344
0.361664
0.36029
0.363385
0.359793
0.366391
0.357969
0.426015
0.425323
0.424624
0.423916
0.423201
0.422478
0.421748
0.421009
0.420263
0.41951
0.418749
0.417981
0.417206
0.416424
0.415636
0.414841
0.41404
0.413234
0.412422
0.411604
0.410782
0.409955
0.409123
0.408288
0.407448
0.406606
0.40576
0.404912
0.404061
0.403209
0.402355
0.4015
0.400644
0.399788
0.398932
0.398076
0.39722
0.396365
0.395511
0.394659
0.393809
0.392961
0.392116
0.391273
0.390434
0.389598
0.388766
0.387939
0.387115
0.386296
0.385483
0.384674
0.383871
0.383074
0.382284
0.381499
0.380722
0.379951
0.379188
0.378432
0.377683
0.376943
0.376212
0.375488
0.374774
0.374068
0.373372
0.372685
0.372007
0.371339
0.370681
0.370034
0.369396
0.36877
0.368154
0.367549
0.366955
0.366372
0.365801
0.365242
0.364694
0.364159
0.363635
0.363124
0.362625
0.362139
0.361666
0.361206
0.360759
0.360325
0.359905
0.359498
0.359105
0.358726
0.35836
0.358009
0.357672
0.35735
0.357042
0.356749
0.356471
0.356208
0.355961
0.355729
0.355513
0.355313
0.35513
0.354962
0.354812
0.354678
0.354562
0.354465
0.354385
0.354325
0.354285
0.354265
0.354267
0.35429
0.354335
0.354404
0.354493
0.354612
0.354753
0.354922
0.355127
0.355336
0.355621
0.355901
0.35618
0.356778
0.356629
0.358229
0.356825
0.360621
0.356421
0.364201
0.354446
0.369155
0.345197
0.428926
0.428241
0.427542
0.426829
0.426102
0.425361
0.424607
0.423842
0.423064
0.422276
0.421477
0.420667
0.419848
0.41902
0.418182
0.417335
0.416481
0.415618
0.414748
0.41387
0.412986
0.412096
0.4112
0.410298
0.409391
0.40848
0.407564
0.406645
0.405722
0.404796
0.403867
0.402937
0.402004
0.401071
0.400136
0.3992
0.398264
0.397329
0.396394
0.39546
0.394528
0.393597
0.392669
0.391743
0.390821
0.389902
0.388987
0.388076
0.387169
0.386268
0.385371
0.384481
0.383596
0.382718
0.381846
0.380982
0.380124
0.379274
0.378432
0.377599
0.376773
0.375956
0.375148
0.37435
0.37356
0.372781
0.372011
0.371252
0.370503
0.369765
0.369038
0.368322
0.367617
0.366924
0.366243
0.365573
0.364916
0.364271
0.363639
0.363019
0.362412
0.361818
0.361236
0.360668
0.360114
0.359572
0.359045
0.358531
0.35803
0.357544
0.357072
0.356614
0.356171
0.355742
0.355329
0.35493
0.354547
0.354178
0.353826
0.353489
0.353168
0.352863
0.352575
0.352303
0.352048
0.351811
0.35159
0.351387
0.351203
0.351036
0.350888
0.350759
0.350649
0.350559
0.350489
0.35044
0.350413
0.350407
0.350425
0.350465
0.350535
0.350623
0.35074
0.350875
0.351047
0.351237
0.351423
0.351788
0.351779
0.352605
0.352066
0.353719
0.352296
0.355037
0.352729
0.356331
0.352214
0.363197
0.331116
0.432243
0.431552
0.430839
0.430104
0.42935
0.428576
0.427784
0.426973
0.426146
0.425302
0.424443
0.423569
0.42268
0.421778
0.420863
0.419937
0.418998
0.418049
0.417091
0.416122
0.415145
0.41416
0.413167
0.412167
0.411161
0.41015
0.409133
0.408111
0.407085
0.406055
0.405023
0.403988
0.402951
0.401913
0.400873
0.399834
0.398795
0.397757
0.39672
0.395685
0.394653
0.393623
0.392596
0.391573
0.390554
0.389539
0.388529
0.387525
0.386527
0.385534
0.384548
0.38357
0.382598
0.381634
0.380677
0.379729
0.378789
0.377859
0.376937
0.376024
0.375121
0.374229
0.373346
0.372474
0.371612
0.370762
0.369923
0.369095
0.368279
0.367475
0.366683
0.365904
0.365137
0.364382
0.363641
0.362912
0.362197
0.361495
0.360806
0.360131
0.35947
0.358824
0.358191
0.357573
0.356969
0.35638
0.355806
0.355246
0.354701
0.354171
0.353657
0.353157
0.352673
0.352205
0.351751
0.351314
0.350892
0.350487
0.350097
0.349724
0.349366
0.349026
0.348701
0.348394
0.348103
0.347829
0.347572
0.347332
0.34711
0.346905
0.346717
0.346548
0.346396
0.346262
0.346145
0.346047
0.345967
0.345905
0.345861
0.345833
0.345826
0.345828
0.345858
0.345891
0.345929
0.346048
0.346005
0.346305
0.346079
0.346647
0.346175
0.346981
0.346417
0.347047
0.347273
0.347224
0.347527
0.35411
0.32313
0.434731
0.433977
0.433198
0.432394
0.431566
0.430717
0.429845
0.428951
0.428038
0.427104
0.426151
0.42518
0.424191
0.423186
0.422164
0.421128
0.420078
0.419014
0.417938
0.416851
0.415752
0.414644
0.413527
0.412401
0.411268
0.410128
0.408982
0.407831
0.406676
0.405518
0.404356
0.403193
0.402028
0.400863
0.399697
0.398533
0.39737
0.396208
0.395049
0.393893
0.392741
0.391593
0.39045
0.389312
0.388179
0.387053
0.385933
0.384821
0.383716
0.382619
0.38153
0.38045
0.379379
0.378318
0.377266
0.376225
0.375195
0.374175
0.373167
0.37217
0.371185
0.370212
0.369251
0.368302
0.367367
0.366444
0.365534
0.364637
0.363753
0.362883
0.362027
0.361185
0.360357
0.359543
0.358743
0.357958
0.357187
0.356431
0.35569
0.354964
0.354254
0.353558
0.352878
0.352213
0.351563
0.350929
0.350311
0.349708
0.349121
0.34855
0.347995
0.347456
0.346932
0.346425
0.345934
0.345458
0.344999
0.344556
0.344129
0.343718
0.343323
0.342945
0.342582
0.342236
0.341905
0.341591
0.341293
0.341011
0.340745
0.340494
0.34026
0.340042
0.339839
0.339651
0.339479
0.339321
0.339177
0.339048
0.338932
0.338829
0.33874
0.338679
0.338588
0.338574
0.338509
0.338562
0.338416
0.33862
0.338387
0.338721
0.338459
0.338818
0.338733
0.338727
0.339316
0.338052
0.337467
0.343573
0.319215
0.437893
0.437035
0.436149
0.435236
0.434297
0.433333
0.432343
0.43133
0.430295
0.429237
0.428158
0.427059
0.425941
0.424804
0.42365
0.42248
0.421294
0.420094
0.41888
0.417653
0.416415
0.415166
0.413907
0.41264
0.411364
0.410082
0.408793
0.407499
0.406201
0.4049
0.403596
0.40229
0.400983
0.399676
0.39837
0.397065
0.395762
0.394462
0.393165
0.391872
0.390585
0.389302
0.388026
0.386756
0.385494
0.384239
0.382992
0.381755
0.380527
0.379308
0.3781
0.376902
0.375715
0.37454
0.373377
0.372226
0.371088
0.369962
0.36885
0.367751
0.366666
0.365595
0.364538
0.363496
0.362468
0.361455
0.360458
0.359476
0.358509
0.357558
0.356622
0.355703
0.354799
0.353912
0.353041
0.352186
0.351348
0.350526
0.349721
0.348933
0.348161
0.347406
0.346667
0.345945
0.345239
0.34455
0.343878
0.343223
0.342585
0.341963
0.341357
0.340769
0.340197
0.339642
0.339103
0.338581
0.338076
0.337586
0.337114
0.336657
0.336217
0.335793
0.335385
0.334994
0.334618
0.334257
0.333913
0.333584
0.33327
0.332972
0.332689
0.33242
0.332167
0.331928
0.331703
0.331492
0.331296
0.331113
0.330945
0.33079
0.330647
0.33054
0.330376
0.330372
0.330149
0.330241
0.330074
0.330175
0.329975
0.330146
0.329988
0.330118
0.330207
0.329903
0.330595
0.329649
0.328649
0.333206
0.316289
0.443416
0.44243
0.441411
0.440361
0.43928
0.43817
0.437032
0.435867
0.434677
0.433462
0.432223
0.430963
0.429681
0.42838
0.427059
0.425721
0.424366
0.422996
0.421612
0.420214
0.418804
0.417383
0.415952
0.414513
0.413065
0.411612
0.410152
0.408688
0.407221
0.405751
0.40428
0.402808
0.401336
0.399865
0.398396
0.39693
0.395468
0.39401
0.392558
0.391111
0.389671
0.388239
0.386815
0.3854
0.383994
0.382598
0.381213
0.379839
0.378476
0.377126
0.375788
0.374464
0.373153
0.371856
0.370573
0.369305
0.368052
0.366814
0.365591
0.364385
0.363194
0.36202
0.360863
0.359723
0.358599
0.357493
0.356405
0.355334
0.354281
0.353246
0.352229
0.35123
0.350249
0.349287
0.348343
0.347417
0.346509
0.34562
0.344749
0.343896
0.343062
0.342246
0.341447
0.340667
0.339906
0.339162
0.338436
0.337729
0.337039
0.336367
0.335713
0.335077
0.334458
0.333857
0.333273
0.332706
0.332157
0.331624
0.331109
0.330611
0.330129
0.329664
0.329215
0.328783
0.328367
0.327967
0.327583
0.327215
0.326863
0.326526
0.326204
0.325898
0.325606
0.32533
0.325069
0.324822
0.32459
0.324372
0.324169
0.323981
0.323804
0.323653
0.32348
0.323398
0.323194
0.323205
0.322941
0.323056
0.322874
0.322929
0.322812
0.322704
0.322993
0.322439
0.322286
0.321821
0.320949
0.324113
0.313134
0.450392
0.44925
0.44807
0.446853
0.4456
0.444313
0.442993
0.441643
0.440262
0.438854
0.437419
0.43596
0.434476
0.43297
0.431444
0.429898
0.428335
0.426755
0.425161
0.423554
0.421935
0.420305
0.418667
0.41702
0.415366
0.413707
0.412044
0.410378
0.408709
0.40704
0.405372
0.403704
0.402039
0.400378
0.398722
0.397071
0.395427
0.39379
0.392162
0.390543
0.388935
0.387337
0.38575
0.384176
0.382615
0.381068
0.379534
0.378016
0.376512
0.375025
0.373553
0.372098
0.37066
0.36924
0.367837
0.366453
0.365087
0.363739
0.362411
0.361102
0.359812
0.358541
0.357291
0.35606
0.354849
0.353659
0.352488
0.351338
0.350209
0.349099
0.34801
0.346942
0.345894
0.344866
0.343859
0.342871
0.341904
0.340958
0.340031
0.339124
0.338237
0.33737
0.336523
0.335696
0.334888
0.3341
0.333331
0.332581
0.331851
0.331139
0.330447
0.329773
0.329118
0.328481
0.327863
0.327262
0.32668
0.326115
0.325569
0.325039
0.324527
0.324032
0.323554
0.323093
0.322649
0.322221
0.321809
0.321413
0.321033
0.320668
0.32032
0.319986
0.319667
0.319364
0.319074
0.3188
0.318539
0.318292
0.318058
0.317838
0.317629
0.317437
0.317243
0.31709
0.316892
0.316786
0.316579
0.316505
0.316329
0.316205
0.316205
0.315904
0.316113
0.315584
0.315287
0.315073
0.313973
0.316395
0.309519
0.457226
0.455908
0.454544
0.453139
0.451692
0.450207
0.448684
0.447127
0.445535
0.443912
0.442258
0.440577
0.438869
0.437138
0.435383
0.433608
0.431813
0.43
0.42817
0.426325
0.424468
0.4226
0.420723
0.418839
0.416949
0.415057
0.413162
0.411267
0.409373
0.407482
0.405595
0.403713
0.401837
0.399968