/*--------------------------------*- C++ -*----------------------------------*\
| =========                 |                                                 |
| \\      /  F ield         | OpenFOAM: The Open Source CFD Toolbox           |
|  \\    /   O peration     | Version:  5.x                                   |
|   \\  /    A nd           | Web:      www.OpenFOAM.org                      |
|    \\/     M anipulation  |                                                 |
\*---------------------------------------------------------------------------*/
/*   Windows 32 and 64 bit porting by blueCAPE: http://www.bluecape.com.pt   *\
|  Based on Windows porting (2.0.x v4) by Symscape: http://www.symscape.com   |
\*---------------------------------------------------------------------------*/
FoamFile
{
    version     2.0;
    format      ascii;
    class       surfaceScalarField;
    location    "110";
    object      phi;
}
// * * * * * * * * * * * * * * * * * * * * * * * * * * * * * * * * * * * * * //

dimensions      [0 3 -1 0 0 0 0];

internalField   nonuniform List<scalar> 
87341
(
0.351113
39.5719
0.482406
39.7917
0.487824
39.9176
0.574569
39.8363
0.616363
39.8812
0.653559
39.8858
0.697688
39.8789
0.721366
39.8994
0.748525
39.8959
0.76723
39.9043
0.785241
39.905
0.801931
39.9063
0.817373
39.9076
0.831766
39.9086
0.845193
39.9096
0.857738
39.9105
0.869482
39.9113
0.880513
39.912
0.890876
39.9127
0.90073
39.9132
0.910299
39.9135
0.91974
39.9136
0.929042
39.9137
0.938204
39.9139
0.947231
39.914
0.956137
39.9141
0.964943
39.9142
0.973669
39.9143
39.9142
0.982534
0.881982
38.6899
1.24223
39.4315
1.31973
39.8401
1.49102
39.665
1.53332
39.8389
1.69904
39.7201
1.78961
39.7883
1.92779
39.7612
2.03511
39.7886
2.14332
39.7961
2.24099
39.8074
2.32872
39.8186
2.40796
39.8284
2.47986
39.8367
2.54555
39.8439
2.60603
39.85
2.66211
39.8552
2.71449
39.8596
2.76394
39.8632
2.8108
39.8663
2.85518
39.8691
2.89718
39.8716
2.93702
39.8739
2.97495
39.8759
3.01108
39.8779
3.04553
39.8797
3.07838
39.8814
3.10969
39.883
39.8841
3.13971
1.90167
36.7883
3.04112
38.292
3.63273
39.2485
3.59425
39.7035
3.71279
39.7204
3.65289
39.78
3.664
39.7772
3.66081
39.7644
3.67455
39.7748
3.70019
39.7705
3.73081
39.7767
3.7696
39.7798
3.81271
39.7852
3.85837
39.7911
3.90561
39.7967
3.95367
39.802
4.00193
39.8069
4.04998
39.8116
4.09693
39.8163
4.14252
39.8207
4.1866
39.825
4.22913
39.8291
4.27019
39.8328
4.30985
39.8363
4.34823
39.8395
4.38546
39.8425
4.42164
39.8452
4.45691
39.8477
39.8509
4.49019
1.68214
35.1061
3.4039
36.5703
4.66699
37.9854
5.32666
39.0438
5.46662
39.5804
5.48654
39.7601
5.48195
39.7818
5.45317
39.7931
5.43676
39.7912
5.41422
39.793
5.40249
39.7885
5.39777
39.7846
5.40057
39.7824
5.41055
39.7811
5.42658
39.7806
5.44761
39.7809
5.47268
39.7819
5.50093
39.7833
5.53182
39.7854
5.56499
39.7876
5.60005
39.7899
5.63695
39.7922
5.67524
39.7945
5.71459
39.7969
5.75477
39.7993
5.79538
39.8018
5.83616
39.8044
5.87697
39.8069
39.8101
5.91778
1.08282
34.0233
2.44694
35.2062
3.99453
36.4378
5.33416
37.7042
6.17067
38.7439
6.51119
39.4196
6.61333
39.6797
6.66952
39.7369
6.72537
39.7354
6.77975
39.7386
6.8235
39.7447
6.8551
39.753
6.88367
39.7539
6.91056
39.7542
6.93709
39.7541
6.96399
39.754
6.99189
39.754
7.02128
39.7539
7.05365
39.753
7.08908
39.7521
7.12749
39.7515
7.16839
39.7513
7.21162
39.7513
7.25692
39.7516
7.30402
39.7522
7.35279
39.7531
7.40305
39.7542
7.45454
39.7554
39.7555
7.50913
0.832292
33.191
1.83039
34.2081
2.98934
35.2789
4.29951
36.394
5.52506
37.5184
6.40469
38.54
6.82443
39.2599
6.96629
39.5951
7.04183
39.6599
7.11578
39.6647
7.18467
39.6758
7.24884
39.6888
7.31307
39.6896
7.37791
39.6894
7.44348
39.6885
7.51007
39.6874
7.57791
39.6861
7.64721
39.6846
7.71735
39.6829
7.78814
39.6813
7.85973
39.6799
7.93184
39.6792
8.00456
39.6786
8.07796
39.6782
8.15205
39.6781
8.22683
39.6783
8.30227
39.6787
8.37823
39.6795
39.6787
8.455
0.662748
32.5283
1.41849
33.4523
2.2728
34.4246
3.2281
35.4387
4.273
36.4735
5.31462
37.4983
6.10832
38.4662
6.50725
39.1961
6.63022
39.5369
6.70404
39.5909
6.78845
39.5914
6.88718
39.5901
6.9897
39.5871
7.09476
39.5843
7.20174
39.5816
7.31028
39.5789
7.42005
39.5764
7.53069
39.574
7.64139
39.5722
7.75196
39.5708
7.86238
39.5695
7.97261
39.5689
8.08264
39.5686
8.19247
39.5684
8.30205
39.5685
8.41132
39.569
8.52018
39.5699
8.62857
39.5711
39.5722
8.73504
0.529905
31.9984
1.11543
32.8668
1.75953
33.7805
2.46423
34.734
3.22564
35.7121
4.02948
36.6945
4.84162
37.6541
5.4859
38.5519
5.80692
39.2159
5.95893
39.4389
6.10179
39.4486
6.2547
39.4372
6.41112
39.4307
6.56998
39.4255
6.73058
39.421
6.89234
39.4171
7.05469
39.414
7.2171
39.4116
7.37918
39.4101
7.54067
39.4093
7.70135
39.4089
7.86102
39.4093
8.01953
39.41
8.17671
39.4112
8.33244
39.4128
8.48661
39.4149
8.63912
39.4174
8.78995
39.4202
39.4248
8.93742
0.462275
31.5361
0.962818
32.3663
1.49716
33.2461
2.06668
34.1645
2.67019
35.1086
3.30248
36.0622
3.9523
37.0043
4.59983
37.9044
5.10177
38.7139
5.36564
39.175
5.57126
39.2429
5.77436
39.234
5.97886
39.2262
6.1845
39.2198
6.3908
39.2147
6.59733
39.2106
6.80371
39.2076
7.00963
39.2057
7.215
39.2047
7.41961
39.2047
7.62322
39.2053
7.82573
39.2068
8.02689
39.2089
8.22653
39.2116
8.42445
39.2149
8.62054
39.2188
8.8147
39.2232
9.00677
39.2282
39.2335
9.19801
0.425528
31.1106
0.872676
31.9191
1.34272
32.7761
1.83495
33.6723
2.3481
34.5954
2.8796
35.5307
3.42415
36.4597
3.97079
37.3577
4.49396
38.1908
4.85755
38.8114
5.13227
38.9682
5.39663
38.9697
5.65811
38.9647
5.91706
38.9609
6.17357
38.9581
6.42761
38.9566
6.67926
38.956
6.92853
38.9564
7.17552
38.9577
7.42039
38.9598
7.66274
38.9629
7.90303
38.9665
8.14116
38.9708
8.37675
38.976
8.60986
38.9818
8.8403
38.9883
9.06786
38.9956
9.29262
39.0034
39.01
9.51613
0.383379
30.7272
0.782861
31.5196
1.19847
32.3605
1.62948
33.2412
2.07407
34.1508
2.52958
35.0752
2.99242
35.9969
3.45714
36.893
3.91613
37.7318
4.31723
38.4103
4.65783
38.6276
4.98602
38.6415
5.30841
38.6423
5.62556
38.6437
5.93758
38.6461
6.24493
38.6492
6.54754
38.6534
6.84567
38.6583
7.13959
38.6638
7.42897
38.6704
7.71407
38.6778
7.99523
38.6853
8.27208
38.6939
8.54513
38.7029
8.81371
38.7132
9.07783
38.7242
9.33804
38.7354
9.59361
38.7478
38.7586
9.84506
0.363424
30.3638
0.738833
31.1442
1.12569
31.9736
1.52409
32.8428
1.93331
33.7416
2.35133
34.6572
2.77485
35.5734
3.19972
36.4681
3.62216
37.3093
4.02343
38.009
4.39514
38.2559
4.75834
38.2783
5.11642
38.2842
5.4692
38.2909
5.81735
38.298
6.16002
38.3066
6.49797
38.3154
6.83107
38.3252
7.15845
38.3365
7.4817
38.3472
7.7992
38.3603
8.1114
38.3731
8.41967
38.3856
8.72164
38.401
9.0187
38.4161
9.31125
38.4317
9.59717
38.4495
9.87847
38.4665
38.4828
10.1543
0.371411
29.9923
0.752335
30.7633
1.14184
31.5841
1.5393
32.4454
1.94454
33.3363
2.35729
34.2444
2.77631
35.1543
3.19845
36.046
3.61864
36.8891
4.02543
37.6022
4.41358
37.8677
4.79497
37.8969
5.17194
37.9073
5.54562
37.9173
5.91368
37.9299
6.27872
37.9415
6.63865
37.9555
6.99299
37.9708
7.34482
37.9846
7.68933
38.0026
8.02968
38.0199
8.36651
38.0363
8.6949
38.0572
9.0206
38.0752
9.34109
38.0957
9.6533
38.1194
9.9633
38.1395
10.2666
38.1632
38.1867
10.5627
0.392248
29.6001
0.793046
30.3625
1.20153
31.1756
1.61652
32.0304
2.03686
32.916
2.46183
33.8195
2.89105
34.7251
3.32368
35.6133
3.75638
36.4564
4.1802
37.1784
4.58909
37.4589
4.99145
37.4945
5.39082
37.5079
5.7834
37.5247
6.17549
37.5378
6.5598
37.5572
6.94008
37.5752
7.31903
37.5919
7.68693
37.6167
8.05481
37.6348
8.41725
37.6575
8.76866
37.6849
9.12205
37.7039
9.46564
37.7317
9.80051
37.7608
10.1369
37.783
10.461
37.8155
10.7787
37.8455
37.8694
11.096
0.417357
29.1827
0.843206
29.9366
1.27636
30.7425
1.71553
31.5912
2.15936
32.4722
2.60634
33.3725
3.05503
34.2764
3.50443
35.1639
3.95341
36.0075
4.39804
36.7338
4.83397
37.0229
5.26386
37.0647
5.68575
37.086
6.11033
37.1001
6.52135
37.1268
6.93371
37.1449
7.34228
37.1667
7.73582
37.1983
8.13664
37.2159
8.52432
37.2471
8.90224
37.2796
9.28737
37.2997
9.65327
37.338
10.0151
37.3698
10.3806
37.3953
10.7251
37.4386
11.0699
37.4707
11.4131
37.5023
37.545
11.7375
0.446695
28.736
0.902094
29.4813
1.36481
30.2798
1.83339
31.1226
2.30629
31.9993
2.78187
32.8969
3.25837
33.7999
3.73387
34.6884
4.20654
35.5348
4.67748
36.2628
5.14033
36.5601
5.59529
36.6097
6.05514
36.6262
6.49441
36.6608
6.9447
36.6765
7.38207
36.7075
7.80558
36.7431
8.24369
36.7602
8.65698
36.8026
9.06797
36.8361
9.48726
36.8603
9.87732
36.9097
10.2724
36.9429
10.6684
36.9738
11.0362
37.0274
11.4132
37.0616
11.7836
37.1003
12.1304
37.1555
37.1884
12.4869
0.480383
28.2557
0.969952
28.9917
1.46715
29.7826
1.97035
30.6195
2.47785
31.4918
2.98792
32.3868
3.49876
33.2891
4.00836
34.1788
4.51347
35.0297
5.01107
35.7652
5.50517
36.066
5.99989
36.115
6.46874
36.1573
6.9584
36.1712
7.42336
36.2115
7.88307
36.2478
8.35834
36.2679
8.79849
36.3201
9.24431
36.3568
9.69539
36.385
10.1116
36.4441
10.5396
36.4817
10.966
36.5165
11.3576
36.5823
11.7641
36.6208
12.1617
36.6641
12.5296
36.7324
12.9115
36.7737
36.8231
13.2767
0.517343
27.7383
1.04453
28.4645
1.57983
29.2473
2.12142
30.0779
2.66741
30.9458
3.21579
31.8384
3.76439
32.7405
4.31071
33.6325
4.85191
34.4885
5.39061
35.2265
5.91927
35.5373
6.42271
35.6115
6.95373
35.6263
7.45314
35.6718
7.9507
35.714
8.46102
35.7375
8.93195
35.7969
9.41293
35.8391
9.90284
35.8669
10.3471
35.9408
10.8081
35.9831
11.2711
36.0186
11.6862
36.1014
12.1263
36.1422
12.556
36.1911
12.9468
36.2733
13.3607
36.3185
13.7561
36.3783
36.4563
14.1229
0.556518
27.1818
1.12363
27.8974
1.69939
28.6715
2.28179
29.4955
2.86877
30.3588
3.45825
31.249
4.04819
32.1506
4.63653
33.0442
5.21948
33.9055
5.78865
34.6574
6.3404
34.9856
6.91618
35.0358
7.45059
35.0919
7.98217
35.1402
8.53792
35.1582
9.04307
35.2323
9.56072
35.2793
10.0922
35.3076
10.5624
35.3967
11.064
35.4392
11.5671
35.48
12.0085
35.5772
12.489
35.621
12.9532
35.678
13.3689
35.7754
13.818
35.8242
14.2463
35.8902
14.6338
35.9908
36.0386
15.0515
0.5975
26.5843
1.20638
27.2885
1.82453
28.0534
2.44975
28.8702
3.07974
29.7288
3.71204
30.6167
4.3438
31.5188
4.97139
32.4166
5.59067
33.2863
6.20219
34.0459
6.82117
34.3666
7.39066
34.4663
7.96479
34.5178
8.57414
34.5308
9.10462
34.6277
9.66156
34.6754
10.2403
34.7005
10.7439
34.804
11.2885
34.8521
11.827
34.9008
12.293
35.014
12.8083
35.0619
13.3095
35.1197
13.7529
35.2345
14.2313
35.297
14.69
35.3656
15.0972
35.4831
15.5429
35.5451
35.6246
15.9568
0.639637
25.9447
1.29147
26.6367
1.95313
27.3917
2.62216
28.2012
3.29599
29.055
3.97206
29.9406
4.64784
30.843
5.3213
31.7431
5.98965
32.6179
6.65397
33.3815
7.26303
33.7575
7.89285
33.8364
8.54643
33.8642
9.1028
33.9745
9.71325
34.0173
10.3479
34.0407
10.878
34.1704
11.4505
34.2315
12.0334
34.2692
12.5409
34.3933
13.0975
34.4574
13.643
34.5164
14.1106
34.6522
14.6168
34.7283
15.1208
34.793
15.56
34.9264
16.0388
35.0043
16.4942
35.0896
35.2334
16.8854
0.682896
25.2618
1.37881
25.9408
2.08531
26.6852
2.79985
27.4867
3.51982
28.335
4.24254
29.2179
4.96501
30.1205
5.68312
31.025
6.39037
31.9107
7.05991
32.712
7.7611
33.0563
8.44543
33.1521
9.03817
33.2714
9.70552
33.3071
10.3873
33.3355
10.9427
33.4853
11.5549
33.5582
12.2088
33.5776
12.7581
33.7199
13.3342
33.8172
13.9191
33.8724
14.416
34.0195
14.9657
34.1024
15.5262
34.1678
15.991
34.3283
16.4891
34.4283
16.974
34.5194
17.3905
34.6731
34.7635
17.8604
0.726153
24.5356
1.46617
25.2007
2.21734
25.934
2.97677
26.7272
3.74139
27.5704
4.50781
28.4515
5.27219
29.3562
6.03055
30.2667
6.77863
31.1626
7.55005
31.9406
8.26642
32.34
8.8996
32.5189
9.63295
32.5381
10.3506
32.5894
10.9375
32.7486
11.5987
32.8241
12.3207
32.8363
12.8959
33.0025
13.4862
33.1295
14.1353
33.1681
14.6804
33.3273
15.272
33.428
15.8595
33.5149
16.3438
33.6835
16.8776
33.7945
17.4052
33.9006
17.8713
34.0533
18.3738
34.1707
34.3184
18.8189
0.768951
23.7667
1.55258
24.4171
2.34806
25.1386
3.15242
25.9229
3.96268
26.7601
4.77589
27.6383
5.58948
28.5426
6.40139
29.4548
7.21065
30.3533
7.96384
31.1874
8.67207
31.6317
9.49111
31.6999
10.22
31.8092
10.8367
31.9728
11.5664
32.0189
12.3415
32.049
12.9417
32.236
13.5676
32.3766
14.2779
32.4193
14.8772
32.5687
15.5115
32.693
16.1087
32.8307
16.6448
32.9789
17.2304
33.0979
17.7764
33.2486
18.2875
33.3895
18.8117
33.5291
19.2747
33.7077
33.854
19.7391
0.810962
22.9557
1.63747
23.5906
2.47663
24.2994
3.32538
25.0741
4.18047
25.905
5.03832
26.7804
5.89438
27.6865
6.7417
28.6074
7.56442
29.5306
8.38605
30.3658
9.26438
30.7534
9.98836
30.9759
10.6664
31.1311
11.4898
31.1494
12.277
31.2317
12.893
31.433
13.5845
31.5445
14.3359
31.6251
15
31.7552
15.6692
31.8996
16.279
32.0832
16.8831
32.2267
17.5106
32.3513
18.0612
32.5472
18.6498
32.66
19.1952
32.844
19.6773
33.047
20.184
33.201
33.3912
20.6468
0.850826
22.1049
1.71789
22.7235
2.59808
23.4192
3.48804
24.1842
4.38412
25.0089
5.2824
25.8822
6.17896
26.79
7.07156
27.7148
7.96972
28.6324
8.86869
29.4668
9.61768
30.0044
10.3991
30.1945
11.3049
30.2254
12.0768
30.3774
12.7591
30.5494
13.5483
30.6438
14.3021
30.7908
15.0319
30.8953
15.7146
31.0725
16.3407
31.2735
17.0359
31.3879
17.7117
31.5509
18.3219
31.7411
18.95
31.9191
19.464
32.146
19.9965
32.3115
20.5617
32.4819
21.0842
32.6785
32.9182
21.5571
0.888061
21.2168
1.79318
21.8184
2.71233
22.5001
3.64228
23.2542
4.57978
24.0714
5.52161
24.9403
6.46442
25.8471
7.40352
26.7757
8.31932
27.7166
9.16766
28.6184
10.0707
29.1013
11.0011
29.2642
11.7722
29.4543
12.5433
29.6063
13.3779
29.7148
14.1449
29.8768
14.947
29.9886
15.661
30.1813
16.3464
30.3871
17.1301
30.4897
17.7913
30.7268
18.4513
30.8909
19.0865
31.106
19.6686
31.337
20.2873
31.5274
20.8782
31.7206
21.404
31.956
21.9053
32.1773
32.4249
22.3986
0.922013
20.2948
1.8617
20.8787
2.81599
21.5458
3.78149
22.2887
4.75446
23.0985
5.73056
23.9642
6.70462
24.8731
7.67044
25.8099
8.63124
26.7558
9.61857
27.6311
10.5502
28.1697
11.3419
28.4725
12.2023
28.5939
13.0791
28.7295
13.9096
28.8843
14.771
29.0155
15.4968
29.2628
16.2504
29.4277
17.0698
29.5676
17.7579
29.8017
18.4951
29.9895
19.1566
30.2294
19.7891
30.4735
20.4757
30.6503
21.0855
30.9176
21.6473
31.1588
22.1964
31.4069
22.6941
31.6796
31.9187
23.2003
0.951738
19.3431
1.92173
19.9087
2.90697
20.5605
3.90415
21.2915
4.90975
22.0929
5.9201
22.9539
6.93156
23.8616
7.94147
24.8
8.941
25.7563
9.90068
26.6714
10.8061
27.2642
11.7774
27.5012
12.6589
27.7123
13.5402
27.8483
14.4287
27.9958
15.2027
28.2415
16.0627
28.4027
16.8789
28.6116
17.6242
28.8223
18.4365
28.9893
19.1321
29.2939
19.8221
29.5394
20.5401
29.7555
21.156
30.0344
21.8064
30.2672
22.3764
30.5888
22.9354
30.8479
23.4851
31.1299
31.4643
23.9396
0.976365
18.3667
1.9715
18.9136
2.98249
19.5495
4.00613
20.2679
5.03882
21.0602
6.07657
21.9161
7.11495
22.8232
8.14801
23.767
9.16997
24.7343
10.1761
25.6653
11.1776
26.2627
12.0927
26.5861
13.0412
26.7638
13.9657
26.9239
14.7967
27.1647
15.7317
27.3065
16.5648
27.5696
17.3974
27.779
18.2296
27.9901
18.9221
28.2968
19.7273
28.4888
20.471
28.7957
21.1603
29.0662
21.8533
29.3414
22.4566
29.6639
23.0842
29.9612
23.6146
30.3175
24.1478
30.5966
30.9498
24.6623
0.995522
17.3712
2.01015
17.899
3.04113
18.5186
4.08534
19.2237
5.13938
20.0062
6.19958
20.8559
7.26191
21.7609
8.32296
22.7059
9.3841
23.6732
10.4307
24.6187
11.387
25.3065
12.4077
25.5654
13.374
25.7975
14.2782
26.0197
15.2412
26.2018
16.0807
26.467
17.0224
26.6279
17.8727
26.9287
18.6703
27.1924
19.5247
27.4425
20.2342
27.7792
21.0443
27.9857
21.762
28.3485
22.4237
28.6797
23.0756
29.0119
23.6702
29.3666
24.3064
29.6813
24.8383
30.0648
30.4768
25.3112
1.00903
16.3621
2.03739
16.8706
3.08267
17.4733
4.14204
18.1643
5.21229
18.9359
6.2899
19.7783
7.37101
20.6798
8.44947
21.6274
9.49557
22.6271
10.535
23.5793
11.6616
24.1798
12.6296
24.5974
13.611
24.8161
14.569
25.0616
15.5028
25.268
16.5038
25.466
17.3483
25.7834
18.2524
26.0246
19.1126
26.3322
19.9341
26.6209
20.7985
26.9149
21.5029
27.2813
22.2651
27.5862
22.9585
27.9863
23.6108
28.3597
24.2772
28.7002
24.8446
29.114
25.3941
29.5153
29.966
25.905
1.01578
15.3464
2.05095
15.8354
3.10325
16.421
4.16995
17.0976
5.24781
17.858
6.33306
18.6931
7.42134
19.5915
8.50998
20.5388
9.63838
21.4987
10.7719
22.4458
11.7084
23.2434
12.7494
23.5563
13.7508
23.8147
14.7857
24.0268
15.7985
24.2551
16.6567
24.6078
17.6482
24.7919
18.5748
25.0981
19.5135
25.3936
20.3636
25.7708
21.1105
26.1679
21.9389
26.453
22.6884
26.8367
23.4638
27.2109
24.1475
27.676
24.7265
28.1211
25.3659
28.4745
25.89
28.9912
29.4418
26.4142
1.01618
14.3302
2.05165
14.8
3.10455
15.3681
4.17256
16.0296
5.25304
16.7776
6.34352
17.6026
7.44269
18.4923
8.55162
19.4299
9.61989
20.4304
10.6506
21.415
11.7952
22.0989
12.851
22.5005
13.9206
22.7451
14.9298
23.0176
15.8763
23.3087
16.965
23.5191
17.8873
23.8696
18.8378
24.1476
19.699
24.5324
20.6386
24.8311
21.5543
25.2523
22.2819
25.7253
23.0777
26.041
23.7917
26.4969
24.5582
26.9094
25.2476
27.4318
25.7406
27.9816
26.341
28.3908
28.9719
26.8109
1.00993
13.3202
2.03884
13.7711
3.08522
14.3217
4.14694
14.9679
5.22134
15.7032
6.30522
16.5187
7.39352
17.404
8.47274
18.3507
9.57923
19.3239
10.7419
20.2523
11.8168
21.024
12.9003
21.417
13.8783
21.7671
14.9707
21.9251
16.0483
22.2311
16.9938
22.5736
18.0369
22.8264
18.985
23.1995
19.9756
23.5419
20.8203
23.9864
21.7206
24.352
22.6561
24.7898
23.4019
25.2952
24.1852
25.7136
24.8315
26.2632
25.5463
26.717
26.2001
27.3278
26.6605
27.9304
28.4093
27.2231
0.997263
12.323
2.01302
12.7553
3.04616
13.2886
4.09481
13.9192
5.15661
14.6414
6.22916
15.4462
7.31159
16.3216
8.41498
17.2473
9.5022
18.2367
10.549
19.2056
11.6848
19.8881
12.7328
20.369
13.9143
20.5856
14.933
20.9065
16.005
21.159
17.1114
21.4673
18.0714
21.8664
19.0844
22.1865
20.0308
22.5955
21.0696
22.9475
21.9482
23.4733
22.7929
23.9451
23.6567
24.4314
24.375
24.9953
25.1491
25.4891
25.7669
26.0991
26.4859
26.6088
27.1118
27.3045
28.0239
27.4972
0.978347
11.3446
1.97451
11.7592
2.9877
12.2754
4.01624
12.8907
5.05805
13.5996
6.11107
14.3931
7.17264
15.26
8.22437
16.1955
9.3084
17.1527
10.4494
18.0645
11.5673
18.7703
12.7313
19.2051
13.7565
19.5604
14.8512
19.8118
15.9184
20.0918
16.9858
20.3998
18.1142
20.738
19.1064
21.1943
20.1247
21.5772
21.0241
22.0481
22.0653
22.4322
22.96
23.0505
23.7686
23.6227
24.6126
24.1513
25.3193
24.7825
26.0524
25.366
26.6093
26.0518
27.2784
26.6354
27.4478
27.8545
0.953701
10.3909
1.92438
10.7885
2.91166
11.2881
3.91397
11.8884
4.92937
12.5842
5.95605
13.3665
6.99336
14.2227
8.06334
15.1256
9.12976
16.0863
10.1969
16.9974
11.3049
17.6622
12.3863
18.1237
13.592
18.3547
14.6949
18.7088
15.8384
18.9483
16.9052
19.3331
17.912
19.7312
19.0277
20.0786
20.0676
20.5373
21.111
21.0047
21.9831
21.5601
22.9966
22.037
23.899
22.7204
24.6693
23.381
25.472
23.9797
26.1647
24.6733
26.8734
25.3432
27.3633
26.1455
26.8408
27.9702
0.923829
9.46711
1.86365
9.84865
2.81958
10.3321
3.79003
10.9179
4.77341
11.6008
5.76936
12.3705
6.77939
13.2127
7.77861
14.1263
8.81324
15.0516
9.90844
15.9022
11.0353
16.5354
12.2353
16.9237
13.3114
17.2786
14.4917
17.5286
15.5136
17.9263
16.6967
18.15
17.8413
18.5866
18.8885
19.0314
19.9683
19.4575
20.9843
19.9888
22.0139
20.5305
22.8549
21.1959
23.8563
21.719
24.7704
22.4669
25.5232
23.227
26.276
23.9204
26.9093
24.71
27.5413
25.5134
26.4369
27.9453
0.889194
8.57792
1.79329
8.94456
2.71285
9.41259
3.64597
9.98481
4.59084
10.6559
5.54592
11.4154
6.50797
12.2507
7.50866
13.1257
8.53295
14.0274
9.59582
14.8393
10.709
15.4222
11.8208
15.8118
12.991
16.1085
14.1419
16.3777
15.4021
16.666
16.4227
17.1294
17.5569
17.4524
18.6938
17.8945
19.7136
18.4377
20.7862
18.9162
21.8093
19.5073
22.8783
20.127
23.7051
20.8921
24.687
21.4851
25.549
22.365
26.2553
23.2141
26.9462
24.0191
27.5006
24.959
25.858
28.0794
0.850421
7.72749
1.71462
8.08035
2.59363
8.53357
3.48497
9.09347
4.38676
9.75412
5.29985
10.5023
6.2345
11.316
7.16756
12.1926
8.1518
13.0431
9.22054
13.7706
10.3718
14.2709
11.5394
14.6443
12.6588
14.9891
13.7879
15.2486
14.8863
15.5676
16.1513
15.8644
17.2238
16.3799
18.3809
16.7373
19.5303
17.2883
20.5526
17.8939
21.5844
18.4755
22.5814
19.13
23.6383
19.8352
24.4559
20.6675
25.4304
21.3905
26.2358
22.4087
26.9055
23.3493
27.5389
24.3256
25.4368
27.9602
0.80813
6.91936
1.62903
7.25946
2.46426
7.69834
3.31052
8.24722
4.16663
8.89801
5.03365
9.63532
5.9026
10.447
6.82678
11.2684
7.80116
12.0687
8.86578
12.706
9.96653
13.1702
11.072
13.5388
12.2551
13.806
13.4081
14.0956
14.5793
14.3965
15.6646
14.779
16.9166
15.128
17.9539
15.7001
19.1226
16.1196
20.2529
16.7636
21.316
17.4124
22.3506
18.0954
23.3523
18.8335
24.3621
19.6576
25.1491
20.6035
26.0714
21.4865
26.7718
22.6489
27.4452
23.6522
24.8896
27.9924
0.762884
6.15648
1.53783
6.48451
2.32682
6.90936
3.12506
7.44898
3.92998
8.09308
4.74305
8.82225
5.59234
9.59776
6.44842
10.4123
7.41194
11.1052
8.44948
11.6684
9.55293
12.0667
10.71
12.3818
11.846
12.67
12.9999
12.9417
14.0986
13.2978
15.2498
13.6278
16.3676
14.0102
17.6058
14.4618
18.6557
15.0697
19.8385
15.5808
20.9634
16.2875
22.0342
17.0246
23.0575
17.8102
24.0263
18.6888
24.9817
19.6481
25.7892
20.679
26.6194
21.8187
27.236
23.0356
24.2864
27.8392
0.715228
5.44125
1.4425
5.75723
2.18375
6.16811
2.93155
6.70117
3.68608
7.33855
4.4559
8.05244
5.22752
8.82614
6.1056
9.53426
7.0467
10.1641
8.08581
10.6293
9.14705
11.0055
10.2553
11.2735
11.3934
11.5319
12.4898
11.8452
13.6552
12.1324
14.7722
12.5108
15.9044
12.878
17.0391
13.3271
18.228
13.8809
19.3004
14.5084
20.4859
15.1021
21.6054
15.905
22.6748
16.7408
23.7238
17.6397
24.6288
18.7431
25.5418
19.766
26.3373
21.0232
27.0685
22.3044
23.7374
27.6175
0.66572
4.77553
1.34488
5.07807
2.03792
5.47506
2.73508
6.00402
3.43606
6.63757
4.14753
7.34097
4.93712
8.03655
5.74465
8.72673
6.67924
9.22951
7.66229
9.64624
8.74492
9.92285
9.82706
10.1914
10.9298
10.4291
12.0326
10.7425
13.1016
11.0634
14.2618
11.3506
15.3559
11.7839
16.4701
12.2129
17.6323
12.7188
18.8263
13.3144
19.8898
14.0386
21.0958
14.699
22.1767
15.6599
23.276
16.5405
24.3271
17.6919
25.1747
18.9184
26.0578
20.1401
26.7416
21.6206
23.0927
27.3862
0.614994
4.16054
1.24719
4.44588
1.89263
4.82962
2.53698
5.35968
3.1871
5.98744
3.87747
6.6506
4.57887
7.33515
5.42691
7.87869
6.33353
8.3229
7.34479
8.63498
8.35822
8.90942
9.39592
9.15367
10.4238
9.40119
11.4713
9.69507
12.5764
9.95827
13.639
10.2879
14.8044
10.6185
15.8924
11.1249
17.0235
11.5877
18.1895
12.1484
19.381
12.8471
20.4752
13.6048
21.6736
14.4614
22.7118
15.5023
23.837
16.5668
24.8393
17.916
25.6839
19.2955
26.4814
20.8231
22.5538
27.0203
0.564027
3.59651
1.15224
3.85767
1.74992
4.23194
2.34252
4.76708
2.9512
5.37876
3.57959
6.02221
4.33462
6.58012
5.12823
7.08508
6.02859
7.42254
6.97046
7.69311
7.93404
7.94584
8.94031
8.14739
9.90583
8.43568
10.9661
8.63484
12.0057
8.91861
13.081
9.21268
14.1292
9.57028
15.2503
10.0038
16.3648
10.4732
17.5108
11.0023
18.6985
11.6594
19.8793
12.4241
21.0196
13.3211
22.2083
14.3135
23.262
15.5131
24.357
16.821
25.2967
18.3558
26.1007
20.0192
21.8937
26.7607
0.514596
3.08192
1.06317
3.3091
1.61202
3.68309
2.15718
4.22192
2.71646
4.81948
3.36216
5.3765
4.04676
5.89552
4.87046
6.26138
5.72389
6.5691
6.61331
6.80369
7.5316
7.02756
8.46468
7.21431
9.42812
7.47224
10.4155
7.64747
11.4431
7.89102
12.4249
8.23082
13.5033
8.49192
14.5335
8.97361
15.6762
9.33047
16.7879
9.8907
17.9744
10.4728
19.1533
11.2453
20.3684
12.106
21.5321
13.1498
22.7247
14.3205
23.8032
15.7426
24.8446
17.3144
25.7141
19.1497
21.2193
26.3885
0.46969
2.61223
0.98175
2.79704
1.48311
3.18173
1.97442
3.73061
2.52413
4.26977
3.12424
4.77639
3.84875
5.17102
4.58972
5.52041
5.42446
5.73436
6.25185
5.97631
7.13474
6.14466
7.99641
6.35264
8.93788
6.53077
9.86465
6.72069
10.8041
6.9516
11.8112
7.22375
12.7762
7.52687
13.8482
7.90157
14.9372
8.2415
16.0462
8.78173
17.1958
9.3232
18.3954
10.0457
19.6142
10.8872
20.8594
11.9046
22.0445
13.1354
23.2433
14.5438
24.3108
16.2469
25.2783
18.1822
20.477
26.0205
0.432127
2.1801
0.908473
2.32069
1.35138
2.73882
1.81913
3.26286
2.33182
3.75708
2.94279
4.16542
3.60043
4.51338
4.35684
4.764
5.09135
4.99986
5.90324
5.16441
6.7145
5.33341
7.55484
5.51229
8.42503
5.66059
9.32148
5.82424
10.1999
6.07315
11.1485
6.27517
12.137
6.53841
13.0898
6.94871
14.1948
7.13651
15.2489
7.72762
16.3971
8.17505
17.5629
8.87984
18.7927
9.65742
20.0762
10.6211
21.3725
11.839
22.5959
13.3204
23.7819
15.0609
24.7923
17.1718
19.6498
25.6195
0.40216
1.77794
0.831197
1.89165
1.23141
2.33862
1.65663
2.83764
2.17015
3.24355
2.74897
3.5866
3.38817
3.87418
4.06206
4.09011
4.79863
4.26329
5.53666
4.42638
6.30726
4.56281
7.11214
4.70741
7.91115
4.86158
8.76832
4.96707
9.59826
5.24321
10.5059
5.36752
11.4318
5.6125
12.4112
5.96929
13.3834
6.16433
14.4623
6.64878
15.5364
7.10092
16.7085
7.70771
17.9311
8.43481
19.2092
9.34302
20.5813
10.467
21.9189
11.9829
23.1879
13.7919
24.3269
16.0328
18.7736
25.2031
0.372318
1.40562
0.745918
1.51805
1.10331
1.98123
1.5085
2.43245
2.01293
2.73912
2.5543
3.04523
3.16908
3.2594
3.79798
3.46121
4.48937
3.57189
5.18728
3.72848
5.89196
3.85813
6.66295
3.93642
7.39687
4.12766
8.21555
4.14838
9.01202
4.44675
9.87464
4.5049
10.7549
4.73228
11.6813
5.04289
12.6383
5.20729
13.6043
5.6828
14.7148
5.99038
15.7886
6.63388
17.0609
7.16258
18.2937
8.11021
19.7039
9.05676
21.1215
10.5652
22.549
12.3644
23.8071
14.7746
17.7404
24.8404
0.333309
1.07231
0.645404
1.20596
0.980008
1.64662
1.36917
2.04329
1.85651
2.25178
2.36131
2.54042
2.95577
2.66494
3.5321
2.88489
4.19462
2.90937
4.80211
3.12098
5.53293
3.12731
6.18308
3.28628
6.95703
3.35371
7.64976
3.45566
8.45405
3.64246
9.23248
3.72647
10.0802
3.88456
10.9418
4.18125
11.8604
4.28873
12.8098
4.73342
13.84
4.9602
14.9218
5.55201
16.1064
5.97802
17.3763
6.84032
18.7647
7.66837
20.234
9.09587
21.8244
10.774
23.2496
13.3495
16.4832
24.5067
0.281972
0.790338
0.543021
0.94491
0.870219
1.31942
1.22676
1.68675
1.70648
1.77205
2.18848
2.05843
2.73398
2.11944
3.26822
2.35065
3.89493
2.28266
4.46535
2.55056
5.14973
2.44293
5.75984
2.67617
6.477
2.63655
7.13736
2.7953
7.88406
2.89576
8.62348
2.98705
9.41313
3.09491
10.2391
3.35532
11.0955
3.43231
12.0088
3.82011
12.9994
3.96956
14.0242
4.52725
15.203
4.79922
16.3801
5.66321
17.8357
6.21274
19.2463
7.68531
21.0817
8.93864
22.5954
11.8358
14.9087
24.1699
0.22704
0.563298
0.456955
0.714995
0.763533
1.01285
1.10965
1.34063
1.56609
1.31561
1.99395
1.63057
2.53471
1.57867
3.02452
1.86085
3.59654
1.71064
4.15522
1.99188
4.77801
1.82014
5.35769
2.09649
6.01335
1.98088
6.63252
2.17613
7.35142
2.17685
8.01486
2.32361
8.78676
2.32301
9.52354
2.61854
10.3733
2.58252
11.2026
2.9908
12.1842
2.98796
13.1429
3.56859
14.3131
3.62898
15.4613
4.5151
16.9119
4.76212
18.3933
6.20385
20.2808
7.05122
22.0815
10.0351
13.028
23.9622
0.180649
0.382648
0.385351
0.510293
0.679291
0.718906
0.999816
1.02011
1.43037
0.885057
1.84884
1.2121
2.32163
1.10588
2.80062
1.38186
3.31722
1.19403
3.85737
1.45174
4.39491
1.28259
4.97478
1.51662
5.5528
1.40286
6.18072
1.54822
6.81741
1.54016
7.49128
1.64974
8.16499
1.64931
8.92961
1.85392
9.66908
1.84305
10.5392
2.1207
11.3796
2.14751
12.3976
2.55062
13.4015
2.62509
14.6563
3.26026
15.9357
3.48276
17.5995
4.54004
19.3767
5.27398
21.8192
7.59257
10.5431
24.3041
0.145271
0.237377
0.338766
0.316798
0.595316
0.462356
0.930606
0.684818
1.29076
0.524898
1.72788
0.774988
2.11938
0.714387
2.61169
0.88955
3.05276
0.752957
3.59296
0.911538
4.06028
0.815277
4.64064
0.93626
5.15743
0.88607
5.74732
0.958325
6.31616
0.971324
6.93335
1.03255
7.53553
1.04713
8.22566
1.16379
8.89531
1.1734
9.67971
1.3363
10.4574
1.36978
11.3937
1.61441
12.3393
1.67947
13.5221
2.07745
14.7634
2.24145
16.3814
2.92204
18.2243
3.43104
21.0909
4.72596
7.31176
24.3223
0.124552
0.112825
0.296182
0.145168
0.528902
0.229636
0.881119
0.332601
1.16894
0.237078
1.57783
0.366099
1.95259
0.339622
2.41509
0.427057
2.81864
0.349405
3.30622
0.423961
3.74082
0.380671
4.23672
0.440364
4.70659
0.416192
5.21154
0.453382
5.72512
0.457745
6.26804
0.489623
6.82036
0.494809
7.43053
0.553618
8.05044
0.553492
8.74916
0.637577
9.47308
0.64586
10.3147
0.772807
11.2036
0.79058
12.2809
1.0001
13.4677
1.05463
14.9723
1.41744
16.7573
1.64606
19.6546
1.82869
3.97742
22.9889
0.112825
0.257993
0.487629
0.82023
1.05731
1.42341
1.76303
2.19009
2.53949
2.96345
3.34412
3.78449
4.20068
4.65406
5.11181
5.60143
6.09624
6.64986
7.20335
7.84093
8.48679
9.25959
10.0502
11.0503
12.1049
13.5223
15.1684
16.9971
20.9745
0.994377
54.1284
1.00595
54.1287
1.01748
54.1287
1.029
54.1287
1.04051
54.1287
1.05201
54.1287
1.0635
54.1287
1.07499
54.1287
1.08645
54.1288
1.09787
54.1288
1.10923
54.1289
1.1205
54.129
1.13166
54.1291
1.14268
54.1292
1.15353
54.1294
1.16418
54.1296
1.17462
54.1298
1.18482
54.13
1.19475
54.1303
1.20439
54.1306
1.2137
54.1309
1.22267
54.1313
1.23128
54.1316
1.23949
54.132
1.24728
54.1324
1.25464
54.1329
1.26154
54.1333
1.26798
54.1338
1.27392
54.1343
1.27936
54.1348
1.28429
54.1353
1.28869
54.1358
1.29256
54.1364
1.29589
54.1369
1.29859
54.1375
1.30064
54.1382
1.30202
54.1389
1.30272
54.1395
1.30278
54.1402
1.30219
54.1408
1.30097
54.1415
1.29911
54.1421
1.29662
54.1427
1.29351
54.1433
1.28979
54.144
1.28545
54.1446
1.28049
54.1452
1.27492
54.1458
1.26875
54.1464
1.26195
54.147
1.25453
54.1477
1.24649
54.1483
1.2378
54.1489
1.22848
54.1496
1.2185
54.1502
1.20787
54.1509
1.19658
54.1515
1.18463
54.1522
1.17204
54.1528
1.15881
54.1535
1.14503
54.154
1.13071
54.1546
1.11588
54.1551
1.10056
54.1556
1.08476
54.156
1.0685
54.1565
1.0518
54.1569
1.03468
54.1574
1.01715
54.1578
0.999235
54.1582
0.980948
54.1585
0.962304
54.1589
0.943315
54.1592
0.924004
54.1595
0.904382
54.1599
0.884455
54.1602
0.864245
54.1604
0.843758
54.1607
0.823017
54.161
0.802029
54.1612
0.780811
54.1615
0.759375
54.1617
0.73774
54.1619
0.715914
54.1621
0.693914
54.1622
0.671748
54.1624
0.649429
54.1626
0.626955
54.1627
0.604455
54.1627
0.582035
54.1627
0.559753
54.1625
0.537645
54.1623
0.515754
54.1621
0.494107
54.1619
0.472744
54.1616
0.451691
54.1613
0.430991
54.1609
0.410674
54.1606
0.390786
54.1601
0.371367
54.1597
0.352461
54.1591
0.334074
54.1586
0.316174
54.1581
0.298743
54.1577
0.281744
54.1572
0.265152
54.1568
0.248939
54.1564
0.233102
54.1561
0.217632
54.1557
0.202547
54.1553
0.187825
54.155
0.173332
54.1547
0.159142
54.1544
0.145388
54.154
0.132112
54.1535
0.119318
54.153
0.10695
54.1526
0.0949278
54.1523
0.082913
54.1522
0.070618
54.1525
0.0578363