/*--------------------------------*- C++ -*----------------------------------*\
| =========                 |                                                 |
| \\      /  F ield         | OpenFOAM: The Open Source CFD Toolbox           |
|  \\    /   O peration     | Version:  5.x                                   |
|   \\  /    A nd           | Web:      www.OpenFOAM.org                      |
|    \\/     M anipulation  |                                                 |
\*---------------------------------------------------------------------------*/
/*   Windows 32 and 64 bit porting by blueCAPE: http://www.bluecape.com.pt   *\
|  Based on Windows porting (2.0.x v4) by Symscape: http://www.symscape.com   |
\*---------------------------------------------------------------------------*/
FoamFile
{
    version     2.0;
    format      ascii;
    class       volVectorField;
    location    "110";
    object      U;
}
// * * * * * * * * * * * * * * * * * * * * * * * * * * * * * * * * * * * * * //

dimensions      [0 1 -1 0 0 0 0];

internalField   nonuniform List<vector> 
43900
(
(1.16072 -0.00024993 -2.05653e-027)
(1.16766 0.00170104 -5.51547e-027)
(1.16977 0.000511065 2.28575e-030)
(1.16905 0.00171247 2.49474e-030)
(1.17006 0.000934932 3.64435e-030)
(1.17011 0.00167812 3.61225e-030)
(1.17029 0.00140585 7.36363e-027)
(1.17027 0.0015585 -1.47156e-026)
(1.17026 0.00176629 9.21414e-030)
(1.17028 0.00157835 -1.46849e-026)
(1.17031 0.00179356 1.47058e-026)
(1.17035 0.00175873 1.08871e-029)
(1.17039 0.0018056 -1.46518e-026)
(1.17042 0.00184058 2.33022e-029)
(1.17045 0.00187171 2.38787e-029)
(1.17048 0.0019008 2.44166e-029)
(1.1705 0.00192815 -2.92067e-026)
(1.17052 0.00195368 5.07681e-029)
(1.17054 0.00197769 2.9232e-026)
(1.17056 0.00199882 2.62347e-029)
(1.17057 0.00202165 2.66177e-029)
(1.17057 0.00204339 2.69779e-029)
(1.17057 0.00206448 2.73213e-029)
(1.17058 0.00208511 2.76492e-029)
(1.17058 0.00210549 2.79618e-029)
(1.17058 0.00212559 -2.89611e-026)
(1.17058 0.00214529 5.70927e-029)
(1.17058 0.00216495 5.76395e-029)
(1.17058 0.00218484 1.15668e-025)
(1.15983 0.00964395 0)
(1.16577 -0.00377724 0)
(1.16977 0.00754726 0)
(1.16607 0.000387313 0)
(1.16807 0.00524567 0)
(1.16751 0.00302083 0)
(1.16779 0.00423416 0)
(1.16843 0.00466517 0)
(1.16859 0.00424264 0)
(1.16886 0.00516664 0)
(1.16888 0.00510087 0)
(1.1689 0.00536692 0)
(1.16892 0.00558994 0)
(1.16893 0.00576315 0)
(1.16894 0.00592368 0)
(1.16896 0.00607173 0)
(1.16897 0.00620854 0)
(1.16898 0.00633623 0)
(1.169 0.00645694 0)
(1.16901 0.00657107 0)
(1.16902 0.00667772 0)
(1.16903 0.00677811 0)
(1.16904 0.0068741 0)
(1.16905 0.00696568 0)
(1.16906 0.0070529 0)
(1.16907 0.00713587 0)
(1.16907 0.00721549 0)
(1.16908 0.0072908 0)
(1.16909 0.00736295 0)
(1.10846 0.0299504 0)
(1.14914 -0.0163693 0)
(1.16413 0.0264101 0)
(1.16369 -0.00401855 0)
(1.16628 0.0183117 0)
(1.16451 0.00311359 0)
(1.16561 0.0127506 0)
(1.16484 0.00716413 0)
(1.16525 0.00987084 0)
(1.16528 0.00908005 0)
(1.16557 0.00906103 0)
(1.16584 0.00937244 0)
(1.16608 0.0094432 0)
(1.16628 0.00954552 0)
(1.16645 0.00966037 0)
(1.16659 0.00977824 0)
(1.16671 0.00989733 0)
(1.16681 0.010016 0)
(1.16688 0.0101337 0)
(1.16693 0.0102493 0)
(1.16699 0.0103591 0)
(1.16705 0.0104661 0)
(1.1671 0.0105689 0)
(1.16715 0.0106686 0)
(1.1672 0.010765 0)
(1.16724 0.0108595 0)
(1.16728 0.0109498 0)
(1.16733 0.0110369 0)
(1.16737 0.0111218 2.02933e-027)
(1.04764 0.0209504 0)
(1.09587 -0.00794754 0)
(1.13911 0.0210458 0)
(1.16085 0.00573339 0)
(1.16448 0.0213378 0)
(1.1653 0.00840321 0)
(1.16571 0.0189015 0)
(1.16546 0.0113494 0)
(1.1658 0.0160123 0)
(1.16582 0.0134359 0)
(1.16593 0.0143794 0)
(1.166 0.0142019 0)
(1.16606 0.0141567 0)
(1.16612 0.0141764 0)
(1.16618 0.0142108 0)
(1.16626 0.0142603 0)
(1.16633 0.0143214 0)
(1.16642 0.0143932 0)
(1.16654 0.0144701 0)
(1.16666 0.0145546 0)
(1.16678 0.0146436 0)
(1.16689 0.0147381 0)
(1.16699 0.0148368 0)
(1.16709 0.0149383 0)
(1.16718 0.0150411 0)
(1.16727 0.0151462 0)
(1.16736 0.0152549 0)
(1.16744 0.0153645 0)
(1.16752 0.0154718 2.14845e-027)
(1.01114 0.0106177 4.33467e-027)
(1.04867 -0.00142971 0)
(1.08789 0.0113124 0)
(1.12797 0.0121293 0)
(1.15401 0.0183165 0)
(1.16391 0.0152007 0)
(1.16497 0.0207446 0)
(1.1654 0.0164124 0)
(1.16551 0.0197656 0)
(1.16552 0.0180877 0)
(1.16546 0.0189988 0)
(1.16545 0.0189588 0)
(1.16555 0.0190142 0)
(1.16567 0.0190821 0)
(1.16579 0.0191543 0)
(1.16592 0.0192289 0)
(1.16605 0.0193045 0)
(1.16619 0.0193816 0)
(1.1663 0.0194672 0)
(1.1664 0.0195622 0)
(1.16649 0.019665 0)
(1.16658 0.0197755 0)
(1.16667 0.0198936 0)
(1.16676 0.0200183 0)
(1.16685 0.0201493 0)
(1.16694 0.0202808 0)
(1.16702 0.0204151 0)
(1.1671 0.0205543 0)
(1.16718 0.0206991 -9.07328e-027)
(0.984065 0.00677158 -4.52488e-027)
(1.01567 0.000500254 0)
(1.04886 0.00757067 0)
(1.08336 0.0107976 0)
(1.11798 0.0146897 0)
(1.14713 0.0170349 0)
(1.1606 0.0207891 0)
(1.16338 0.0191179 0)
(1.16298 0.0212213 0)
(1.16315 0.0203052 0)
(1.1633 0.0209794 0)
(1.16352 0.0211296 0)
(1.16355 0.0212532 0)
(1.16355 0.021436 0)
(1.16355 0.0216331 0)
(1.16354 0.0218276 0)
(1.16353 0.0220241 0)
(1.16352 0.0222244 0)
(1.1635 0.0224285 0)
(1.16348 0.0226345 0)
(1.16348 0.0228426 0)
(1.16349 0.0230522 0)
(1.1635 0.0232629 0)
(1.16353 0.0234757 0)
(1.16356 0.0236928 0)
(1.1636 0.0239118 0)
(1.16365 0.0241298 0)
(1.16371 0.0243498 0)
(1.16377 0.0245731 4.79893e-027)
(0.961915 0.00484358 0)
(0.990095 0.00108019 0)
(1.01975 0.0057919 0)
(1.05066 0.00860026 0)
(1.08207 0.0115743 0)
(1.11285 0.0147045 0)
(1.14114 0.0181719 0)
(1.1573 0.0191688 0)
(1.16087 0.0209434 0)
(1.16079 0.0202509 0)
(1.16076 0.0208519 0)
(1.16072 0.0211065 0)
(1.16063 0.02137 0)
(1.16053 0.0216998 0)
(1.16043 0.0220322 0)
(1.16032 0.0223638 0)
(1.16022 0.0226995 0)
(1.16012 0.0230401 0)
(1.16003 0.0233813 0)
(1.15995 0.0237219 0)
(1.15988 0.0240626 0)
(1.15983 0.0244021 0)
(1.1598 0.0247409 0)
(1.15977 0.0250787 0)
(1.15975 0.0254153 0)
(1.15974 0.0257542 0)
(1.15974 0.026091 0)
(1.15976 0.0264249 0)
(1.15979 0.0267563 0)
(0.945108 0.00328275 0)
(0.971109 0.00144906 0)
(0.998501 0.00459779 0)
(1.02709 0.00691591 0)
(1.05636 0.00925527 0)
(1.08564 0.0117852 0)
(1.11399 0.014471 0)
(1.14015 0.0168863 0)
(1.15573 0.0188965 0)
(1.15853 0.0190156 0)
(1.15836 0.0196707 0)
(1.15806 0.0201331 0)
(1.15788 0.020595 0)
(1.15772 0.0211175 0)
(1.15757 0.0216394 0)
(1.15744 0.0221632 0)
(1.15732 0.0226903 0)
(1.15722 0.0232195 0)
(1.15715 0.0237474 0)
(1.15709 0.0242733 0)
(1.15704 0.0247982 0)
(1.15702 0.0253186 0)
(1.157 0.0258367 0)
(1.157 0.0263508 0)
(1.15701 0.0268581 0)
(1.15703 0.0273626 0)
(1.15706 0.0278631 0)
(1.1571 0.0283575 0)
(1.15716 0.0288416 0)
(0.93087 0.00214493 0)
(0.95569 0.0018388 0)
(0.98188 0.00409609 0)
(1.00921 0.00611961 0)
(1.03728 0.00813438 0)
(1.06558 0.0102448 0)
(1.09344 0.012455 0)
(1.11986 0.0146872 0)
(1.14317 0.0169257 0)
(1.15357 0.0180668 0)
(1.15441 0.0189052 0)
(1.15413 0.019509 0)
(1.15393 0.0201765 0)
(1.15377 0.0208913 0)
(1.15364 0.0215992 0)
(1.15353 0.0223082 0)
(1.15345 0.0230179 0)
(1.15339 0.0237266 0)
(1.15335 0.0244336 0)
(1.15335 0.0251373 0)
(1.15335 0.0258398 0)
(1.15338 0.0265367 0)
(1.15343 0.0272307 0)
(1.15349 0.0279202 0)
(1.15356 0.0286025 0)
(1.15365 0.0292785 0)
(1.15376 0.0299496 0)
(1.15387 0.0306145 0)
(1.154 0.0312728 0)
(0.917813 0.00172827 0)
(0.941798 0.00196296 0)
(0.967193 0.00390358 0)
(0.993715 0.00575626 0)
(1.02101 0.00758949 0)
(1.04864 0.00947556 0)
(1.07603 0.0114254 0)
(1.10241 0.0134017 0)
(1.1266 0.0154243 0)
(1.14324 0.0170942 0)
(1.14651 0.0183058 0)
(1.14639 0.019119 0)
(1.14622 0.0200456 0)
(1.14609 0.0209968 0)
(1.146 0.0219308 0)
(1.14594 0.0228569 0)
(1.14591 0.0237744 0)
(1.14591 0.024683 0)
(1.14594 0.0255836 0)
(1.14599 0.0264752 0)
(1.14605 0.0273604 0)
(1.14614 0.0282343 0)
(1.14625 0.0291032 0)
(1.14638 0.029963 0)
(1.14652 0.030813 0)
(1.14668 0.0316539 0)
(1.14686 0.0324847 0)
(1.14705 0.0333046 0)
(1.14727 0.0341198 -1.24772e-026)
(0.905991 0.0013561 0)
(0.929415 0.00199877 0)
(0.954266 0.00370868 0)
(0.980289 0.00540911 0)
(1.00712 0.00709822 0)
(1.03433 0.00881826 0)
(1.06141 0.0105755 0)
(1.08767 0.0123433 0)
(1.11203 0.0141169 0)
(1.13093 0.0158598 0)
(1.13629 0.0173857 0)
(1.13644 0.0185088 0)
(1.13636 0.0197254 0)
(1.13631 0.0209528 0)
(1.13629 0.0221566 0)
(1.13631 0.0233429 0)
(1.13635 0.024512 0)
(1.13642 0.0256619 0)
(1.13653 0.0267967 0)
(1.13665 0.0279143 0)
(1.13681 0.0290142 0)
(1.13697 0.0300994 0)
(1.13716 0.0311686 0)
(1.13739 0.0322213 0)
(1.13763 0.0332614 0)
(1.13789 0.0342797 0)
(1.13818 0.0352857 0)
(1.13848 0.0362727 0)
(1.13881 0.0372435 1.3179e-026)
(0.895287 0.00104777 0)
(0.918321 0.00211722 0)
(0.942762 0.0037222 0)
(0.968371 0.00535462 0)
(0.994856 0.00699798 0)
(1.02182 0.0086721 0)
(1.04876 0.010375 0)
(1.07497 0.0120799 0)
(1.09944 0.0137627 0)
(1.11935 0.015524 0)
(1.12594 0.0172202 0)
(1.12641 0.0185686 0)
(1.12649 0.0199935 0)
(1.12659 0.0214298 0)
(1.12672 0.0228485 0)
(1.12687 0.024247 0)
(1.12705 0.0256228 0)
(1.12726 0.0269828 0)
(1.12748 0.0283186 0)
(1.12775 0.0296339 0)
(1.12803 0.0309346 0)
(1.12832 0.0322047 0)
(1.12865 0.0334618 0)
(1.12898 0.0347007 0)
(1.12936 0.0359066 0)
(1.12977 0.0371052 0)
(1.13016 0.0382761 0)
(1.13062 0.039419 0)
(1.13108 0.0405535 1.43622e-026)
(0.884674 0.000902972 0)
(0.907413 0.00234099 0)
(0.931588 0.00402544 0)
(0.956928 0.00573073 0)
(0.983124 0.00745107 0)
(1.00982 0.00920094 0)
(1.03658 0.0109799 0)
(1.06277 0.0127652 0)
(1.08737 0.0145181 0)
(1.10783 0.0163882 0)
(1.11517 0.0182301 0)
(1.1159 0.0197443 0)
(1.11615 0.0213186 0)
(1.11643 0.0229251 0)
(1.1167 0.02451 0)
(1.11704 0.026076 0)
(1.11737 0.0276314 0)
(1.11773 0.0291543 0)
(1.11816 0.0306645 0)
(1.11852 0.0321609 0)
(1.11902 0.0336144 0)
(1.11948 0.0350701 0)
(1.1199 0.036497 0)
(1.12048 0.0378793 0)
(1.121 0.0392823 0)
(1.12152 0.0406227 0)
(1.12218 0.0419502 0)
(1.12274 0.0432784 0)
(1.12336 0.0445438 -1.51758e-026)
(0.873538 0.000895961 0)
(0.896014 0.00262513 0)
(0.919956 0.00449397 0)
(0.945099 0.00637017 0)
(0.971127 0.00825996 0)
(0.997655 0.010172 0)
(1.02423 0.0121021 0)
(1.05028 0.0140341 0)
(1.07491 0.0159304 0)
(1.09568 0.0179791 0)
(1.10346 0.0200156 0)
(1.10439 0.0217075 0)
(1.10478 0.0234741 0)
(1.10513 0.0252535 0)
(1.10564 0.0270302 0)
(1.10601 0.0287906 0)
(1.10653 0.0305084 0)
(1.10711 0.0322304 0)
(1.10752 0.0339269 0)
(1.10824 0.035567 0)
(1.1088 0.0372425 0)
(1.10933 0.0388507 0)
(1.11018 0.0404169 0)
(1.11069 0.0420439 0)
(1.11141 0.0435289 0)
(1.11232 0.0450631 0)
(1.11289 0.0465801 0)
(1.11376 0.0479839 0)
(1.11467 0.0494594 -1.66104e-026)
(0.86171 0.000969017 0)
(0.883939 0.00295826 0)
(0.907663 0.00505388 0)
(0.932624 0.00715152 0)
(0.958506 0.00926245 0)
(0.984933 0.0113924 0)
(1.01144 0.0135329 0)
(1.03742 0.0156611 0)
(1.06198 0.0177397 0)
(1.08283 0.0199918 0)
(1.09093 0.0222641 0)
(1.09202 0.0241967 0)
(1.09244 0.0261551 0)
(1.09311 0.0281879 0)
(1.09342 0.0301825 0)
(1.09423 0.0321397 0)
(1.0948 0.0341112 0)
(1.09526 0.0360381 0)
(1.09634 0.0378952 0)
(1.09673 0.0398346 0)
(1.09755 0.0416337 0)
(1.09867 0.0434231 0)
(1.099 0.04532 0)
(1.10016 0.0469325 0)
(1.1012 0.0487523 0)
(1.10167 0.0504576 0)
(1.10304 0.052016 0)
(1.10399 0.053768 0)
(1.10469 0.0552995 1.75584e-026)
(0.849094 0.00109217 0)
(0.871074 0.00334854 0)
(0.894586 0.00571631 0)
(0.919375 0.00808363 0)
(0.945127 0.0104634 0)
(0.971469 0.0128618 0)
(0.997939 0.0152678 0)
(1.02394 0.0176534 0)
(1.04854 0.0199694 0)
(1.06946 0.0224872 0)
(1.07767 0.0250295 0)
(1.0789 0.0271865 0)
(1.07975 0.0294384 0)
(1.07992 0.0316997 0)
(1.0812 0.033944 0)
(1.08149 0.0361874 0)
(1.08223 0.0383936 0)
(1.08365 0.0404819 0)
(1.08366 0.0427568 0)
(1.08513 0.0447518 0)
(1.08624 0.0468156 0)
(1.08639 0.0490464 0)
(1.08831 0.0507554 0)
(1.08908 0.0529817 0)
(1.08963 0.0548494 0)
(1.0917 0.0566054 0)
(1.09231 0.0587185 0)
(1.09328 0.0603369 0)
(1.09528 0.0621894 0)
(0.835553 0.00125393 0)
(0.857273 0.00380676 0)
(0.880568 0.00649826 0)
(0.905184 0.0091887 0)
(0.930813 0.0118909 0)
(0.95708 0.0146121 0)
(0.983529 0.01734 0)
(1.00956 0.0200437 0)
(1.03427 0.0226747 0)
(1.05519 0.025483 0)
(1.06376 0.0283615 0)
(1.06531 0.0307914 0)
(1.06545 0.0333357 0)
(1.0673 0.0358455 0)
(1.067 0.0384135 0)
(1.06854 0.0409513 0)
(1.06991 0.0432517 0)
(1.06957 0.0459955 0)
(1.07205 0.0481041 0)
(1.07258 0.0505343 0)
(1.07299 0.0531433 0)
(1.07571 0.0548589 0)
(1.07583 0.0576766 0)
(1.07697 0.0596089 0)
(1.07953 0.0616001 0)
(1.07961 0.064163 0)
(1.08133 0.065776 0)
(1.08361 0.0680167 0)
(1.08388 0.0700141 0)
(0.820969 0.00144652 0)
(0.84241 0.00433434 0)
(0.865476 0.00740022 0)
(0.889913 0.0104654 0)
(0.915413 0.0135418 0)
(0.941605 0.0166376 0)
(0.968031 0.0197391 0)
(0.9941 0.0228084 0)
(1.01894 0.0257719 0)
(1.04031 0.0290525 0)
(1.04873 0.0321629 0)
(1.04994 0.0350805 0)
(1.05227 0.0376688 0)
(1.05131 0.0407971 0)
(1.05399 0.0435732 0)
(1.0546 0.0461491 0)
(1.0545 0.0494883 0)
(1.05788 0.0515447 0)
(1.0576 0.0546224 0)
(1.05886 0.0575247 0)
(1.06185 0.0592552 0)
(1.06149 0.06288 0)
(1.06349 0.0646793 0)
(1.06612 0.0670902 0)
(1.06606 0.0702014 0)
(1.06851 0.0716452 0)
(1.0708 0.074517 0)
(1.07116 0.0766887 0)
(1.07395 0.0786299 0)
(0.805264 0.00166623 5.04594e-026)
(0.826406 0.00493103 0)
(0.849227 0.00842048 0)
(0.873475 0.0119101 0)
(0.898846 0.0154104 0)
(0.924972 0.0189311 0)
(0.951407 0.0224569 0)
(0.977572 0.0259501 0)
(1.00258 0.0293756 0)
(1.02357 0.0328829 0)
(1.03278 0.0367816 0)
(1.03577 0.0394223 0)
(1.03442 0.0432685 0)
(1.03801 0.0459983 0)
(1.03782 0.0491929 0)
(1.0387 0.0530499 0)
(1.04229 0.0551213 0)
(1.04151 0.0589899 0)
(1.0435 0.06199 0)
(1.04643 0.063981 0)
(1.04616 0.0684845 0)
(1.04866 0.0699961 0)
(1.05139 0.0731469 0)
(1.05151 0.0766566 0)
(1.05437 0.0780238 0)
(1.05678 0.0816819 0)
(1.05742 0.0838919 0)
(1.06051 0.0861468 0)
(1.06266 0.0889455 0)
(0.788384 0.00191405 1.75276e-027)
(0.809206 0.0056008 0)
(0.831765 0.00956553 0)
(0.855813 0.0135318 0)
(0.881045 0.0175087 0)
(0.907091 0.0215073 0)
(0.933492 0.0255096 0)
(0.959653 0.0294618 0)
(0.984764 0.0332477 0)
(1.00703 0.0376049 0)
(1.01635 0.0411433 0)
(1.01622 0.0455612 0)
(1.02087 0.0483001 0)
(1.02023 0.0522543 0)
(1.02155 0.0564563 0)
(1.02491 0.0586229 0)
(1.02424 0.0635154 0)
(1.02679 0.0664536 0)
(1.02982 0.0690315 0)
(1.02971 0.0741419 0)
(1.03241 0.0756295 0)
(1.03551 0.07945 0)
(1.03576 0.0832337 0)
(1.03879 0.0848359 0)
(1.04176 0.0891375 0)
(1.04255 0.0914168 0)
(1.04565 0.0940406 0)
(1.04868 0.0971804 0)
(1.0497 0.0995567 0)
(0.770282 0.00219005 -5.84421e-026)
(0.790758 0.00634537 0)
(0.813035 0.0108378 0)
(0.83687 0.0153328 0)
(0.861962 0.0198373 0)
(0.887953 0.0243625 0)
(0.914417 0.0288894 0)
(0.94082 0.0333738 0)
(0.966355 0.0377945 0)
(0.987601 0.0421478 0)
(0.996541 0.0474949 0)
(1.00249 0.0504939 0)
(1.00104 0.0550958 0)
(1.00241 0.0595437 0)
(1.00649 0.0621355 0)
(1.00617 0.0680635 0)
(1.0085 0.0709433 0)
(1.01181 0.0742209 0)
(1.01194 0.0795818 0)
(1.01478 0.0815766 0)
(1.01866 0.0860083 0)
(1.01886 0.0901483 0)
(1.02174 0.0921854 0)
(1.02559 0.0967439 0)
(1.02661 0.0996189 0)
(1.0297 0.102473 0)
(1.03369 0.106038 0)
(1.03455 0.10905 0)
(1.0384 0.111642 0)
(0.75093 0.00249777 0)
(0.771037 0.00717154 0)
(0.79302 0.0122495 0)
(0.816636 0.0173332 0)
(0.841584 0.0224283 0)
(0.867499 0.0275502 0)
(0.893915 0.0326779 0)
(0.920205 0.037741 0)
(0.945515 0.0425979 0)
(0.968339 0.048144 0)
(0.980776 0.0524467 0)
(0.979443 0.0578529 0)
(0.982566 0.0623582 0)
(0.987456 0.0655706 0)
(0.986201 0.0722779 0)
(0.987852 0.0751703 0)
(0.99285 0.0795249 0)
(0.99358 0.0849182 0)
(0.995522 0.0881257 0)
(0.999972 0.0924504 0)
(1.00033 0.0973703 0)
(1.00334 0.0997357 0)
(1.00853 0.104439 0)
(1.00951 0.108585 0)
(1.01224 0.11121 0)
(1.01713 0.115433 0)
(1.01815 0.119089 0)
(1.02228 0.121144 0)
(1.02714 0.125395 0)
(0.730302 0.00283424 -7.24442e-026)
(0.750013 0.00807586 0)
(0.771672 0.0137937 0)
(0.795039 0.0195187 0)
(0.819815 0.0252527 0)
(0.84565 0.0310087 0)
(0.872135 0.0367602 0)
(0.898808 0.0424448 0)
(0.925126 0.048023 0)
(0.948153 0.053449 0)
(0.955436 0.0604525 0)
(0.962546 0.0647221 0)
(0.966303 0.068696 0)
(0.963773 0.0761112 0)
(0.966496 0.0794462 0)
(0.973378 0.0844543 0)
(0.973236 0.0903208 0)
(0.97359 0.0948114 0)
(0.979773 0.0983321 0)
(0.981283 0.104798 0)
(0.984189 0.107584 0)
(0.989907 0.112335 0)
(0.990117 0.118056 0)
(0.992876 0.119839 0)
(0.99941 0.125108 0)
(1.00104 0.129582 0)
(1.0052 0.131192 0)
(1.0103 0.137113 0)
(1.0113 0.139682 6.62978e-026)
(0.708409 0.00319966 -2.57708e-027)
(0.727703 0.00905945 0)
(0.749032 0.0154727 0)
(0.772163 0.0218965 0)
(0.796806 0.0283318 0)
(0.822612 0.0347983 0)
(0.849138 0.0412729 0)
(0.875756 0.0476784 0)
(0.901468 0.0538401 0)
(0.923561 0.0610813 0)
(0.939061 0.0661697 0)
(0.942139 0.0720299 0)
(0.939974 0.0794311 0)
(0.945381 0.0833497 0)
(0.95175 0.0886373 0)
(0.949735 0.0958083 0)
(0.950569 0.100955 0)
(0.959481 0.104098 0)
(0.961266 0.112496 0)
(0.962391 0.115257 0)
(0.968385 0.120318 0)
(0.969196 0.127646 0)
(0.973922 0.128555 0)
(0.980867 0.135367 0)
(0.982057 0.140552 0)
(0.986222 0.141544 0)
(0.991259 0.149093 0)
(0.993791 0.151384 0)
(1.00095 0.15467 1.33724e-027)
(0.685276 0.00359457 8.41565e-026)
(0.704125 0.0101249 0)
(0.725091 0.0172919 0)
(0.747938 0.0244744 0)
(0.772371 0.0316709 0)
(0.798033 0.0388989 0)
(0.824503 0.0461258 0)
(0.851307 0.0532704 0)
(0.878079 0.0603644 0)
(0.903605 0.0665823 0)
(0.913835 0.0756646 0)
(0.915284 0.0815838 0)
(0.923344 0.0866974 0)
(0.927432 0.0928593 0)
(0.924363 0.101317 0)
(0.928121 0.106065 0)
(0.937601 0.110232 0)
(0.937972 0.119896 0)
(0.938873 0.122593 0)
(0.945373 0.12867 0)
(0.947838 0.136969 0)
(0.954893 0.137612 0)
(0.958886 0.146053 0)
(0.960147 0.150996 0)
(0.966635 0.152513 0)
(0.971396 0.16187 0)
(0.975561 0.163377 0)
(0.982941 0.167351 0)
(0.984563 0.173034 -7.59579e-026)
(0.660924 0.00401228 0)
(0.679305 0.0112607 0)
(0.699894 0.0192285 0)
(0.722465 0.0272128 0)
(0.74674 0.0352095 0)
(0.772392 0.0432394 0)
(0.79903 0.0512712 0)
(0.82614 0.0592059 0)
(0.852941 0.0667379 0)
(0.876249 0.0761044 0)
(0.888106 0.0827241 0)
(0.89887 0.0896542 0)
(0.900467 0.0965741 0)
(0.898078 0.105855 0)
(0.905544 0.110139 0)
(0.912864 0.116673 0)
(0.911501 0.126958 0)
(0.915453 0.128852 0)
(0.921285 0.138234 0)
(0.925184 0.14469 0)
(0.932248 0.146752 0)
(0.933929 0.157417 0)
(0.93814 0.160519 0)
(0.947159 0.165583 0)
(0.949007 0.173996 0)
(0.955366 0.174956 0)
(0.962197 0.181186 0)
(0.964879 0.186967 0)
(0.974108 0.190417 0)
(0.635449 0.00444899 0)
(0.653343 0.0124644 0)
(0.673539 0.021283 0)
(0.695812 0.030125 0)
(0.719882 0.0389893 0)
(0.745405 0.0478999 0)
(0.771955 0.0568247 0)
(0.798992 0.0656832 0)
(0.825919 0.0745554 0)
(0.850311 0.0825129 0)
(0.869504 0.0921371 0)
(0.870665 0.0996757 0)
(0.870836 0.109086 0)
(0.881415 0.113784 0)
(0.884177 0.123385 0)
(0.883945 0.131678 0)
(0.892359 0.135353 0)
(0.894892 0.147744 0)
(0.901011 0.151127 0)
(0.906783 0.156984 0)
(0.90814 0.168575 0)
(0.916067 0.169458 0)
(0.922318 0.178966 0)
(0.925669 0.184288 0)
(0.935772 0.187745 0)
(0.939311 0.196545 0)
(0.943957 0.200056 0)
(0.95266 0.205537 0)
(0.956918 0.209396 8.97646e-026)
(0.608916 0.00490227 0)
(0.626297 0.0137284 0)
(0.646067 0.0234371 0)
(0.668008 0.0331722 0)
(0.691848 0.0429314 0)
(0.717263 0.0527394 0)
(0.743877 0.062555 0)
(0.77125 0.0722459 0)
(0.798988 0.081616 0)
(0.827229 0.0918038 0)
(0.836201 0.102186 0)
(0.844024 0.110746 0)
(0.854454 0.11683 0)
(0.853718 0.129102 0)
(0.857746 0.134557 0)
(0.865605 0.143307 0)
(0.865984 0.154965 0)
(0.874703 0.157082 0)
(0.879296 0.168341 0)
(0.881952 0.176273 0)
(0.892579 0.179784 0)
(0.895161 0.192525 0)
(0.902547 0.193718 0)
(0.911243 0.202572 0)
(0.91425 0.210342 0)
(0.922137 0.213115 0)
(0.930865 0.222072 0)
(0.935755 0.224224 0)
(0.945296 0.231216 1.34086e-027)
(0.581448 0.00536178 0)
(0.598302 0.0150396 0)
(0.617642 0.0256707 0)
(0.639257 0.0363334 0)
(0.662886 0.0470297 0)
(0.688214 0.057788 0)
(0.714855 0.0685718 0)
(0.742314 0.079287 0)
(0.769966 0.0897091 0)
(0.792689 0.101117 0)
(0.81432 0.110595 0)
(0.82385 0.120017 0)
(0.822055 0.13279 0)
(0.830198 0.136918 0)
(0.83446 0.150656 0)
(0.836467 0.158867 0)
(0.848148 0.163949 0)
(0.850019 0.179265 0)
(0.855289 0.182374 0)
(0.864191 0.191685 0)
(0.867173 0.203018 0)
(0.877452 0.204726 0)
(0.884169 0.217434 0)
(0.888019 0.222318 0)
(0.899281 0.227886 0)
(0.906104 0.237443 0)
(0.912513 0.239998 0)
(0.923597 0.248755 0)
(0.927927 0.252766 -2.06021e-025)
(0.553172 0.00581825 0)
(0.569479 0.0163816 0)
(0.588358 0.0279551 0)
(0.609601 0.0395651 0)
(0.632953 0.0512197 0)
(0.6581 0.0629484 0)
(0.684673 0.0747036 0)
(0.712238 0.0863397 0)
(0.740496 0.0979471 0)
(0.770624 0.109173 0)
(0.783815 0.121579 0)
(0.789395 0.133396 0)
(0.801796 0.139842 0)
(0.801742 0.155275 0)
(0.806966 0.161703 0)
(0.817563 0.171793 0)
(0.818586 0.185786 0)
(0.827723 0.189135 0)
(0.833658 0.203576 0)
(0.837143 0.211172 0)
(0.849518 0.215573 0)
(0.855582 0.231413 0)
(0.862336 0.233601 0)
(0.873234 0.243714 0)
(0.877235 0.251508 0)
(0.889322 0.257115 0)
(0.898308 0.265076 0)
(0.904274 0.269515 0)
(0.918105 0.276869 -1.19761e-027)
(0.524253 0.00626513 0)
(0.540005 0.0177424 0)
(0.558416 0.0302676 0)
(0.579292 0.0428335 0)
(0.602391 0.0554565 0)
(0.627421 0.0681708 0)
(0.654024 0.0809374 0)
(0.681718 0.0936538 0)
(0.709817 0.105864 0)
(0.734549 0.119517 0)
(0.756765 0.13265 0)
(0.768066 0.140636 0)
(0.767363 0.157936 0)
(0.777159 0.164546 0)
(0.785258 0.177605 0)
(0.784773 0.189824 0)
(0.796307 0.195358 0)
(0.801021 0.213754 0)
(0.808916 0.217949 0)
(0.821195 0.228635 0)
(0.822861 0.241891 0)
(0.833445 0.244611 0)
(0.84246 0.260055 0)
(0.849477 0.264298 0)
(0.863693 0.273674 0)
(0.869688 0.281106 0)
(0.881583 0.28747 0)
(0.892153 0.296615 0)
(0.898347 0.300118 1.17941e-025)
(0.494847 0.00669458 0)
(0.510033 0.0191106 0)
(0.527953 0.0325902 0)
(0.548421 0.046117 0)
(0.571196 0.0597216 0)
(0.595981 0.0734389 0)
(0.622418 0.0872165 0)
(0.650135 0.100888 0)
(0.679237 0.114732 0)
(0.709513 0.127439 0)
(0.725769 0.140943 0)
(0.731762 0.158366 0)
(0.745552 0.165194 0)
(0.748513 0.18172 0)
(0.75154 0.190759 0)
(0.765334 0.202994 0)
(0.766695 0.219953 0)
(0.778682 0.223611 0)
(0.785054 0.240389 0)
(0.789795 0.249372 0)
(0.805664 0.257955 0)
(0.809103 0.273706 0)
(0.821774 0.275728 0)
(0.833434 0.291233 0)
(0.839851 0.295973 0)
(0.854169 0.305237 0)
(0.861917 0.315218 0)
(0.873824 0.318077 0)
(0.890174 0.32927 1.27422e-025)
(0.465137 0.00708934 0)
(0.479753 0.0204559 0)
(0.497175 0.0348664 0)
(0.517229 0.049326 0)
(0.539696 0.0638784 0)
(0.56431 0.0785596 0)
(0.590756 0.0933265 0)
(0.618644 0.108081 0)
(0.647327 0.122141 0)
(0.672862 0.138912 0)
(0.694263 0.154445 0)
(0.711019 0.163991 0)
(0.710025 0.181778 0)
(0.720588 0.191009 0)
(0.729706 0.209642 0)
(0.730875 0.221257 0)
(0.744449 0.228364 0)
(0.747393 0.250541 0)
(0.760291 0.255111 0)
(0.771101 0.271985 0)
(0.775121 0.282434 0)
(0.790966 0.288249 0)
(0.797251 0.307033 0)
(0.810407 0.309162 0)
(0.825082 0.325639 0)
(0.831925 0.330513 0)
(0.847352 0.338153 0)
(0.859886 0.349893 0)
(0.869606 0.352546 -1.35242e-025)
(0.435321 0.00744682 0)
(0.449369 0.0217712 0)
(0.466285 0.0370839 0)
(0.485905 0.0524531 0)
(0.508021 0.0679451 0)
(0.532353 0.0835984 0)
(0.558533 0.0993693 0)
(0.586069 0.115096 0)
(0.614721 0.131396 0)
(0.645264 0.145676 0)
(0.668056 0.161386 0)
(0.670903 0.17972 0)
(0.686545 0.191206 0)
(0.690238 0.210988 0)
(0.694416 0.219915 0)
(0.709735 0.235297 0)
(0.710806 0.255198 0)
(0.725594 0.261134 0)
(0.729767 0.281159 0)
(0.741901 0.287583 0)
(0.758801 0.305317 0)
(0.763026 0.318179 0)
(0.778485 0.322734 0)
(0.78714 0.341821 0)
(0.800873 0.344708 0)
(0.818963 0.361663 0)
(0.825951 0.36679 0)
(0.843376 0.373843 0)
(0.858104 0.384613 1.44958e-025)
(0.405586 0.00775532 0)
(0.419071 0.0230348 0)
(0.435474 0.0392001 0)
(0.454647 0.0554269 0)
(0.476394 0.0718 0)
(0.500453 0.0883516 0)
(0.526513 0.105023 0)
(0.554263 0.121745 0)
(0.583488 0.137534 0)
(0.610296 0.155784 0)
(0.629375 0.17437 0)
(0.649288 0.188755 0)
(0.649614 0.207999 0)
(0.659586 0.217213 0)
(0.671394 0.23986 0)
(0.672781 0.254966 0)
(0.688968 0.264324 0)
(0.690951 0.288112 0)
(0.709342 0.294813 0)
(0.715645 0.316718 0)
(0.725626 0.323136 0)
(0.74532 0.340049 0)
(0.750528 0.355501 0)
(0.769261 0.361093 0)
(0.779918 0.379167 0)
(0.793895 0.382568 0)
(0.817201 0.398148 0)
(0.824649 0.404956 0)
(0.843024 0.411084 -3.08039e-025)
(0.376126 0.00800819 0)
(0.38906 0.0242329 0)
(0.40495 0.0411885 0)
(0.423669 0.0582144 0)
(0.445035 0.0754199 0)
(0.468789 0.092835 0)
(0.494594 0.110411 0)
(0.521993 0.127857 0)
(0.550753 0.146593 0)
(0.579334 0.163139 0)
(0.604751 0.181426 0)
(0.608524 0.200844 0)
(0.625914 0.213945 0)
(0.627287 0.240231 0)
(0.635692 0.249199 0)
(0.650188 0.270302 0)
(0.651401 0.288896 0)
(0.670247 0.299388 0)
(0.672942 0.323247 0)
(0.691804 0.32994 0)
(0.70268 0.355345 0)
(0.712475 0.36296 0)
(0.734495 0.377519 0)
(0.741376 0.394262 0)
(0.762978 0.399454 0)
(0.775074 0.418694 0)
(0.790127 0.422532 0)
(0.816587 0.438444 0)
(0.825274 0.44501 3.49975e-028)
(0.347128 0.00819804 0)
(0.359528 0.0253488 0)
(0.374913 0.0430145 0)
(0.393179 0.0607611 0)
(0.414159 0.0787164 0)
(0.437598 0.0968996 0)
(0.463182 0.115254 0)
(0.490602 0.13386 0)
(0.519331 0.15088 0)
(0.547421 0.172532 0)
(0.562954 0.19124 0)
(0.586506 0.209925 0)
(0.585209 0.233734 0)
(0.600864 0.243864 0)
(0.604878 0.270604 0)
(0.611172 0.283244 0)
(0.63031 0.30485 0)
(0.632482 0.324787 0)
(0.653045 0.337131 0)
(0.656484 0.361545 0)
(0.676294 0.367924 0)
(0.691546 0.395513 0)
(0.70202 0.403946 0)
(0.72626 0.417463 0)
(0.735013 0.436719 0)
(0.759718 0.441195 0)
(0.773247 0.460151 0)
(0.78956 0.463914 0)
(0.819888 0.480206 8.50997e-028)
(0.318769 0.00832081 0)
(0.330659 0.0263729 0)
(0.345549 0.0446577 0)
(0.363368 0.0630412 0)
(0.38396 0.0816715 0)
(0.407065 0.100553 0)
(0.432334 0.119652 0)
(0.459251 0.13855 0)
(0.487683 0.159675 0)
(0.513307 0.177206 0)
(0.539307 0.200742 0)
(0.542874 0.218934 0)
(0.561195 0.237433 0)
(0.561922 0.26618 0)
(0.575458 0.277563 0)
(0.58575 0.306252 0)
(0.589968 0.321178 0)
(0.610901 0.338843 0)
(0.61325 0.363523 0)
(0.636994 0.377586 0)
(0.642084 0.403074 0)
(0.663779 0.408685 0)
(0.683219 0.437875 0)
(0.69444 0.447565 0)
(0.72118 0.461046 0)
(0.731013 0.479007 0)
(0.758689 0.486267 0)
(0.775812 0.503905 0)
(0.793551 0.507866 1.84355e-025)
(0.291209 0.00837196 0)
(0.302615 0.0272945 0)
(0.317024 0.0460947 0)
(0.334408 0.0650215 0)
(0.354614 0.0842324 0)
(0.377366 0.103714 0)
(0.402291 0.123404 0)
(0.42899 0.143702 0)
(0.456346 0.161673 0)
(0.485053 0.186198 0)
(0.498266 0.204766 0)
(0.520338 0.230128 0)
(0.51848 0.252894 0)
(0.537338 0.270995 0)
(0.538001 0.299856 0)
(0.550546 0.312139 0)
(0.565299 0.342905 0)
(0.569266 0.361854 0)
(0.593115 0.380482 0)
(0.596935 0.404574 0)
(0.622891 0.420045 0)
(0.631166 0.446803 0)
(0.653688 0.452762 0)
(0.677023 0.482463 0)
(0.689113 0.494084 0)
(0.719293 0.507302 0)
(0.731895 0.525382 0)
(0.76285 0.531838 0)
(0.782834 0.548797 -1.92676e-025)
(0.264596 0.00834652 0)
(0.275548 0.0281001 0)
(0.289494 0.0472958 0)
(0.306464 0.066659 0)
(0.326305 0.0863413 0)
(0.348719 0.106295 0)
(0.373309 0.126486 0)
(0.399573 0.146266 0)
(0.427831 0.169242 0)
(0.448649 0.18849 0)
(0.47305 0.215334 0)
(0.475529 0.235803 0)
(0.495831 0.260206 0)
(0.492274 0.28536 0)
(0.51376 0.308009 0)
(0.515645 0.33927 0)
(0.528892 0.351479 0)
(0.545767 0.382691 0)
(0.550234 0.403756 0)
(0.576992 0.422279 0)
(0.582894 0.447837 0)
(0.612471 0.465847 0)
(0.622667 0.493706 0)
(0.646218 0.500814 0)
(0.674232 0.529728 0)
(0.688047 0.542923 0)
(0.721399 0.555355 0)
(0.737948 0.5725 0)
(0.770786 0.578463 2.05308e-025)
(0.239062 0.00824144 0)
(0.249593 0.0287817 0)
(0.263095 0.0482428 0)
(0.279684 0.0679376 0)
(0.299197 0.087979 0)
(0.321309 0.108291 0)
(0.345588 0.128787 0)
(0.371397 0.150401 0)
(0.395241 0.169536 0)
(0.423537 0.196502 0)
(0.43324 0.216758 0)
(0.452346 0.248107 0)
(0.451315 0.269656 0)
(0.47031 0.296664 0)
(0.4674 0.321956 0)
(0.48972 0.343897 0)
(0.494536 0.379277 0)
(0.507351 0.39418 0)
(0.529357 0.425265 0)
(0.534356 0.450078 0)
(0.564214 0.468992 0)
(0.57116 0.494782 0)
(0.60321 0.512786 0)
(0.615417 0.543102 0)
(0.643694 0.551751 0)
(0.675234 0.579886 0)
(0.691991 0.592766 0)
(0.73078 0.607465 0)
(0.749354 0.620415 0)
(0.214718 0.00805327 0)
(0.224861 0.0293334 0)
(0.237937 0.0489197 0)
(0.254182 0.0688429 0)
(0.2734 0.0891432 0)
(0.295186 0.109719 0)
(0.318884 0.130693 0)
(0.343793 0.150851 0)
(0.371167 0.175589 0)
(0.385408 0.196823 0)
(0.406302 0.228318 0)
(0.409592 0.248277 0)
(0.428667 0.280911 0)
(0.425682 0.305037 0)
(0.445831 0.335392 0)
(0.443958 0.362513 0)
(0.468365 0.386229 0)
(0.473886 0.421126 0)
(0.489085 0.439364 0)
(0.513691 0.470124 0)
(0.520187 0.497955 0)
(0.553013 0.518814 0)
(0.563678 0.545775 0)
(0.598372 0.56543 0)
(0.61287 0.594809 0)
(0.646262 0.606493 0)
(0.680412 0.630223 0)
(0.70174 0.647129 0)
(0.745258 0.657711 2.20623e-025)
(0.191661 0.00777641 0)
(0.201441 0.0297495 0)
(0.214103 0.0493103 0)
(0.230047 0.0693619 0)
(0.249006 0.0897997 0)
(0.270482 0.110478 0)
(0.294127 0.131101 0)
(0.318498 0.154406 0)
(0.337725 0.174065 0)
(0.361355 0.204659 0)
(0.366925 0.226962 0)
(0.385774 0.261441 0)
(0.383853 0.285422 0)
(0.403004 0.319404 0)
(0.401471 0.34413 0)
(0.422754 0.374922 0)
(0.421118 0.404412 0)
(0.44866 0.430953 0)
(0.454855 0.466132 0)
(0.473897 0.48828 0)
(0.500257 0.519182 0)
(0.509409 0.549707 0)
(0.543882 0.572185 0)
(0.559063 0.600474 0)
(0.597242 0.618363 0)
(0.615445 0.651605 0)
(0.655454 0.661206 0)
(0.690137 0.687341 0)
(0.719641 0.698917 -6.49172e-027)
(0.169968 0.00740206 0)
(0.179398 0.0300293 0)
(0.191654 0.0494049 0)
(0.20736 0.0694904 0)
(0.226144 0.0899462 0)
(0.247451 0.110653 0)
(0.269851 0.132189 0)
(0.292213 0.152313 0)
(0.314713 0.181028 0)
(0.324661 0.20318 0)
(0.343078 0.238338 0)
(0.342823 0.261074 0)
(0.360339 0.297794 0)
(0.358279 0.324155 0)
(0.379551 0.356915 0)
(0.379128 0.387968 0)
(0.400403 0.417193 0)
(0.401831 0.451222 0)
(0.430272 0.477432 0)
(0.437676 0.514964 0)
(0.45959 0.53945 0)
(0.488877 0.572247 0)
(0.501775 0.603346 0)