/*--------------------------------*- C++ -*----------------------------------*\
| =========                 |                                                 |
| \\      /  F ield         | OpenFOAM: The Open Source CFD Toolbox           |
|  \\    /   O peration     | Version:  5.x                                   |
|   \\  /    A nd           | Web:      www.OpenFOAM.org                      |
|    \\/     M anipulation  |                                                 |
\*---------------------------------------------------------------------------*/
/*   Windows 32 and 64 bit porting by blueCAPE: http://www.bluecape.com.pt   *\
|  Based on Windows porting (2.0.x v4) by Symscape: http://www.symscape.com   |
\*---------------------------------------------------------------------------*/
FoamFile
{
    version     2.0;
    format      ascii;
    class       volScalarField;
    location    "370";
    object      epsilon;
}
// * * * * * * * * * * * * * * * * * * * * * * * * * * * * * * * * * * * * * //

dimensions      [0 2 -3 0 0 0 0];

internalField   nonuniform List<scalar> 
43900
(
0.00152925
0.00151909
0.00151979
0.00151971
0.00151968
0.00151966
0.00151967
0.00151967
0.00151967
0.00151967
0.00151967
0.00151968
0.00151968
0.00151968
0.00151968
0.00151968
0.00151968
0.00151968
0.00151968
0.00151969
0.00151969
0.00151969
0.00151969
0.00151969
0.00151969
0.00151968
0.00151968
0.00151969
0.00151969
0.000414083
3.8195e-005
3.16656e-005
3.15198e-005
3.27284e-005
3.2792e-005
3.2804e-005
3.27894e-005
3.27902e-005
3.27942e-005
3.2795e-005
3.27989e-005
3.27996e-005
3.27995e-005
3.28026e-005
3.28064e-005
3.28049e-005
3.28018e-005
3.28061e-005
3.28096e-005
3.28101e-005
3.28117e-005
3.2814e-005
3.28153e-005
3.28119e-005
3.28052e-005
3.28046e-005
3.28115e-005
3.28193e-005
0.0508453
0.00575465
0.000289885
1.14951e-005
1.71155e-006
1.32772e-006
1.32668e-006
1.40964e-006
1.41868e-006
1.41747e-006
1.41647e-006
1.41684e-006
1.41739e-006
1.41761e-006
1.41799e-006
1.41847e-006
1.41848e-006
1.41852e-006
1.41895e-006
1.41916e-006
1.41944e-006
1.41975e-006
1.41992e-006
1.41988e-006
1.4196e-006
1.41966e-006
1.42019e-006
1.42079e-006
1.42077e-006
0.1465
0.0437702
0.00967582
0.00132084
8.37757e-005
3.42845e-006
3.4321e-007
1.22663e-007
1.08349e-007
1.15547e-007
1.19871e-007
1.20227e-007
1.19652e-007
1.19495e-007
1.19629e-007
1.19693e-007
1.19673e-007
1.19704e-007
1.1976e-007
1.19781e-007
1.19812e-007
1.19827e-007
1.19847e-007
1.1988e-007
1.19897e-007
1.19931e-007
1.19952e-007
1.19964e-007
1.19959e-007
0.197711
0.0845133
0.0338677
0.0112549
0.00265078
0.000357914
2.25576e-005
9.71097e-007
8.47661e-008
2.23017e-008
1.64997e-008
1.70985e-008
1.84161e-008
1.86294e-008
1.84511e-008
1.84212e-008
1.848e-008
1.84886e-008
1.84761e-008
1.84824e-008
1.84894e-008
1.849e-008
1.84946e-008
1.85016e-008
1.85011e-008
1.8503e-008
1.85077e-008
1.85123e-008
1.85185e-008
0.222745
0.109159
0.0533362
0.0251358
0.0105257
0.00333615
0.000711448
7.80719e-005
4.32846e-006
2.05074e-007
1.92727e-008
5.56361e-009
4.1013e-009
4.42486e-009
4.72635e-009
4.71306e-009
4.63396e-009
4.6456e-009
4.67434e-009
4.66807e-009
4.66703e-009
4.67214e-009
4.6752e-009
4.67677e-009
4.6776e-009
4.67824e-009
4.67944e-009
4.68054e-009
4.68245e-009
0.234054
0.123552
0.0660528
0.035261
0.0183442
0.00889463
0.00355171
0.000972136
0.000152874
1.17238e-005
6.08436e-007
3.35783e-008
4.40377e-009
1.74274e-009
1.52018e-009
1.66561e-009
1.75035e-009
1.71548e-009
1.69676e-009
1.7093e-009
1.71047e-009
1.70527e-009
1.70507e-009
1.70558e-009
1.70594e-009
1.70693e-009
1.70838e-009
1.7083e-009
1.70807e-009
0.237385
0.131337
0.0740015
0.0421191
0.0239167
0.0132864
0.00696474
0.00317936
0.00104152
0.000217155
2.28929e-005
1.40877e-006
7.8802e-008
5.58244e-009
1.23814e-009
7.33071e-010
7.51988e-010
8.16094e-010
8.13074e-010
7.96276e-010
7.99575e-010
8.05727e-010
8.04712e-010
8.04822e-010
8.05321e-010
8.05102e-010
8.05155e-010
8.05423e-010
8.05986e-010
0.236317
0.135174
0.078937
0.046801
0.0279509
0.0166321
0.00969675
0.00538259
0.00268877
0.00102559
0.000249111
3.21241e-005
2.31687e-006
1.41687e-007
9.31149e-009
1.12681e-009
4.81477e-010
4.00798e-010
4.44851e-010
4.62826e-010
4.52507e-010
4.50928e-010
4.5332e-010
4.53009e-010
4.52297e-010
4.52636e-010
4.529e-010
4.52816e-010
4.53098e-010
0.231989
0.135827
0.0813765
0.0496487
0.030673
0.0190503
0.0117761
0.00713716
0.00413559
0.00217978
0.000921212
0.000246804
3.63439e-005
2.99366e-006
2.02395e-007
1.39947e-008
1.29944e-009
3.95258e-010
2.6454e-010
2.75349e-010
2.92562e-010
2.88394e-010
2.85589e-010
2.87688e-010
2.88896e-010
2.88432e-010
2.88284e-010
2.88258e-010
2.88142e-010
0.224891
0.134105
0.0817815
0.0508997
0.0321788
0.0205552
0.0131765
0.00839646
0.00524376
0.0031349
0.0017156
0.000774062
0.000220554
3.53685e-005
3.24409e-006
2.42988e-007
1.82669e-008
1.61808e-009
3.30541e-010
1.9667e-010
1.87433e-010
2.01167e-010
2.0099e-010
1.9748e-010
1.97969e-010
1.99418e-010
1.99582e-010
1.99653e-010
1.99932e-010
0.216885
0.131281
0.0813227
0.0514224
0.0330838
0.0215651
0.0141704
0.00932517
0.00608988
0.00389309
0.00238212
0.00133802
0.000627378
0.000185679
3.18109e-005
3.20603e-006
2.65491e-007
2.18642e-008
1.98088e-009
3.1734e-010
1.6209e-010
1.34709e-010
1.44882e-010
1.49002e-010
1.46594e-010
1.45805e-010
1.46607e-010
1.46877e-010
1.46939e-010
0.20794
0.127519
0.0800396
0.0512855
0.0334739
0.0221745
0.0148485
0.0100012
0.0067321
0.0044881
0.00292376
0.00182077
0.00104088
0.000498303
0.000150096
2.67403e-005
2.91237e-006
2.65592e-007
2.4008e-008
2.30909e-009
3.30547e-010
1.39399e-010
1.07108e-010
1.10433e-010
1.15386e-010
1.1369e-010
1.12258e-010
1.12824e-010
1.13447e-010
0.198262
0.122968
0.0780663
0.0506337
0.0334393
0.0224533
0.0152679
0.0104724
0.00721
0.00495033
0.00335906
0.0022225
0.00140272
0.000810864
0.000391297
0.000117826
2.12869e-005
2.48043e-006
2.49333e-007
2.48574e-008
2.58867e-009
3.56732e-010
1.22336e-010
8.92692e-011
8.81674e-011
9.2713e-011
9.24753e-011
9.08646e-011
9.06052e-011
0.188075
0.117823
0.0755617
0.0495216
0.0330882
0.0224614
0.0154745
0.0107749
0.00755276
0.00530306
0.00370536
0.00255301
0.00171108
0.00109089
0.0006345
0.00030578
9.08762e-005
1.6444e-005
2.04162e-006
2.25619e-007
2.47581e-008
2.8059e-009
3.87824e-010
1.13549e-010
7.8881e-011
7.08375e-011
7.48658e-011
7.69822e-011
7.59612e-011
0.17757
0.112268
0.072661
0.0480736
0.0324385
0.0222728
0.0155096
0.0109389
0.00778292
0.00556362
0.00397571
0.00282107
0.00196926
0.00133351
0.000855883
0.000498251
0.00023717
6.93166e-005
1.26541e-005
1.6768e-006
2.0277e-007
2.43837e-008
3.00449e-009
4.27164e-010
1.12168e-010
7.12236e-011
6.0728e-011
6.28123e-011
6.53156e-011
0.166912
0.106444
0.0694858
0.0463754
0.0315808
0.0218937
0.0154146
0.010991
0.00792108
0.00574813
0.00418298
0.00303682
0.00218453
0.00154222
0.00105311
0.0006789
0.000394307
0.000183879
5.28771e-005
9.83113e-006
1.39942e-006
1.85349e-007
2.44219e-008
3.27475e-009
4.8739e-010
1.16887e-010
6.42852e-011
5.34751e-011
5.38086e-011
0.156211
0.10045
0.0661149
0.044495
0.0305605
0.0213795
0.0152008
0.0109551
0.00798648
0.00587185
0.00433892
0.00320903
0.00236306
0.00172053
0.00122648
0.000843205
0.00054503
0.000314998
0.00014308
4.06818e-005
7.78542e-006
1.19479e-006
1.72873e-007
2.48628e-008
3.61999e-009
5.68467e-010
1.26881e-010
6.03942e-011
4.87425e-011
0.145581
0.0943748
0.0626164
0.0424833
0.0294213
0.0207596
0.0148945
0.010843
0.00798509
0.00594148
0.00445042
0.00334423
0.00251048
0.00187273
0.00137837
0.00099093
0.000685049
0.000443349
0.00025446
0.000112116
3.17093e-005
6.28954e-006
1.0395e-006
1.6369e-007
2.55974e-008
4.03656e-009
6.71109e-010
1.43677e-010
5.94472e-011
0.13512
0.0882967
0.0590494
0.040384
0.0281954
0.0200613
0.0145197
0.0106679
0.0079401
0.00596926
0.00452474
0.003447
0.0026299
0.00200099
0.00151012
0.00112226
0.00081278
0.000564421
0.000365329
0.000207925
8.85499e-005
2.51196e-005
5.20692e-006
9.28067e-007
1.58697e-007
2.69218e-008
4.58507e-009
8.08753e-010
1.67973e-010
0.124905
0.0822777
0.055461
0.0382323
0.0269086
0.0193036
0.0140898
0.0104444
0.00784654
0.00595975
0.00456816
0.00352354
0.00272678
0.0021098
0.00162519
0.0012396
0.000929353
0.000677606
0.000472478
0.000305852
0.000172743
7.11639e-005
2.0412e-005
4.44624e-006
8.53044e-007
1.57434e-007
2.87335e-008
5.25001e-009
9.63958e-010
0.115002
0.0763698
0.0518909
0.036058
0.0255835
0.0185037
0.0136195
0.0101835
0.00772036
0.00592278
0.00458545
0.00357685
0.00280322
0.00220073
0.00172473
0.00134362
0.00103481
0.000782072
0.000573745
0.00040158
0.000260017
0.000145827
5.81604e-005
1.69955e-005
3.89942e-006
8.01808e-007
1.59033e-007
3.11654e-008
5.97209e-009
0.105469
0.0706176
0.0483725
0.0338858
0.024238
0.0176746
0.0131178
0.0098919
0.00756528
0.00585657
0.00457948
0.00361026
0.0028624
0.00227658
0.00181107
0.00143615
0.00113043
0.000878418
0.000668837
0.000493534
0.00034675
0.000224691
0.000125445
4.89523e-005
1.45981e-005
3.52295e-006
7.73144e-007
1.64128e-007
3.36679e-008
0.0963483
0.0650563
0.044933
0.0317363
0.022888
0.0168286
0.0125945
0.00957808
0.00738909
0.00577198
0.00455718
0.00362791
0.00290702
0.00233928
0.00188568
0.00151833
0.00121705
0.000967142
0.000757788
0.000581064
0.000431218
0.000304216
0.000197498
0.000109964
4.28174e-005
1.30079e-005
3.28778e-006
7.65981e-007
1.69381e-007
0.0876748
0.0597142
0.0415945
0.0296264
0.0215459
0.0159749
0.0120561
0.00924634
0.00719424
0.00566884
0.00451535
0.00362838
0.00293732
0.00238972
0.00194965
0.00159122
0.00129558
0.00104889
0.000840909
0.000664022
0.000512609
0.000382586
0.00027112
0.00017647
9.80806e-005
3.84562e-005
1.19528e-005
3.16377e-006
7.62142e-007
0.0794697
0.054611
0.0383732
0.0275689
0.0202219
0.0151212
0.0115092
0.00890209
0.00698584
0.00555257
0.00446238
0.0036198
0.00295789
0.00243073
0.00200488
0.00165621
0.00136709
0.00112451
0.000918798
0.000742706
0.000590814
0.000459095
0.000344631
0.000245419
0.000160328
8.9265e-005
3.54264e-005
1.13258e-005
3.066e-006
0.071747
0.0497612
0.0352818
0.0255739
0.0189238
0.014274
0.0109583
0.00854905
0.00676653
0.00542474
0.00439782
0.00359944
0.00296844
0.00246293
0.00205228
0.00171423
0.00143241
0.0011947
0.000992011
0.000817485
0.00066595
0.000533505
0.000417245
0.000315073
0.0002256
0.000148157
8.28875e-005
3.34876e-005
1.08108e-005
0.0645129
0.0451739
0.0323291
0.0236491
0.0176579
0.013438
0.0104074
0.00818996
0.00653831
0.00528685
0.00432292
0.00356855
0.00296895
0.00248651
0.00209224
0.00176579
0.00149213
0.00126004
0.00106105
0.000888758
0.00073826
0.000605831
0.000488643
0.000384594
0.000292188
0.00021049
0.000139112
7.85968e-005
3.18127e-005
0.0577674
0.0408541
0.0295211
0.0218001
0.0164289
0.012617
0.00985939
0.00782737
0.00630341
0.00514102
0.00423997
0.00353055
0.0029637
0.00250396
0.00212628
0.00181192
0.001547
0.00132113
0.00112645
0.000956965
0.000808082
0.00067627
0.000558821
0.000453677
0.000359321
0.000274698
0.000199192
0.000132944
7.47086e-005
0.0515067
0.036804
0.0268618
0.020031
0.0152405
0.0118142
0.0093168
0.00746321
0.00606331
0.00498833
0.00414957
0.00348506
0.00295091
0.0025149
0.00215461
0.00185303
0.00159749
0.00137845
0.00118863
0.0010225
0.000875749
0.000745073
0.000627904
0.000522266
0.000426666
0.000340015
0.000261591
0.000191125
0.000128661
0.0457233
0.0330234
0.0243537
0.018345
0.0140956
0.0110319
0.00878162
0.007099
0.00581913
0.00482952
0.0040522
0.00343233
0.00293079
0.0025192
0.00217721
0.00188925
0.00164383
0.00143226
0.00124792
0.00108568
0.000941572
0.000812515
0.000696101
0.000590461
0.00049416
0.00040612
0.000325581
0.000252104
0.000185624
0.0404067
0.0295103
0.0219981
0.0167443
0.0129966
0.0102724
0.00825553
0.00673606
0.00557188
0.00466541
0.00394859
0.00337325
0.00290477
0.00251792
0.00219473
0.00192098
0.00168632
0.00148288
0.0013046
0.00114681
0.00100586
0.000878893
0.000763683
0.000658479
0.000561925
0.000472986
0.000390905
0.000315182
0.000245576
0.0355444
0.026261
0.0197953
0.0152306
0.0119456
0.00953731
0.00774007
0.0063756
0.00532249
0.00449671
0.0038393
0.00330822
0.00287315
0.00251197
0.00220774
0.00194864
0.0017253
0.00153057
0.00135895
0.00120617
0.0010689
0.000944512
0.000830951
0.000726599
0.000630195
0.000540763
0.000457577
0.000380128
0.000308101
0.0311215
0.0232707
0.0177446
0.0138052
0.0109441
0.00882849
0.00723668
0.00601875
0.00507176
0.00432396
0.00372459
0.00323724
0.00283545
0.0024998
0.00221552
0.00197192
0.00176067
0.00157538
0.0014111
0.00126396
0.00113094
0.00100966
0.000898218
0.000795146
0.00069928
0.00060972
0.000525789
0.000447
0.000373026
0.0271213
0.0205333
0.0158448
0.0124688
0.00999382
0.00814751
0.00674677
0.00566663
0.00482054
0.00414771
0.0036048
0.00316051
0.00279191
0.00248201
0.00221799
0.00199069
0.00179235
0.00161729
0.0014611
0.00132032
0.0011922
0.00107461
0.000965817
0.000864489
0.000769566
0.000680236
0.000595881
0.00051606
0.000440467
0.0235252
0.0180413
0.0140939
0.0112219
0.00909604
0.00749593
0.0062718
0.00532044
0.00456973
0.00396862
0.0034804
0.00307836
0.00274284
0.0024591
0.00221603
0.00200542
0.00182057
0.00165645
0.0015091
0.00137541
0.00125292
0.00113967
0.00103413
0.000935068
0.000841541
0.000752818
0.000668356
0.000587769
0.000510798
0.0203129
0.0157862
0.0124891
0.0100644
0.00825194
0.00687529
0.00581325
0.00498143
0.00432032
0.0037874
0.00335184
0.00299106
0.00268827
0.00243088
0.00220941
0.00201592
0.00184523
0.00169283
0.00155514
0.00142938
0.00131332
0.0012052
0.0011036
0.00100742
0.000915818
0.000828137
0.000743908
0.000662812
0.000584651
0.0174623
0.0137582
0.0110269
0.00899598
0.00746247
0.00628703
0.00537262
0.00465095
0.00407339
0.00360483
0.00321964
0.00289883
0.0026282
0.00239697
0.0021969
0.0020215
0.00186591
0.00172616
0.00159911
0.00148226
0.00137359
0.00127151
0.00117471
0.00108219
0.000993169
0.000907068
0.000823481
0.000742157
0.000662971
0.0149502
0.0119463
0.00970292
0.00801552
0.00672827
0.00573247
0.0049514
0.00433039
0.00383008
0.0034218
0.00308439
0.00280203
0.00256278
0.00235752
0.00217911
0.00202189
0.00188229
0.00175616
0.00164079
0.00153395
0.0014338
0.00133887
0.00124795
0.00116008
0.00107451
0.000990715
0.000908321
0.000827138
0.000747114
0.012752
0.0103385
0.00851191
0.00712148
0.00604961
0.00521277
0.00455104
0.00402118
0.00359169
0.00323934
0.00294684
0.00270114
0.00249227
0.00231258
0.00215605
0.00201802
0.00189447
0.0017826
0.00167985
0.00158415
0.0014938
0.00140735
0.00132364
0.00124171
0.00116079
0.00108032
0.000999941
0.000919469
0.00083891
0.0108424
0.00892184
0.00744783
0.00631168
0.00542643
0.00472892
0.00417303
0.00372495
0.00335973
0.00305879
0.0028081
0.00259697
0.00241718
0.00226233
0.00212737
0.00200837
0.00190159
0.00180477
0.00171564
0.00163229
0.00155309
0.00147665
0.00140177
0.0013274
0.00125272
0.00117704
0.00109991
0.00102109
0.000940573
0.00919577
0.00768265
0.00650401
0.00558351
0.00485844
0.00428195
0.00381905
0.00344367
0.00313628
0.00288214
0.00266998
0.00249114
0.00233885
0.00220783
0.00209384
0.00199346
0.00190374
0.00182258
0.00174788
0.00167793
0.0016112
0.00154631
0.001482
0.00141712
0.00135063
0.00128167
0.00120954
0.00113383
0.0010544
0.00778704
0.00660712
0.00567349
0.00493417
0.00434536
0.00387309
0.00349126
0.00318004
0.00292431
0.00271248
0.00253558
0.00238663
0.00226013
0.00215172
0.00205791
0.00197582
0.0019031
0.00183751
0.00177754
0.00172164
0.00166837
0.00161636
0.00156427
0.0015108
0.00145468
0.0013947
0.00132982
0.00125922
0.00118245
0.00659198
0.00568169
0.00494931
0.00436088
0.00388714
0.00350406
0.00319256
0.00293774
0.00272804
0.00255441
0.00240974
0.00228843
0.00218602
0.00209895
0.00202435
0.00195991
0.00190367
0.0018531
0.00180769
0.00176599
0.00172667
0.00168839
0.00164978
0.00160937
0.00156564
0.00151697
0.00146179
0.00139867
0.00132657
0.00558788
0.0048934
0.00432481
0.00386114
0.00348404
0.0031771
0.00292661
0.00272155
0.0025531
0.00241423
0.00229929
0.00220377
0.00212405
0.00205724
0.00200095
0.00195338
0.00191184
0.00187584
0.00184452
0.00181669
0.00179119
0.00176682
0.00174226
0.00171595
0.00168613
0.00165076
0.00160762
0.0015544
0.00148909
0.00475366
0.00422998
0.00379359
0.00343256
0.00313656
0.00289481
0.00269766
0.00253703
0.00240621
0.00229965
0.00221283
0.00214204
0.00208426
0.00203721
0.00199862
0.0019656
0.0019382
0.00191623
0.00189829
0.00188353
0.00187113
0.00186009
0.00184932
0.00183729
0.00182208
0.00180136
0.0017721
0.00173084
0.0016742
0.00406968
0.00367972
0.00334932
0.00307263
0.00284497
0.00265963
0.00250997
0.00239003
0.00229463
0.00221934
0.00216031
0.00211448
0.00207893
0.0020503
0.00202749
0.00201027
0.00199778
0.00198958
0.00198424
0.0019815
0.00198099
0.00198197
0.00198395
0.00198532
0.00198432
0.00197881
0.0019646
0.00193649
0.00188981
0.0035174
0.00323108
0.00298535
0.0027782
0.00260881
0.0024733
0.00236716
0.002286
0.00222562
0.00218238
0.00215267
0.00213195
0.00211851
0.0021112
0.00210829
0.00210894
0.00211226
0.00211769
0.00212448
0.00213281
0.0021428
0.00215433
0.00216721
0.00218052
0.0021927
0.00220093
0.00219997
0.00218646
0.00215085
0.00307905
0.00287241
0.00269435
0.00254515
0.00242646
0.00233636
0.00227183
0.00222962
0.00220602
0.00219696
0.00219855
0.00220843
0.00222479
0.00224501
0.00226702
0.00228939
0.00231107
0.00233195
0.00235197
0.00237157
0.00239135
0.00241185
0.00243351
0.00245619
0.002479
0.00249926
0.00251158
0.00250739
0.00248061
0.00273752
0.00259191
0.00246832
0.0023683
0.00229507
0.00224808
0.00222533
0.00222478
0.0022405
0.00227203
0.0023154
0.00236681
0.00242296
0.00248021
0.00253618
0.00258893
0.00263716
0.00268044
0.0027189
0.00275322
0.00278451
0.00281401
0.00284296
0.00287224
0.00290215
0.0029306
0.00295346
0.00295432
0.0029305
0.00247665
0.00237784
0.00229876
0.00224163
0.0022107
0.00220661
0.00222777
0.00227227
0.00233809
0.00242243
0.00252069
0.0026283
0.00274089
0.00285384
0.00296316
0.00306552
0.00315851
0.0032408
0.00331205
0.00337283
0.00342442
0.00346857
0.00350734
0.00354289
0.00357734
0.00360911
0.00363668
0.00363559
0.00360413
0.00228157
0.00221899
0.00217712
0.00215865
0.00216864
0.00220856
0.00227818
0.00237813
0.0025059
0.00265841
0.00283156
0.00302009
0.00321813
0.00341925
0.00361713
0.00380605
0.00398126
0.00413934
0.0042783
0.00439751
0.00449748
0.00457957
0.00464598
0.00470064
0.00474791
0.00478505
0.00481429
0.00480193
0.00474075
0.00213913
0.00210502
0.00209518
0.00211262
0.00216364
0.00225078
0.00237709
0.00254314
0.0027486
0.00299177
0.00326921
0.00357561
0.00390404
0.00424616
0.00459296
0.0049354
0.0052652
0.00557538
0.00586062
0.00611728
0.00634322
0.00653728
0.00669982
0.00683937
0.00695352
0.00703521
0.00709259
0.00707378
0.00694535
0.00203805
0.00202678
0.00204521
0.00209733
0.00219055
0.00233032
0.0025212
0.00276711
0.00307092
0.00343386
0.00385502
0.00433082
0.00485495
0.00541851
0.00601072
0.00661979
0.00723394
0.00784233
0.00843571
0.0090066
0.00954911
0.010058
0.0105283
0.010964
0.0113598
0.0116948
0.011961
0.0121162
0.0118266
0.00196889
0.00197632
0.00202058
0.00210691
0.00224458
0.00244178
0.00270693
0.00304864
0.00347505
0.00399306
0.00460738
0.00531968
0.00612804
0.0070269
0.00800761
0.00905944
0.010171
0.0113317
0.0125328
0.0137685
0.0150356
0.0163329
0.0176598
0.0190071
0.0203989
0.0218079
0.0231296
0.0247446
0.024096
0.00192392
0.00194694
0.0020155
0.00213581
0.00232004
0.00258
0.00292954
0.00338396
0.00395955
0.00467258
0.00553809
0.00656865
0.0077734
0.00915774
0.0107238
0.0124715
0.0144012
0.0165155
0.0188222
0.0213373
0.0240874
0.0271113
0.0304678
0.034203
0.0384417
0.0432838
0.0487075
0.056951
0.0563743
0.00189689
0.00193309
0.0020247
0.00217899
0.00241162
0.00273932
0.00318287
0.0037667
0.00451868
0.00546918
0.00664988
0.00809237
0.00982708
0.0118829
0.0142881
0.017072
0.0202688
0.0239224
0.0280929
0.0328645
0.0383577
0.0447393
0.0522636
0.0612287
0.0722674
0.0857131
0.10341
0.129993
0.136639
0.00188294
0.00193024
0.00204401
0.00223192
0.00251438
0.0029139
0.00345987
0.00418844
0.00514293
0.00637344
0.00793615
0.00989243
0.0123083
0.015255
0.0188105
0.0230644
0.0281242
0.0341256
0.0412472
0.0497309
0.0599155
0.0722706
0.0875229
0.106592
0.131475
0.163357
0.210441
0.273544
0.316982
0.00187907
0.0019355
0.00207084
0.00229175
0.00262497
0.0030994
0.00375477
0.0046416
0.00582282
0.00737461
0.00938705
0.0119647
0.0152281
0.0193163
0.0243924
0.0306527
0.0383405
0.0477671
0.0593432
0.0736244
0.0913903
0.113731
0.142355
0.179498
0.230101
0.297264
0.40451
0.533995
0.69636
0.00151969
0.00151969
0.00151968
0.00151968
0.00151968
0.00151969
0.0015197
0.0015197
0.00151969
0.00151968
0.00151969
0.0015197
0.0015197
0.0015197
0.0015197
0.0015197
0.00151969
0.00151969
0.00151969
0.00151971
0.00151972
0.00151971
0.00151969
0.00151968
0.00151969
0.0015197
0.0015197
0.0015197
0.00151972
0.00151972
0.0015197
0.00151968
0.00151967
0.00151969
0.0015197
0.0015197
0.0015197
0.0015197
0.0015197
0.0015197
0.0015197
0.0015197
0.0015197
0.0015197
0.0015197
0.0015197
0.0015197
0.0015197
0.0015197
0.0015197
0.0015197
0.0015197
0.0015197
0.0015197
0.0015197
0.0015197
0.0015197
0.0015197
0.0015197
0.0015197
0.0015197
0.0015197
0.0015197
0.0015197
0.0015197
0.0015197
0.0015197
0.0015197
0.0015197
0.0015197
0.0015197
0.0015197
0.0015197
0.0015197
0.0015197
0.0015197
0.0015197
0.00151971
0.00151971
0.00151971
0.00151971
0.00151971
0.00151971
0.0015197
0.00151971
0.00151971
0.00151971
0.0015197
0.00151971
0.00151971
0.00151971
0.00151971
0.00151971
0.00151971
0.00151971
0.00151971
0.00151971
0.00151971
0.00151971
0.00151971
0.00151971
0.00151971
0.00151971
0.00151971
0.00151971
0.00151971
0.00151971
0.00151971
0.00151971
0.00151971
0.00151971
0.00151971
0.00151971
0.00151971
0.00151971
0.00151971
0.00151971
0.00151971
0.00151971
0.00151971
0.00151971
0.00151971
0.00151971
0.00151971
0.00151971
0.00151971
0.00151971
0.00151971
0.00151971
0.00151971
0.00151971
0.00151972
0.00151971
0.00151972
0.00151972
0.00151972
0.00151972
0.00151973
0.00154195
3.28199e-005
3.28128e-005
3.2807e-005
3.28056e-005
3.28114e-005
3.28221e-005
3.28285e-005
3.28251e-005
3.28141e-005
3.28102e-005
3.28199e-005
3.28293e-005
3.28263e-005
3.28217e-005
3.28274e-005
3.28308e-005
3.28215e-005
3.28124e-005
3.2813e-005
3.28359e-005
3.28469e-005
3.28382e-005
3.28143e-005
3.28026e-005
3.28145e-005
3.28269e-005
3.28269e-005
3.28327e-005
3.28455e-005
3.28443e-005
3.2822e-005
3.28021e-005
3.27999e-005
3.28199e-005
3.28248e-005
3.28244e-005
3.28241e-005
3.2824e-005
3.2824e-005
3.2824e-005
3.28241e-005
3.28242e-005
3.28245e-005
3.28248e-005
3.28251e-005
3.28253e-005
3.28256e-005
3.28257e-005
3.28259e-005
3.28263e-005
3.28266e-005
3.28268e-005
3.28272e-005
3.28275e-005
3.28279e-005
3.28281e-005
3.28286e-005
3.28288e-005
3.28293e-005
3.28295e-005
3.28298e-005
3.28302e-005
3.28304e-005
3.2831e-005
3.28311e-005
3.28316e-005
3.28317e-005
3.28326e-005
3.28324e-005
3.28328e-005
3.28333e-005
3.2833e-005
3.28344e-005
3.28338e-005
3.28347e-005
3.28342e-005
3.28352e-005
3.28357e-005
3.28361e-005
3.28392e-005
3.28388e-005
3.28399e-005
3.28391e-005
3.28353e-005
3.28367e-005
3.28379e-005
3.28398e-005
3.28352e-005
3.2838e-005
3.28405e-005
3.28402e-005
3.28391e-005
3.28393e-005
3.28399e-005
3.28407e-005
3.2841e-005
3.28412e-005
3.28412e-005
3.28414e-005
3.28415e-005
3.28416e-005
3.28417e-005
3.28417e-005
3.28418e-005
3.28418e-005
3.28418e-005
3.28418e-005
3.2842e-005
3.2842e-005
3.28422e-005
3.28422e-005
3.28423e-005
3.28424e-005
3.28425e-005
3.28425e-005
3.28426e-005
3.28427e-005
3.28427e-005
3.28427e-005
3.28426e-005
3.28426e-005
3.28424e-005
3.28424e-005
3.28424e-005
3.28426e-005
3.28427e-005
3.28428e-005
3.28431e-005
3.28428e-005
3.28436e-005
3.28443e-005
3.28472e-005
3.28458e-005
3.28504e-005
3.28479e-005
3.2854e-005
3.2853e-005
3.28697e-005
3.51719e-005
1.42054e-006
1.42031e-006
1.42031e-006
1.42063e-006
1.42146e-006
1.42197e-006
1.42151e-006
1.42057e-006
1.42022e-006
1.42111e-006
1.42218e-006
1.42205e-006
1.42111e-006
1.42103e-006
1.42173e-006
1.42177e-006
1.42101e-006
1.42054e-006
1.42132e-006
1.42243e-006
1.42235e-006
1.42118e-006
1.42047e-006
1.42056e-006
1.42185e-006
1.42196e-006
1.42206e-006
1.42267e-006
1.42299e-006
1.42199e-006
1.42101e-006
1.42066e-006
1.42165e-006
1.42264e-006
1.42252e-006
1.42254e-006
1.42258e-006
1.42261e-006
1.42264e-006
1.42268e-006
1.42272e-006
1.42277e-006
1.42283e-006
1.4229e-006
1.42296e-006
1.42301e-006
1.42305e-006
1.42308e-006
1.42317e-006
1.42319e-006
1.42322e-006
1.42327e-006
1.42333e-006
1.42339e-006
1.42344e-006
1.42349e-006
1.42357e-006
1.42361e-006
1.42368e-006
1.42372e-006
1.42378e-006
1.42384e-006
1.42388e-006
1.42395e-006
1.42399e-006
1.42406e-006
1.42408e-006
1.42417e-006
1.42417e-006
1.42425e-006
1.42431e-006
1.42429e-006
1.42444e-006
1.42441e-006
1.42451e-006
1.42451e-006
1.42465e-006
1.42473e-006
1.42475e-006
1.42481e-006
1.42485e-006
1.42505e-006
1.42495e-006
1.42489e-006
1.42482e-006
1.42496e-006
1.42481e-006
1.42471e-006
1.42506e-006
1.42516e-006
1.42508e-006
1.42508e-006
1.42514e-006
1.42518e-006
1.42519e-006
1.42516e-006
1.42519e-006
1.42521e-006
1.42524e-006
1.42525e-006
1.42526e-006
1.42526e-006
1.42527e-006
1.42527e-006
1.42526e-006
1.42526e-006
1.42525e-006
1.42525e-006
1.42524e-006
1.42524e-006
1.42523e-006
1.42522e-006
1.42521e-006
1.42518e-006
1.42517e-006
1.42513e-006
1.42511e-006
1.42505e-006
1.42501e-006
1.42495e-006
1.42489e-006
1.42482e-006
1.42475e-006
1.4247e-006
1.42468e-006
1.42466e-006
1.42464e-006
1.42458e-006
1.42465e-006
1.42463e-006
1.42443e-006
1.42473e-006
1.42474e-006
1.42511e-006
1.42445e-006
1.42864e-006
1.41459e-006
1.33209e-006
2.02304e-006
1.19995e-007
1.20001e-007
1.20013e-007
1.20078e-007
1.20133e-007
1.20086e-007
1.20003e-007
1.20014e-007
1.20121e-007
1.20233e-007
1.20206e-007
1.201e-007
1.20068e-007
1.20194e-007
1.2029e-007
1.2028e-007
1.20162e-007
1.20111e-007
1.20189e-007
1.20239e-007
1.20189e-007
1.20087e-007
1.20077e-007
1.20155e-007
1.20278e-007
1.20299e-007
1.20315e-007
1.20347e-007
1.20315e-007
1.20224e-007
1.2019e-007
1.20212e-007
1.2033e-007
1.20373e-007
1.20384e-007
1.20398e-007
1.20411e-007
1.20422e-007
1.20434e-007
1.20446e-007
1.20459e-007
1.20472e-007
1.20487e-007
1.20502e-007
1.20515e-007
1.20527e-007
1.20538e-007
1.20546e-007
1.20552e-007
1.20563e-007
1.20581e-007
1.20594e-007
1.20606e-007
1.20619e-007
1.20631e-007
1.20642e-007
1.20656e-007
1.20667e-007
1.2068e-007
1.20692e-007
1.20704e-007
1.20716e-007
1.20727e-007
1.2074e-007
1.2075e-007
1.20763e-007
1.20773e-007
1.20787e-007
1.20794e-007
1.20808e-007
1.2082e-007
1.20827e-007
1.20849e-007
1.20852e-007
1.20865e-007
1.20876e-007
1.20878e-007
1.20898e-007
1.20917e-007
1.20917e-007
1.20937e-007
1.2095e-007
1.20957e-007
1.20951e-007
1.20959e-007
1.20962e-007
1.20951e-007
1.20941e-007
1.20951e-007
1.20952e-007
1.20964e-007
1.20966e-007
1.20961e-007
1.20962e-007
1.20968e-007
1.20983e-007
1.20994e-007
1.21008e-007
1.21013e-007
1.21018e-007
1.2102e-007
1.21023e-007
1.21024e-007
1.21025e-007
1.21025e-007
1.21025e-007
1.21023e-007
1.21022e-007
1.2102e-007
1.21018e-007
1.21016e-007
1.21012e-007
1.21008e-007
1.21002e-007
1.20998e-007
1.20989e-007
1.20985e-007
1.20975e-007
1.20966e-007
1.20954e-007
1.2094e-007
1.20923e-007
1.20906e-007
1.20889e-007
1.20873e-007
1.20851e-007
1.20835e-007
1.20804e-007
1.2079e-007
1.20796e-007
1.20767e-007
1.20781e-007
1.20682e-007
1.21767e-007
1.21417e-007
1.09574e-007
1.46156e-007
7.13197e-006
0.00125352
1.85223e-008
1.85231e-008
1.85306e-008
1.85397e-008
1.85396e-008
1.85324e-008
1.85353e-008
1.85541e-008
1.85674e-008
1.85662e-008
1.85526e-008
1.85486e-008
1.85641e-008
1.85889e-008
1.85926e-008
1.85789e-008
1.856e-008
1.8561e-008
1.85712e-008
1.85764e-008
1.85713e-008
1.85644e-008
1.85696e-008
1.8583e-008
1.85949e-008
1.8603e-008
1.861e-008
1.86135e-008
1.86059e-008
1.85999e-008
1.86013e-008
1.86099e-008
1.86265e-008
1.86325e-008
1.86376e-008
1.86417e-008
1.86458e-008
1.86489e-008
1.8652e-008
1.86555e-008
1.86591e-008
1.8663e-008
1.86672e-008
1.86714e-008
1.86752e-008
1.86787e-008
1.8682e-008
1.86852e-008
1.86904e-008
1.86945e-008
1.86972e-008
1.86992e-008
1.8703e-008
1.87071e-008
1.87109e-008
1.87146e-008
1.87184e-008
1.8722e-008
1.87258e-008
1.87293e-008
1.87329e-008
1.87365e-008
1.87399e-008
1.87435e-008
1.87469e-008
1.87503e-008
1.87537e-008
1.87571e-008
1.876e-008
1.87636e-008
1.87663e-008
1.87697e-008
1.87734e-008
1.87757e-008
1.87784e-008
1.87811e-008
1.87806e-008
1.87831e-008
1.87866e-008
1.87863e-008
1.87905e-008
1.87924e-008
1.87952e-008
1.87967e-008
1.88006e-008
1.88002e-008
1.87982e-008
1.88006e-008
1.88042e-008
1.88091e-008
1.88134e-008
1.88139e-008
1.88153e-008
1.88179e-008
1.88212e-008
1.88224e-008
1.88235e-008
1.88228e-008
1.88234e-008
1.88243e-008
1.88245e-008
1.88254e-008
1.88254e-008
1.8826e-008
1.88259e-008
1.88261e-008
1.88258e-008
1.8825e-008
1.88244e-008
1.88234e-008
1.88222e-008
1.88202e-008
1.88185e-008
1.88154e-008
1.88133e-008
1.88104e-008
1.88085e-008
1.88053e-008
1.88026e-008
1.87992e-008
1.87958e-008
1.87914e-008
1.87874e-008
1.87825e-008
1.87785e-008
1.8777e-008
1.87738e-008
1.87549e-008
1.87478e-008
1.87705e-008
1.87333e-008
1.87038e-008
1.90165e-008
1.72854e-008
1.67202e-008
4.93521e-008
3.69818e-006
0.000472135
0.0135705
4.68353e-009
4.68445e-009
4.68652e-009
4.68787e-009
4.68807e-009
4.68835e-009
4.69108e-009
4.69493e-009
4.69566e-009
4.69424e-009
4.69307e-009
4.69507e-009
4.70032e-009
4.70403e-009
4.70376e-009
4.69936e-009
4.69732e-009
4.69933e-009
4.70296e-009
4.70538e-009
4.70487e-009
4.70461e-009
4.70632e-009
4.70999e-009
4.71344e-009
4.71589e-009
4.71766e-009
4.71859e-009
4.7176e-009
4.71713e-009
4.71756e-009
4.72081e-009
4.72458e-009
4.72693e-009
4.72916e-009
4.73065e-009
4.73214e-009
4.73354e-009
4.73495e-009
4.7364e-009
4.73791e-009
4.73951e-009
4.74113e-009
4.74267e-009
4.74413e-009
4.74572e-009
4.74731e-009
4.74842e-009
4.74954e-009
4.75053e-009
4.75206e-009
4.75427e-009
4.7563e-009
4.75773e-009
4.75908e-009
4.76052e-009
4.76196e-009
4.76341e-009
4.76485e-009
4.76628e-009
4.76772e-009
4.76908e-009
4.77053e-009
4.77185e-009
4.77324e-009
4.77451e-009
4.77592e-009
4.77706e-009
4.77835e-009
4.77968e-009
4.78041e-009
4.78227e-009
4.78289e-009
4.78445e-009
4.78506e-009
4.78666e-009
4.78707e-009
4.78807e-009
4.78979e-009
4.78987e-009
4.79107e-009
4.79186e-009
4.79305e-009
4.79432e-009
4.79582e-009
4.7958e-009
4.79485e-009