/*--------------------------------*- C++ -*----------------------------------*\
| =========                 |                                                 |
| \\      /  F ield         | OpenFOAM: The Open Source CFD Toolbox           |
|  \\    /   O peration     | Version:  5.x                                   |
|   \\  /    A nd           | Web:      www.OpenFOAM.org                      |
|    \\/     M anipulation  |                                                 |
\*---------------------------------------------------------------------------*/
/*   Windows 32 and 64 bit porting by blueCAPE: http://www.bluecape.com.pt   *\
|  Based on Windows porting (2.0.x v4) by Symscape: http://www.symscape.com   |
\*---------------------------------------------------------------------------*/
FoamFile
{
    version     2.0;
    format      ascii;
    class       volScalarField;
    location    "370";
    object      k;
}
// * * * * * * * * * * * * * * * * * * * * * * * * * * * * * * * * * * * * * //

dimensions      [0 2 -2 0 0 0 0];

internalField   nonuniform List<scalar> 
43900
(
0.000985519
0.000989435
0.000990248
0.000990177
0.000990126
0.000990114
0.000990119
0.000990119
0.00099012
0.000990123
0.000990124
0.000990127
0.000990127
0.000990127
0.000990129
0.000990132
0.000990131
0.000990128
0.000990132
0.000990135
0.000990135
0.000990136
0.000990138
0.000990139
0.000990136
0.00099013
0.000990129
0.000990135
0.000990142
0.00165019
5.60245e-005
3.89317e-005
3.81749e-005
4.0809e-005
4.09654e-005
4.09864e-005
4.0954e-005
4.09542e-005
4.09594e-005
4.09608e-005
4.09658e-005
4.09669e-005
4.09667e-005
4.09707e-005
4.09756e-005
4.09736e-005
4.09699e-005
4.09754e-005
4.09797e-005
4.09805e-005
4.09827e-005
4.09855e-005
4.09868e-005
4.09824e-005
4.09745e-005
4.09743e-005
4.09832e-005
4.09924e-005
0.294484
0.0540257
0.00410511
0.00011793
5.00586e-006
3.08359e-006
2.97854e-006
3.34428e-006
3.38081e-006
3.37552e-006
3.37046e-006
3.37107e-006
3.37275e-006
3.37341e-006
3.37424e-006
3.37533e-006
3.37536e-006
3.37551e-006
3.37651e-006
3.37698e-006
3.37765e-006
3.37835e-006
3.37872e-006
3.37864e-006
3.37807e-006
3.3783e-006
3.37952e-006
3.38083e-006
3.38069e-006
0.880305
0.37681
0.120091
0.023851
0.00208471
8.31734e-005
4.03349e-006
5.9232e-007
4.57992e-007
4.98581e-007
5.33647e-007
5.36631e-007
5.3169e-007
5.30285e-007
5.31214e-007
5.31588e-007
5.31383e-007
5.3151e-007
5.318e-007
5.31884e-007
5.32006e-007
5.32072e-007
5.32167e-007
5.3232e-007
5.32395e-007
5.32538e-007
5.32627e-007
5.3266e-007
5.32655e-007
1.28957
0.739076
0.394823
0.176556
0.0561509
0.0103314
0.000827497
3.78464e-005
1.7176e-006
2.31202e-007
1.28902e-007
1.25969e-007
1.44645e-007
1.4826e-007
1.4552e-007
1.4504e-007
1.45927e-007
1.46006e-007
1.4575e-007
1.45814e-007
1.45885e-007
1.4587e-007
1.45894e-007
1.45942e-007
1.45939e-007
1.45952e-007
1.45995e-007
1.46024e-007
1.46074e-007
1.54719
0.984538
0.617262
0.370383
0.199218
0.0836337
0.0233205
0.0033114
0.000214792
1.04777e-005
5.58183e-007
9.82239e-008
5.39673e-008
5.46253e-008
6.15444e-008
6.1589e-008
5.95804e-008
5.98505e-008
6.0561e-008
6.03864e-008
6.03397e-008
6.04566e-008
6.05174e-008
6.054e-008
6.05581e-008
6.05649e-008
6.05686e-008
6.058e-008
6.06069e-008
1.71061
1.14973
0.773222
0.513913
0.33063
0.198159
0.100197
0.034955
0.00705849
0.000653259
3.69681e-005
1.99571e-006
1.40552e-007
4.03126e-008
2.89548e-008
3.13903e-008
3.48825e-008
3.36364e-008
3.27848e-008
3.32614e-008
3.32969e-008
3.30836e-008
3.30653e-008
3.30726e-008
3.30759e-008
3.3103e-008
3.31413e-008
3.31369e-008
3.31228e-008
1.81163
1.25916
0.88095
0.616028
0.426018
0.286566
0.182014
0.102638
0.0433859
0.01136
0.00145987
9.94386e-005
5.80807e-006
3.62223e-007
4.33337e-008
2.14419e-008
1.89485e-008
2.14821e-008
2.19665e-008
2.11126e-008
2.12621e-008
2.16061e-008
2.15522e-008
2.15521e-008
2.15723e-008
2.1554e-008
2.15432e-008
2.15558e-008
2.15783e-008
1.87358
1.33301
0.957414
0.690879
0.497584
0.354385
0.246104
0.162737
0.0977285
0.0468724
0.0141672
0.00222908
0.000179555
1.15931e-005
7.57993e-007
6.47966e-008
1.9863e-008
1.4556e-008
1.50793e-008
1.64079e-008
1.57992e-008
1.55575e-008
1.57048e-008
1.56825e-008
1.56278e-008
1.56525e-008
1.5669e-008
1.5663e-008
1.56752e-008
1.90093
1.37548
1.00664
0.742462
0.549297
0.405165
0.295455
0.210336
0.143151
0.0894341
0.0464687
0.0153392
0.00274058
0.000252445
1.80135e-005
1.27605e-006
1.03735e-007
1.92719e-008
1.22057e-008
1.12244e-008
1.23596e-008
1.23612e-008
1.21416e-008
1.22748e-008
1.23664e-008
1.23145e-008
1.2287e-008
1.22817e-008
1.22674e-008
1.90065
1.39198
1.03222
0.772939
0.582349
0.439504
0.330358
0.245357
0.177942
0.123605
0.0793223
0.0433221
0.0150685
0.00290616
0.000296716
2.3375e-005
1.8138e-006
1.5172e-007
2.16561e-008
1.12817e-008
9.42833e-009
9.92549e-009
1.02185e-008
9.91909e-009
9.92646e-009
1.00702e-008
1.01012e-008
1.00994e-008
1.01135e-008
1.89127
1.39913
1.04855
0.794259
0.606381
0.465009
0.356679
0.272145
0.204983
0.150708
0.1062
0.0693631
0.0389929
0.0141556
0.00288083
0.000320386
2.77486e-005
2.35539e-006
2.09591e-007
2.66558e-008
1.02887e-008
8.23486e-009
8.32036e-009
8.7695e-009
8.62135e-009
8.43071e-009
8.49521e-009
8.53478e-009
8.53894e-009
1.8689
1.39476
1.05459
0.806559
0.622429
0.483314
0.376374
0.292731
0.226168
0.172295
0.128002
0.0911065
0.0601362
0.0342195
0.0126733
0.00265024
0.00031527
2.99181e-005
2.78071e-006
2.67454e-007
3.25473e-008
9.94635e-009
7.55326e-009
7.0859e-009
7.5223e-009
7.51827e-009
7.37708e-009
7.39743e-009
7.45739e-009
1.83603
1.38092
1.05227
0.811345
0.631783
0.495643
0.390662
0.308349
0.242725
0.189535
0.145733
0.109134
0.0781969
0.0518772
0.0295765
0.0108228
0.0022696
0.000285913
2.98075e-005
3.0521e-006
3.20374e-007
3.9517e-008
1.02661e-008
7.12309e-009
6.40406e-009
6.60131e-009
6.76553e-009
6.63102e-009
6.55605e-009
1.7949
1.359
1.04309
0.810096
0.635719
0.503091
0.400548
0.319947
0.255561
0.203294
0.160192
0.124113
0.0935084
0.0672812
0.0446984
0.025394
0.0089634
0.00185911
0.000247082
2.8251e-005
3.18189e-006
3.64996e-007
4.71124e-008
1.1017e-008
6.66365e-009
5.86447e-009
5.95156e-009
6.196e-009
6.13579e-009
1.74731
1.33104
1.02797
0.803926
0.635233
0.506558
0.40679
0.328207
0.265308
0.214163
0.171925
0.136516
0.106414
0.0805142
0.0580347
0.0384713
0.0216258
0.0074049
0.00152294
0.000213606
2.66144e-005
3.27721e-006
4.09336e-007
5.5944e-008
1.20436e-008
6.36487e-009
5.49745e-009
5.41088e-009
5.62072e-009
1.69472
1.29834
1.00851
0.793441
0.631281
0.506779
0.410083
0.333737
0.272521
0.222666
0.181436
0.146826
0.117355
0.0919337
0.0697681
0.0503018
0.0331909
0.0182936
0.00608985
0.00125491
0.000187293
2.54628e-005
3.42716e-006
4.66219e-007
6.77567e-008
1.3768e-008
6.33021e-009
5.30802e-009
4.97279e-009
1.63818
1.26186
0.985575
0.779797
0.624117
0.504526
0.41106
0.337132
0.277723
0.229253
0.189113
0.155376
0.126613
0.101762
0.0800346
0.0608567
0.0438308
0.028717
0.0154408
0.00501934
0.00104871
0.000167461
2.47929e-005
3.63478e-006
5.36781e-007
8.31215e-008
1.64179e-008
6.62064e-009
5.05517e-009
1.57863
1.22242
0.959859
0.763604
0.614639
0.499857
0.410038
0.33871
0.28127
0.234318
0.195359
0.162562
0.134559
0.110327
0.0890972
0.0702985
0.053515
0.0384632
0.0249838
0.0130569
0.00416777
0.000890472
0.000152188
2.44553e-005
3.89053e-006
6.2174e-007
1.02676e-007
2.02586e-008
7.05115e-009
1.51687
1.18072
0.93196
0.745365
0.603263
0.493431
0.407289
0.338622
0.283244
0.237886
0.200194
0.168416
0.141245
0.117697
0.0970316
0.0786878
0.0622489
0.0474142
0.0339845
0.0218621
0.0110739
0.00349859
0.000771971
0.000141557
2.46418e-005
4.24481e-006
7.31833e-007
1.29001e-007
2.52954e-008
1.45359
1.13734
0.90238
0.725516
0.59038
0.485613
0.403215
0.337483
0.284202
0.240481
0.204078
0.173335
0.147011
0.124166
0.104088
0.0862338
0.0701925
0.0556584
0.0424139
0.0303219
0.0193309
0.00949449
0.00299494
0.000687664
0.000135179
2.53449e-005
4.68916e-006
8.66594e-007
1.59471e-007
1.38937
1.09277
0.871529
0.704398
0.576269
0.476616
0.398003
0.335103
0.284018
0.242005
0.206951
0.177297
0.151863
0.129759
0.110303
0.0929738
0.0773721
0.0631953
0.0502192
0.0382876
0.0273096
0.0172659
0.00823302
0.00261462
0.00062722
0.000131689
2.64858e-005
5.25365e-006
1.01723e-006
1.32473
1.04744
0.839772
0.682322
0.561201
0.466696
0.391921
0.331932
0.283143
0.242854
0.209162
0.180602
0.156062
0.134701
0.115871
0.0990735
0.0839249
0.0701296
0.0574632
0.0457613
0.0349132
0.0248626
0.0156235
0.00724319
0.00232795
0.000584377
0.000130724
2.8116e-005
5.83274e-006
1.26012
1.00173
0.807411
0.659535
0.54538
0.456011
0.385075
0.327988
0.281412
0.242861
0.210585
0.183164
0.15956
0.138976
0.120801
0.104562
0.0898916
0.0765046
0.0641818
0.0527573
0.0421115
0.0321682
0.0228983
0.0143485
0.0064862
0.00211561
0.000555351
0.000131953
2.95753e-005
1.19592
0.955938
0.774702
0.636255
0.528991
0.444731
0.377632
0.323472
0.279164
0.242434
0.211544
0.185249
0.16257
0.142757
0.125234
0.109553
0.0953642
0.0823945
0.0704311
0.0593099
0.0489078
0.0391384
0.029951
0.0213372
0.01337
0.00592048
0.00196625
0.00053983
0.0001327
1.13243
0.910319
0.741849
0.61265
0.512179
0.432977
0.369695
0.318455
0.276415
0.241466
0.212002
0.186856
0.165117
0.146089
0.129229
0.114115
0.100416
0.0878714
0.0762779
0.0654755
0.0553416
0.0457852
0.0367449
0.0281892
0.0201285
0.0126425
0.00552739
0.00187832
0.000526545
1.0699
0.865076
0.709021
0.588858
0.495056
0.420842
0.361339
0.312999
0.273209
0.240023
0.211975
0.188001
0.167225
0.148999
0.132817
0.118283
0.105084
0.0929767
0.0817647
0.0712948
0.0614471
0.0521301
0.043277
0.0348453
0.0268196
0.0192212
0.0121215
0.00531109
0.00181314
1.00853
0.820373
0.67635
0.56499
0.477716
0.408407
0.35264
0.307181
0.269646
0.238253
0.211665
0.188839
0.169017
0.151591
0.136086
0.122132
0.109438
0.0977701
0.0869449
0.076815
0.0672646
0.058203
0.0495619
0.041293
0.0333686
0.0257842
0.0185635
0.0117987
0.00514574
0.948483
0.776341
0.643943
0.541131
0.460227
0.39573
0.343645
0.301041
0.265747
0.236139
0.210988
0.189341
0.170489
0.153874
0.139058
0.125696
0.113514
0.102294
0.0918631
0.0820806
0.0728359
0.0640411
0.0556282
0.0475465
0.039762
0.032258
0.0250379
0.0181452
0.0114905
0.889908
0.733095
0.611889
0.51735
0.442646
0.382855
0.334389
0.294605
0.261534
0.233699
0.209978
0.189508
0.171645
0.155859
0.141748
0.128992
0.117335
0.106575
0.0965481
0.0871227
0.0781934
0.0696758
0.0615037
0.053626
0.046006
0.038621
0.031463
0.0245453
0.0179029
0.832922
0.690729
0.580264
0.493709
0.425019
0.369819
0.324903
0.287899
0.257033
0.23097
0.208691
0.189413
0.17254
0.157592
0.144196
0.132055
0.120935
0.110645
0.101032
0.0919735
0.083369
0.0751384
0.0672177
0.0595568
0.0521182
0.0448761
0.0378166
0.03094
0.0242627
0.777633
0.649332
0.549136
0.470257
0.407384
0.35665
0.315208
0.280941
0.252261
0.227966
0.207138
0.189073
0.173194
0.159092
0.146421
0.134909
0.124338
0.11453
0.105344
0.0966632
0.0883943
0.0804609
0.0728018
0.0653687
0.0581243
0.0510416
0.0441037
0.0373039
0.0306452
0.724143
0.608985
0.518567
0.447042
0.389775
0.343372
0.305319
0.273739
0.247218
0.224678
0.205294
0.188427
0.173572
0.160339
0.148416
0.137553
0.12755
0.118243
0.109501
0.101214
0.0932946
0.0856713
0.078286
0.071092
0.0640534
0.057143
0.0503425
0.0436419
0.0370381
0.672547
0.569768
0.488621
0.424112
0.372227
0.330008
0.295252
0.266304
0.241909
0.221111
0.20317
0.18751
0.173676
0.161334
0.150183
0.139993
0.130581
0.121798
0.113519
0.105645
0.0980935
0.0907965
0.0836994
0.0767578
0.069937
0.0632105
0.0565598
0.0499732
0.0434456
0.62294
0.531759
0.459361
0.401516
0.354776
0.316585
0.285023
0.258643
0.23634
0.217268
0.20077
0.186333
0.173552
0.162108
0.151742
0.142244
0.133446
0.125208
0.117416
0.109978
0.102815
0.0958645
0.0890733
0.0823998
0.0758106
0.0692801
0.0627899
0.0563284
0.0498894
0.575414
0.495043
0.430856
0.379308
0.337464
0.303131
0.274652
0.250768
0.230515
0.213148
0.198089
0.184882
0.173169
0.162639
0.15308
0.1443
0.136142
0.128479
0.121204
0.11423
0.107483
0.100904
0.0944414
0.0880561
0.0817155
0.075395
0.0690768
0.0627494
0.056407
0.530063
0.459706
0.403183
0.357551
0.320339
0.289682
0.264163
0.242694
0.22444
0.208751
0.195116
0.183134
0.172481
0.162896
0.154176
0.146146
0.138663
0.131611
0.124888
0.118414
0.112118
0.105943
0.0998404
0.0937702
0.0877011
0.0816089
0.0754763
0.0692925
0.0630524
0.486982
0.425842
0.376426
0.336319
0.303462
0.276288
0.253592
0.234447
0.218131
0.204082
0.191855
0.181094
0.171514
0.162878
0.155027
0.147779
0.141007
0.134603
0.128474
0.122543
0.116742
0.111013
0.10531
0.0995917
0.093826
0.0879881
0.0820605
0.0760326
0.0699003
0.446269
0.393555
0.350684
0.315699
0.286908
0.263009
0.24299
0.226064
0.211615
0.19916
0.188313
0.178765
0.170268
0.162619
0.155634
0.149188
0.143158
0.137443
0.131954
0.126616
0.121363
0.116136
0.110886
0.10557
0.100154
0.0946095
0.0889173
0.0830656
0.0770505
0.408028
0.362957
0.326067
0.295795
0.270772
0.249929
0.232425
0.2176
0.204934
0.194014
0.184508
0.17615
0.168721
0.162043
0.155951
0.150335
0.145083
0.140099
0.1353
0.130612
0.125969
0.12131
0.116583
0.11174
0.106739
0.101548
0.0961405
0.0905016
0.0846254
0.372361
0.334167
0.3027
0.276728
0.255167
0.237151
0.221992
0.20914
0.198159
0.188702
0.180485
0.173278
0.166892
0.161168
0.155965
0.1512
0.14675
0.142532
0.138467
0.134484
0.130517
0.126502
0.122381
0.118097
0.113601
0.108849
0.103804
0.0984408
0.0927481
0.339373
0.307312
0.280719
0.258638
0.240231
0.224809
0.211815
0.200797
0.191395
0.183315
0.17632
0.170213
0.164833
0.160044
0.155736
0.151791
0.148138
0.144698
0.141395
0.138161
0.134929
0.131632
0.128204
0.124581
0.120698
0.116496
0.111922
0.106933
0.101502
0.309162
0.282524
0.260273
0.241683
0.226126
0.213065
0.202053
0.192726
0.184786
0.177989
0.172136
0.167062
0.162629
0.158723
0.155248
0.152108
0.149237
0.146567
0.144032
0.141568
0.139108
0.136586
0.13393
0.131066
0.127913
0.124391
0.120422
0.115938
0.110884
0.281818
0.259928
0.241512
0.226031
0.213031
0.202104
0.192898
0.185118
0.178522
0.172907
0.168107
0.163984
0.160423
0.15733
0.154623
0.152231
0.150092
0.148152
0.146355
0.144646
0.142965
0.141245
0.139413
0.137385
0.135067
0.132354
0.129139
0.125313
0.120783
0.257412
0.239639
0.224583
0.21185
0.201133
0.192128
0.184559
0.17819
0.172822
0.168287
0.164448
0.161188
0.158413
0.156048
0.154027
0.152298
0.150807
0.149522
0.148397
0.14739
0.146448
0.145515
0.144518
0.143369
0.141961
0.140167
0.137843
0.134836
0.130991
0.235982
0.221743
0.209608
0.199292
0.190607
0.18333
0.177247
0.172166
0.167922
0.164373
0.161404
0.158918
0.156838
0.155106
0.153673
0.152496
0.151549
0.150814
0.15026
0.149859
0.149575
0.149366
0.149164
0.148886
0.148419
0.147611
0.146293
0.144257
0.141259
0.217513
0.206278
0.196664
0.188467
0.181593
0.175878
0.171152
0.167256
0.164049
0.161408
0.159232
0.15744
0.155969
0.154777
0.153818
0.15307
0.152551
0.152242
0.15213
0.152205
0.152451
0.152856
0.153358
0.153887
0.154332
0.154516
0.154278
0.153354
0.151351
0.201928
0.193219
0.185768
0.179431
0.174177
0.169886
0.166418
0.163634
0.161407
0.159623
0.15819
0.157037
0.156099
0.15533
0.154741
0.154342
0.154134
0.154117
0.154286
0.154686
0.155317
0.156172
0.157229
0.158439
0.159712
0.160889
0.161754
0.161885
0.161022
0.18907
0.182467
0.176867
0.172166
0.16838
0.165412
0.163141
0.161434
0.16017
0.159235
0.158518
0.157949
0.157498
0.157151
0.156898
0.15676
0.156746
0.156871
0.157187
0.157741
0.15856
0.159671
0.161086
0.162788
0.164725
0.16677
0.16871
0.170086
0.170224
0.178714
0.17385
0.169835
0.166592
0.164161
0.162457
0.161365
0.160751
0.160475
0.160404
0.160458
0.16057
0.160685
0.160779
0.160849
0.160914
0.161013
0.161191
0.161512
0.162046
0.162856
0.164
0.165529
0.16747
0.169824
0.172518
0.175401
0.177972
0.179429
0.17058
0.167146
0.164499
0.162576
0.161429
0.160975
0.161098
0.161623
0.162437
0.163409
0.164414
0.165357
0.166167
0.166813
0.167292
0.167626
0.167864
0.168068
0.16832
0.168713
0.169342
0.170299
0.171675
0.173546
0.175982
0.178986
0.182539
0.186122
0.189031
0.164358
0.162099
0.16065
0.159952
0.160062
0.160885
0.16229
0.164131
0.166253
0.168486
0.170684
0.172727
0.17452
0.176009
0.177173
0.178022
0.178603
0.178985
0.179259
0.179536
0.179932
0.180572
0.181581
0.18308
0.185213
0.188074
0.191844
0.196
0.200253
0.159735
0.158448
0.158067
0.158536
0.15991
0.162081
0.164938
0.168301
0.171985
0.175803
0.179581
0.183163
0.186421
0.189262
0.191636
0.193528
0.194964
0.196004
0.196736
0.197269
0.197728
0.19825
0.198974
0.200047
0.201674
0.204015
0.207442
0.211451
0.216249
0.156415
0.155941
0.156534
0.158146
0.16082
0.164471
0.168955
0.174089
0.179676
0.185507
0.191379
0.197101
0.202507
0.207465
0.211883
0.215716
0.218959
0.221649
0.223858
0.225683
0.227239
0.228652
0.230046
0.231576
0.233287
0.235492
0.238525
0.242158
0.245675
0.154131
0.154344
0.155848
0.158602
0.16265
0.167903
0.17422
0.181422
0.189303
0.197645
0.206223
0.214822
0.223243
0.231323
0.238935
0.246005
0.252505
0.258459
0.263932
0.269025
0.273861
0.278577
0.283303
0.288229
0.293221
0.298575
0.303899
0.310537
0.308826
0.152651
0.15345
0.155832
0.159736
0.165228
0.17222
0.180588
0.190163
0.20075
0.212131
0.224082
0.236377
0.248806
0.26119
0.273391
0.28533
0.296985
0.3084
0.319682
0.330996
0.342558
0.354633
0.367517
0.381604
0.397069
0.41511
0.433079
0.458914
0.449225
0.151774
0.15308
0.156313
0.161386
0.168389
0.177252
0.187875
0.200114
0.2138
0.228741
0.24473
0.26156
0.279037
0.297
0.315338
0.334005
0.353038
0.372564
0.392809
0.414107
0.436915
0.461822
0.489613
0.521276
0.558047
0.602572
0.65432
0.731992
0.720727
0.15134
0.153084
0.157157
0.163407
0.171979
0.182824
0.195876
0.211033
0.22817
0.247142
0.26779
0.289959
0.313512
0.338349
0.364439
0.391833
0.420696
0.451327
0.484181
0.519905
0.559395
0.603833
0.654926
0.714796
0.78706
0.876071
0.990339
1.14354
1.16757
0.151255
0.153369
0.158281
0.165708
0.175897
0.188811
0.204434
0.222718
0.243603
0.267016
0.292883
0.32114
0.351754
0.38475
0.420243
0.458466
0.499812
0.544868
0.594474
0.64978
0.712384
0.784405
0.869059
0.970232
1.09574
1.25199
1.46601
1.71773
1.87567
0.000990143
0.000990137
0.000990131
0.00099013
0.000990134
0.000990143
0.000990149
0.000990147
0.000990138
0.000990134
0.000990141
0.00099015
0.000990148
0.000990144
0.000990148
0.000990151
0.000990144
0.000990136
0.000990136
0.000990155
0.000990165
0.000990159
0.000990138
0.000990127
0.000990137
0.000990148
0.000990148
0.000990152
0.000990164
0.000990163
0.000990144
0.000990127
0.000990124
0.000990141
0.000990145
0.000990145
0.000990145
0.000990145
0.000990145
0.000990145
0.000990145
0.000990145
0.000990145
0.000990145
0.000990145
0.000990146
0.000990146
0.000990146
0.000990146
0.000990146
0.000990147
0.000990147
0.000990147
0.000990147
0.000990148
0.000990148
0.000990148
0.000990148
0.000990149
0.000990149
0.000990149
0.000990149
0.000990149
0.00099015
0.00099015
0.00099015
0.00099015
0.000990151
0.000990151
0.000990151
0.000990152
0.000990152
0.000990153
0.000990152
0.000990153
0.000990152
0.000990153
0.000990154
0.000990154
0.000990157
0.000990156
0.000990157
0.000990156
0.000990153
0.000990154
0.000990155
0.000990157
0.000990153
0.000990155
0.000990157
0.000990157
0.000990156
0.000990156
0.000990157
0.000990158
0.000990158
0.000990158
0.000990158
0.000990158
0.000990158
0.000990158
0.000990158
0.000990158
0.000990159
0.000990159
0.000990159
0.000990159
0.000990159
0.000990159
0.000990159
0.000990159
0.000990159
0.000990159
0.000990159
0.000990159
0.000990159
0.000990159
0.00099016
0.00099016
0.00099016
0.00099016
0.000990159
0.000990159
0.00099016
0.00099016
0.00099016
0.00099016
0.00099016
0.00099016
0.000990161
0.000990161
0.000990164
0.000990163
0.000990166
0.000990164
0.00099017
0.000990167
0.000990178
0.00100814
4.09927e-005
4.0984e-005
4.09771e-005
4.09758e-005
4.09835e-005
4.09969e-005
4.1004e-005
4.09987e-005
4.09851e-005
4.09816e-005
4.09944e-005
4.10054e-005
4.10008e-005
4.09951e-005
4.10026e-005
4.10065e-005
4.09947e-005
4.09834e-005
4.0985e-005
4.10133e-005
4.10265e-005
4.10145e-005
4.09853e-005
4.09715e-005
4.09871e-005
4.10018e-005
4.1002e-005
4.10095e-005
4.10252e-005
4.10223e-005
4.09948e-005
4.09708e-005
4.09694e-005
4.09942e-005
4.09997e-005
4.09993e-005
4.09989e-005
4.09987e-005
4.09987e-005
4.09988e-005
4.09989e-005
4.09991e-005
4.09994e-005
4.09999e-005
4.10003e-005
4.10005e-005
4.10008e-005
4.1001e-005
4.10013e-005
4.10017e-005
4.10021e-005
4.10024e-005
4.10029e-005
4.10033e-005
4.10038e-005
4.10041e-005
4.10047e-005
4.1005e-005
4.10056e-005
4.10059e-005
4.10063e-005
4.10068e-005
4.10071e-005
4.10078e-005
4.10079e-005
4.10086e-005
4.10087e-005
4.10098e-005
4.10096e-005
4.10102e-005
4.10108e-005
4.10104e-005
4.10122e-005
4.10115e-005
4.10126e-005
4.1012e-005
4.10133e-005
4.10139e-005
4.10144e-005
4.10181e-005
4.10177e-005
4.10192e-005
4.10181e-005
4.10136e-005
4.10151e-005
4.10167e-005
4.10188e-005
4.10132e-005
4.1017e-005
4.102e-005
4.10195e-005
4.10182e-005
4.10184e-005
4.10192e-005
4.10202e-005
4.10205e-005
4.10208e-005
4.10207e-005
4.10209e-005
4.10211e-005
4.10212e-005
4.10213e-005
4.10214e-005
4.10215e-005
4.10215e-005
4.10215e-005
4.10215e-005
4.10217e-005
4.10218e-005
4.10219e-005
4.1022e-005
4.10221e-005
4.10222e-005
4.10223e-005
4.10223e-005
4.10225e-005
4.10225e-005
4.10225e-005
4.10225e-005
4.10224e-005
4.10222e-005
4.10221e-005
4.10219e-005
4.1022e-005
4.10222e-005
4.10224e-005
4.10224e-005
4.10228e-005
4.10225e-005
4.10234e-005
4.10242e-005
4.10279e-005
4.10262e-005
4.10321e-005
4.10287e-005
4.1036e-005
4.10368e-005
4.10672e-005
4.46696e-005
3.38023e-006
3.37976e-006
3.37981e-006
3.38064e-006
3.38262e-006
3.38358e-006
3.38231e-006
3.38019e-006
3.3797e-006
3.38197e-006
3.38427e-006
3.38368e-006
3.38146e-006
3.38156e-006
3.38328e-006
3.38332e-006
3.38144e-006
3.38033e-006
3.38224e-006
3.38463e-006
3.38431e-006
3.38145e-006
3.37998e-006
3.38042e-006
3.38348e-006
3.38367e-006
3.38393e-006
3.38532e-006
3.38587e-006
3.38337e-006
3.38127e-006
3.38062e-006
3.38313e-006
3.38526e-006
3.38499e-006
3.38504e-006
3.38514e-006
3.38521e-006
3.38529e-006
3.38539e-006
3.3855e-006
3.38562e-006
3.38577e-006
3.38594e-006
3.38609e-006
3.3862e-006
3.38631e-006
3.38639e-006
3.38658e-006
3.38663e-006
3.38672e-006
3.38684e-006
3.38698e-006
3.38713e-006
3.38726e-006
3.38739e-006
3.38756e-006
3.38767e-006
3.38783e-006
3.38794e-006
3.38808e-006
3.38822e-006
3.38832e-006
3.38849e-006
3.38858e-006
3.38874e-006
3.38881e-006
3.38902e-006
3.38903e-006
3.38921e-006
3.38936e-006
3.38932e-006
3.38968e-006
3.38961e-006
3.38986e-006
3.38986e-006
3.39017e-006
3.39039e-006
3.39044e-006
3.39055e-006
3.39068e-006
3.39115e-006
3.39093e-006
3.39081e-006
3.39065e-006
3.39095e-006
3.39057e-006
3.39038e-006
3.39116e-006
3.39137e-006
3.3912e-006
3.39121e-006
3.39134e-006
3.39142e-006
3.39143e-006
3.39139e-006
3.39147e-006
3.39154e-006
3.39159e-006
3.39163e-006
3.39165e-006
3.39167e-006
3.39167e-006
3.39168e-006
3.39166e-006
3.39166e-006
3.39163e-006
3.39163e-006
3.39161e-006
3.3916e-006
3.39158e-006
3.39156e-006
3.39152e-006
3.39147e-006
3.39143e-006
3.39133e-006
3.39129e-006
3.39115e-006
3.39106e-006
3.39092e-006
3.39076e-006
3.39059e-006
3.39042e-006
3.39031e-006
3.39023e-006
3.39018e-006
3.39013e-006
3.38998e-006
3.39011e-006
3.39012e-006
3.38959e-006
3.39028e-006
3.39039e-006
3.39065e-006
3.38934e-006
3.40585e-006
3.34484e-006
3.0814e-006
5.44108e-006
5.32805e-007
5.32837e-007
5.32911e-007
5.33201e-007
5.33399e-007
5.33151e-007
5.32817e-007
5.3293e-007
5.33446e-007
5.33875e-007
5.33688e-007
5.33212e-007
5.33156e-007
5.33747e-007
5.34138e-007
5.34044e-007
5.3351e-007
5.33322e-007
5.33653e-007
5.33809e-007
5.33569e-007
5.33149e-007
5.33163e-007
5.33536e-007
5.34032e-007
5.34117e-007
5.34195e-007
5.3431e-007
5.34123e-007
5.3374e-007
5.33652e-007
5.33784e-007
5.34315e-007
5.34451e-007
5.345e-007
5.34562e-007
5.3462e-007
5.34669e-007
5.34718e-007
5.34772e-007
5.34827e-007
5.34885e-007
5.34952e-007
5.35018e-007
5.35078e-007
5.35127e-007
5.35176e-007
5.35211e-007
5.35243e-007
5.35298e-007
5.3537e-007
5.35423e-007
5.35473e-007
5.35528e-007
5.35581e-007
5.35632e-007
5.35692e-007
5.35742e-007
5.35801e-007
5.35849e-007
5.35904e-007
5.35957e-007
5.36004e-007
5.36062e-007
5.36108e-007
5.36163e-007
5.36208e-007
5.36269e-007
5.36303e-007
5.36363e-007
5.36414e-007
5.36446e-007
5.36541e-007
5.36556e-007
5.36611e-007
5.36659e-007
5.36661e-007
5.36743e-007
5.36823e-007
5.36814e-007
5.36906e-007
5.36958e-007
5.36995e-007
5.36974e-007
5.37012e-007
5.3702e-007
5.36969e-007
5.3694e-007
5.3698e-007
5.36998e-007
5.37057e-007
5.37064e-007
5.37045e-007
5.37048e-007
5.37082e-007
5.37147e-007
5.37192e-007
5.37239e-007
5.37262e-007
5.37277e-007
5.37288e-007
5.37298e-007
5.37303e-007
5.37309e-007
5.37307e-007
5.37307e-007
5.37298e-007
5.37293e-007
5.37284e-007
5.37274e-007
5.37262e-007
5.37245e-007
5.37227e-007
5.37198e-007
5.37178e-007
5.37142e-007
5.37122e-007
5.37078e-007
5.37039e-007
5.36986e-007
5.36927e-007
5.36854e-007
5.36782e-007
5.36706e-007
5.36636e-007
5.3653e-007
5.36455e-007
5.36343e-007
5.36274e-007
5.36241e-007
5.36215e-007
5.36287e-007
5.35345e-007
5.4396e-007
5.41075e-007
4.5062e-007
7.95593e-007
8.00827e-005
0.00971278
1.46098e-007
1.46109e-007
1.46169e-007
1.46232e-007
1.4622e-007
1.46166e-007
1.46203e-007
1.46353e-007
1.46449e-007
1.46418e-007
1.46308e-007
1.46289e-007
1.46426e-007
1.46606e-007
1.4662e-007
1.46498e-007
1.46368e-007
1.46385e-007
1.46457e-007
1.46482e-007
1.46441e-007
1.46408e-007
1.46454e-007
1.46561e-007
1.46634e-007
1.46695e-007
1.46746e-007
1.46763e-007
1.46699e-007
1.46667e-007
1.46684e-007
1.46761e-007
1.46877e-007
1.4691e-007
1.4695e-007
1.46981e-007
1.4701e-007
1.47034e-007
1.47057e-007
1.47083e-007
1.4711e-007
1.47139e-007
1.4717e-007
1.47201e-007
1.4723e-007
1.47256e-007
1.4728e-007
1.47305e-007
1.47342e-007
1.47369e-007
1.47386e-007
1.47405e-007
1.47435e-007
1.47466e-007
1.47494e-007
1.47521e-007
1.47549e-007
1.47576e-007
1.47604e-007
1.4763e-007
1.47657e-007
1.47684e-007
1.4771e-007
1.47736e-007
1.47761e-007
1.47787e-007
1.47813e-007
1.47837e-007
1.4786e-007
1.47886e-007
1.47904e-007
1.47932e-007
1.47956e-007
1.47976e-007
1.47994e-007
1.48016e-007
1.48011e-007
1.48029e-007
1.48055e-007
1.4805e-007
1.48081e-007
1.48093e-007
1.48117e-007
1.48131e-007
1.48164e-007
1.4816e-007
1.48139e-007
1.48157e-007
1.48184e-007
1.48219e-007
1.48251e-007
1.48256e-007
1.4827e-007
1.48293e-007
1.48316e-007
1.48322e-007
1.48328e-007
1.48323e-007
1.48327e-007
1.48336e-007
1.48337e-007
1.48343e-007
1.48343e-007
1.48347e-007
1.48348e-007
1.48347e-007
1.48346e-007
1.48339e-007
1.48335e-007
1.48325e-007
1.48318e-007
1.48301e-007
1.4829e-007
1.48265e-007
1.48251e-007
1.48229e-007
1.48216e-007
1.48192e-007
1.48173e-007
1.48148e-007
1.48123e-007
1.48091e-007
1.48062e-007
1.48026e-007
1.47999e-007
1.48017e-007
1.48009e-007
1.47794e-007
1.47755e-007
1.48087e-007
1.4757e-007
1.47227e-007
1.5132e-007
1.26556e-007
1.29733e-007
6.5733e-007
6.43118e-005
0.00592932
0.105216
6.06202e-008
6.06317e-008
6.06572e-008
6.06726e-008
6.06717e-008
6.06758e-008
6.07128e-008
6.07574e-008
6.07617e-008
6.07396e-008
6.07273e-008
6.07555e-008
6.08212e-008
6.08586e-008
6.08494e-008
6.07921e-008
6.07754e-008
6.08012e-008
6.08476e-008
6.08728e-008
6.08644e-008
6.08645e-008
6.08848e-008
6.09308e-008
6.09691e-008
6.09947e-008
6.1014e-008
6.10209e-008
6.10082e-008
6.10043e-008
6.101e-008
6.10528e-008
6.1095e-008
6.11238e-008
6.11481e-008
6.11639e-008
6.11802e-008
6.11959e-008
6.12119e-008
6.12283e-008
6.12455e-008
6.1264e-008
6.12824e-008
6.12991e-008
6.1315e-008
6.13332e-008
6.13515e-008
6.13634e-008
6.13741e-008
6.13869e-008
6.14082e-008
6.14353e-008
6.14566e-008
6.14717e-008
6.14868e-008
6.15034e-008
6.15197e-008
6.15364e-008
6.15528e-008
6.15692e-008
6.15859e-008
6.16012e-008
6.16182e-008
6.16328e-008
6.16491e-008
6.16632e-008
6.168e-008
6.1692e-008
6.17079e-008
6.17222e-008
6.17307e-008
6.17524e-008
6.17589e-008
6.1777e-008
6.17836e-008
6.18018e-008
6.18064e-008
6.18161e-008
6.18345e-008
6.18349e-008
6.18483e-008
6.1856e-008
6.18691e-008
6.1887e-008
6.19049e-008
6.19039e-008
6.18931e-008
6.18976e-008
6.19085e-008
6.19153e-008
6.19293e-008
6.19413e-008
6.19575e-008
6.19687e-008
6.19724e-008
6.19727e-008
6.19745e-008
6.19826e-008
6.19871e-008
6.19993e-008
6.2e-008
6.2006e-008
6.20058e-008
6.20081e-008
6.20106e-008
6.2009e-008
6.20131e-008
6.20063e-008
6.20084e-008
6.19978e-008
6.19981e-008
6.19839e-008
6.19816e-008
6.19635e-008
6.19625e-008
6.19468e-008
6.19432e-008
6.19273e-008
6.19199e-008
6.1907e-008
6.18945e-008
6.1874e-008
6.18604e-008
6.18357e-008
6.17993e-008
6.1658e-008
6.16154e-008
6.18584e-008
6.16823e-008
6.13074e-008
6.18266e-008
6.27364e-008
5.32951e-008
9.40055e-008
1.61444e-006
0.000118396
0.00568771
0.0789905
0.406092
3.31347e-008
3.31604e-008
3.31791e-008
3.31815e-008
3.31843e-008
3.3195e-008
3.32108e-008
3.3218e-008
3.32211e-008
3.32291e-008
3.32444e-008
3.32605e-008
3.32747e-008
3.32809e-008
3.32778e-008
3.32744e-008
3.32917e-008
3.33039e-008
3.33209e-008
3.33378e-008
3.3348e-008
3.33593e-008
3.33692e-008
3.3381e-008
3.34009e-008
3.34181e-008
3.34334e-008
3.34432e-008
3.3445e-008
3.34469e-008
3.34528e-008
3.34771e-008
3.34979e-008
3.35199e-008
3.35336e-008
3.35458e-008
3.3559e-008
3.35716e-008
3.35837e-008
3.35962e-008
3.36091e-008
3.36216e-008
3.36336e-008
3.36463e-008
3.36587e-008
3.36701e-008
3.368e-008
3.36905e-008
3.37052e-008
3.37229e-008
3.37363e-008
3.3745e-008
3.37517e-008
3.37641e-008
3.37782e-008
3.37921e-008
3.38038e-008
3.38164e-008
3.38277e-008
3.38397e-008
3.38509e-008
3.38621e-008
3.38735e-008
3.38843e-008
3.38951e-008
3.39058e-008
3.39168e-008
3.39265e-008
3.39379e-008
3.39478e-008
3.39556e-008
3.39689e-008
3.39745e-008
3.39867e-008
3.3992e-008
3.40025e-008
3.40077e-008
3.40112e-008
3.40216e-008
3.40276e-008
3.40342e-008
3.40403e-008
3.40463e-008
3.4056e-008
3.40656e-008
3.40673e-008
3.40696e-008
3.40787e-008
3.4082e-008
3.40869e-008
3.40997e-008
3.41115e-008
3.4117e-008
3.41186e-008
3.41233e-008
3.41287e-008
3.41342e-008
3.41402e-008
3.41423e-008
3.4145e-008
3.41476e-008
3.41505e-008
3.41519e-008
3.41542e-008
3.41534e-008
3.41536e-008
3.41521e-008
3.41523e-008
3.41507e-008
3.41488e-008
3.41453e-008
3.41403e-008
3.41357e-008
3.4129e-008
3.41247e-008
3.41188e-008
3.41131e-008
3.41059e-008
3.40992e-008