/*--------------------------------*- C++ -*----------------------------------*\
| =========                 |                                                 |
| \\      /  F ield         | OpenFOAM: The Open Source CFD Toolbox           |
|  \\    /   O peration     | Version:  5.x                                   |
|   \\  /    A nd           | Web:      www.OpenFOAM.org                      |
|    \\/     M anipulation  |                                                 |
\*---------------------------------------------------------------------------*/
/*   Windows 32 and 64 bit porting by blueCAPE: http://www.bluecape.com.pt   *\
|  Based on Windows porting (2.0.x v4) by Symscape: http://www.symscape.com   |
\*---------------------------------------------------------------------------*/
FoamFile
{
    version     2.0;
    format      ascii;
    class       volScalarField;
    location    "370";
    object      nut;
}
// * * * * * * * * * * * * * * * * * * * * * * * * * * * * * * * * * * * * * //

dimensions      [0 2 -1 0 0 0 0];

internalField   nonuniform List<scalar> 
43900
(
5.71601e-005
5.80007e-005
5.80694e-005
5.80642e-005
5.80595e-005
5.80585e-005
5.80588e-005
5.80589e-005
5.80589e-005
5.80592e-005
5.80592e-005
5.80594e-005
5.80595e-005
5.80594e-005
5.80596e-005
5.80599e-005
5.80598e-005
5.80595e-005
5.80598e-005
5.806e-005
5.80601e-005
5.80601e-005
5.80603e-005
5.80604e-005
5.80602e-005
5.80597e-005
5.80596e-005
5.80601e-005
5.80606e-005
0.000591869
7.39592e-006
4.30786e-006
4.16117e-006
4.57962e-006
4.60585e-006
4.60887e-006
4.60365e-006
4.60359e-006
4.60418e-006
4.60437e-006
4.60496e-006
4.6051e-006
4.60508e-006
4.60554e-006
4.60611e-006
4.60588e-006
4.60548e-006
4.60611e-006
4.60658e-006
4.60669e-006
4.60696e-006
4.60726e-006
4.60739e-006
4.60687e-006
4.60603e-006
4.60608e-006
4.6071e-006
4.60807e-006
0.153503
0.0456483
0.005232
0.000108888
1.31768e-006
6.44539e-007
6.01846e-007
7.14069e-007
7.25102e-007
7.23449e-007
7.21791e-007
7.21867e-007
7.22308e-007
7.22475e-007
7.22642e-007
7.22863e-007
7.22872e-007
7.22916e-007
7.23124e-007
7.23215e-007
7.2336e-007
7.235e-007
7.23572e-007
7.23564e-007
7.23457e-007
7.23527e-007
7.23781e-007
7.24038e-007
7.23988e-007
0.476071
0.291951
0.134146
0.038762
0.00466891
0.000181599
4.26624e-006
2.5742e-007
1.74234e-007
1.93623e-007
2.13815e-007
2.15572e-007
2.12638e-007
2.11793e-007
2.12297e-007
2.12482e-007
2.12354e-007
2.124e-007
2.12533e-007
2.12563e-007
2.12606e-007
2.12632e-007
2.12672e-007
2.12736e-007
2.12766e-007
2.1282e-007
2.12854e-007
2.12859e-007
2.12863e-007
0.757014
0.581696
0.414249
0.249269
0.107049
0.0268401
0.00273201
0.000132748
3.13229e-006
2.15719e-007
9.06327e-008
8.35241e-008
1.02247e-007
1.06191e-007
1.03291e-007
1.02778e-007
1.03708e-007
1.03771e-007
1.03479e-007
1.03533e-007
1.03596e-007
1.03571e-007
1.0358e-007
1.03608e-007
1.03606e-007
1.03615e-007
1.03649e-007
1.03665e-007
1.03701e-007
0.967209
0.799184
0.642924
0.491194
0.339348
0.188695
0.068798
0.0126407
0.000959279
4.81796e-005
1.45496e-006
1.5607e-007
6.3912e-008
6.06919e-008
7.21262e-008
7.24344e-008
6.89441e-008
6.93964e-008
7.06168e-008
7.03045e-008
7.02115e-008
7.04067e-008
7.05023e-008
7.05313e-008
7.05609e-008
7.05672e-008
7.05576e-008
7.05677e-008
7.06014e-008
1.1252
0.962908
0.814628
0.674104
0.536324
0.397322
0.254399
0.113119
0.0293313
0.00327601
0.000202154
1.06753e-005
4.03733e-007
8.39248e-008
4.9635e-008
5.32427e-008
6.25651e-008
5.93576e-008
5.70119e-008
5.82513e-008
5.83355e-008
5.77664e-008
5.77094e-008
5.77176e-008
5.77167e-008
5.77779e-008
5.78625e-008
5.78498e-008
5.78082e-008
1.24431
1.08647
0.943853
0.810896
0.682965
0.55627
0.428104
0.298211
0.162657
0.0534852
0.00837861
0.000631703
3.85273e-005
2.11529e-006
1.36498e-007
5.64446e-008
4.29716e-008
5.08926e-008
5.34112e-008
5.03803e-008
5.08859e-008
5.21442e-008
5.19501e-008
5.19423e-008
5.20078e-008
5.19333e-008
5.1878e-008
5.19216e-008
5.19936e-008
1.33688
1.18309
1.04511
0.917893
0.797223
0.679585
0.562154
0.442818
0.319692
0.192798
0.0725129
0.0139208
0.00125238
8.53712e-005
5.55333e-006
3.35347e-007
7.37492e-008
4.75778e-008
4.60036e-008
5.23515e-008
4.96466e-008
4.83078e-008
4.8967e-008
4.88614e-008
4.85976e-008
4.87149e-008
4.87891e-008
4.87606e-008
4.88066e-008
1.40187
1.25361
1.12072
0.999271
0.885322
0.775542
0.667151
0.557885
0.445959
0.330245
0.210962
0.0858013
0.0185992
0.0019159
0.000144291
1.04717e-005
7.45308e-007
8.45693e-008
5.06844e-008
4.11797e-008
4.69932e-008
4.76843e-008
4.64574e-008
4.71355e-008
4.76414e-008
4.73185e-008
4.71316e-008
4.70955e-008
4.70049e-008
1.44569
1.30037
1.17254
1.05637
0.948504
0.845761
0.745436
0.64527
0.543444
0.43862
0.330078
0.218215
0.0926547
0.0214914
0.00244248
0.000202376
1.62091e-005
1.28035e-006
1.27696e-007
5.8244e-008
4.2684e-008
4.40746e-008
4.67564e-008
4.48398e-008
4.47953e-008
4.57673e-008
4.60117e-008
4.59788e-008
4.60425e-008
1.4843
1.34202
1.21676
1.10411
1.00027
0.902431
0.808011
0.714802
0.62097
0.525076
0.426114
0.32362
0.218115
0.0971257
0.0234801
0.00288152
0.000261021
2.28368e-005
1.99585e-006
2.01513e-007
5.87763e-008
4.53061e-008
4.30043e-008
4.64515e-008
4.56327e-008
4.38731e-008
4.43033e-008
4.46348e-008
4.46594e-008
1.51174
1.37299
1.25055
1.14162
1.04164
0.948086
0.858617
0.771128
0.683837
0.595286
0.504356
0.410284
0.312689
0.211493
0.0963062
0.0236399
0.00307158
0.000303316
2.89867e-005
2.78804e-006
2.88429e-007
6.38722e-008
4.7939e-008
4.092e-008
4.41357e-008
4.47461e-008
4.36308e-008
4.36518e-008
4.41189e-008
1.53024
1.39568
1.27654
1.17008
1.07429
0.984693
0.899634
0.817115
0.73542
0.653112
0.569034
0.482308
0.392328
0.298709
0.201201
0.0894713
0.0217785
0.00296607
0.00032071
3.37274e-005
3.56845e-006
3.93976e-007
7.75356e-008
5.11538e-008
4.18644e-008
4.23021e-008
4.45472e-008
4.35521e-008
4.26947e-008
1.54166
1.41076
1.29594
1.19267
1.09926
1.01414
0.933114
0.855036
0.778264
0.701402
0.623295
0.543026
0.45991
0.373464
0.283397
0.1898
0.0795679
0.0189167
0.00269122
0.000318372
3.68041e-005
4.27313e-006
5.15085e-007
9.62031e-008
5.06634e-008
4.36955e-008
4.25815e-008
4.48823e-008
4.46059e-008
1.54743
1.42026
1.30888
1.20995
1.11956
1.03687
0.960248
0.886269
0.813954
0.74195
0.669125
0.594558
0.51753
0.437515
0.354163
0.267343
0.17747
0.071194
0.016496
0.002449
0.000314392
3.96417e-005
5.01915e-006
6.59408e-007
1.16382e-007
5.11916e-008
4.47895e-008
4.19501e-008
4.3532e-008
1.54865
1.42527
1.31738
1.22176
1.1357
1.05575
0.981872
0.912035
0.843835
0.776287
0.708279
0.638892
0.567395
0.493226
0.415988
0.335431
0.251447
0.163797
0.0631231
0.0144166
0.00225599
0.00031482
4.32845e-005
5.97371e-006
8.47755e-007
1.45955e-007
5.61006e-008
4.74195e-008
4.13609e-008
1.54616
1.42665
1.32228
1.22997
1.14713
1.07155
1.00043
0.933744
0.869179
0.805562
0.741827
0.677071
0.610554
0.541691
0.470045
0.395299
0.317234
0.235621
0.149968
0.0557361
0.0127136
0.00211241
0.000320014
4.78243e-005
7.16356e-006
1.09387e-006
1.91196e-007
6.53202e-008
4.71853e-008
1.54062
1.42505
1.32425
1.23527
1.15563
1.08322
1.01593
0.952249
0.891684
0.831685
0.771809
0.711187
0.649099
0.584964
0.518326
0.44884
0.376246
0.300322
0.22077
0.136854
0.0493017
0.0113466
0.00200531
0.000328826
5.32186e-005
8.61885e-006
1.41381e-006
2.57084e-007
7.52716e-008
1.53257
1.42099
1.3238
1.23815
1.16166
1.09228
1.02823
0.967369
0.909366
0.853215
0.797169
0.740573
0.682728
0.623064
0.561124
0.496552
0.429075
0.358473
0.284525
0.206881
0.12464
0.0438546
0.0103006
0.00194324
0.000344363
6.02359e-005
1.05128e-005
1.85188e-006
3.42835e-007
1.52246
1.41494
1.3214
1.2391
1.16578
1.09947
1.03851
0.981435
0.926443
0.873326
0.820526
0.767424
0.713329
0.65767
0.599984
0.539902
0.477137
0.41146
0.342672
0.270549
0.194691
0.114005
0.0395489
0.009572
0.00192792
0.000367219
6.88723e-005
1.2874e-005
2.37436e-006
1.51068
1.40726
1.31739
1.23845
1.16824
1.1049
1.04677
0.992432
0.940363
0.88995
0.840611
0.790938
0.740443
0.688577
0.634889
0.579013
0.520656
0.459585
0.395606
0.328539
0.25815
0.183986
0.10489
0.0362013
0.00907993
0.00194658
0.000396991
7.97062e-005
1.55938e-005
1.49753
1.39826
1.3121
1.23653
1.16945
1.10907
1.05385
1.00245
0.953738
0.906335
0.859791
0.813107
0.765787
0.717299
0.667197
0.615118
0.560765
0.503899
0.444326
0.381876
0.316378
0.247601
0.175125
0.0964559
0.0334112
0.00872413
0.00198926
0.000433479
9.09434e-005
1.48328
1.3882
1.30577
1.23357
1.16959
1.11211
1.05963
1.01084
0.964574
0.919669
0.875792
0.832273
0.788206
0.743088
0.696495
0.648077
0.597545
0.544663
0.489237
0.431106
0.370124
0.306136
0.238937
0.168502
0.0884306
0.0309673
0.00844259
0.00204581
0.000464765
1.46816
1.37729
1.2986
1.22978
1.16889
1.1143
1.06456
1.01846
0.974938
0.933115
0.891976
0.851222
0.809795
0.767525
0.72399
0.678831
0.631755
0.582516
0.530912
0.476776
0.419964
0.360346
0.297785
0.232191
0.164031
0.0820332
0.0291106
0.00828994
0.00207944
1.45232
1.36568
1.29076
1.22532
1.16752
1.11579
1.06877
1.02529
0.984342
0.945064
0.906473
0.868101
0.829558
0.79021
0.749679
0.70764
0.663818
0.61798
0.569928
0.519498
0.466547
0.410952
0.3526
0.291407
0.227435
0.16115
0.0776167
0.0280358
0.00813842
1.43589
1.35351
1.28236
1.2203
1.16558
1.11669
1.07233
1.03136
0.99281
0.955805
0.919553
0.883742
0.847844
0.811253
0.773592
0.73454
0.693828
0.651225
0.606537
0.559601
0.510275
0.458438
0.403986
0.346833
0.286951
0.224431
0.159538
0.07581
0.0273683
1.41896
1.34084
1.27348
1.21481
1.16317
1.1171
1.07538
1.03693
1.00084
0.96632
0.932748
0.899366
0.865969
0.831758
0.79663
0.760264
0.722388
0.682766
0.6412
0.597518
0.551576
0.503247
0.452425
0.399019
0.34297
0.28426
0.222945
0.159406
0.0749096
1.40158
1.32774
1.26417
1.20889
1.16032
1.11708
1.07798
1.04202
1.00833
0.976173
0.944922
0.913877
0.882673
0.85103
0.818492
0.784777
0.749637
0.712854
0.674237
0.633618
0.590851
0.545808
0.498379
0.448468
0.396001
0.340927
0.283248
0.222892
0.159055
1.38379
1.31422
1.25445
1.20257
1.15706
1.11663
1.08014
1.04664
1.01529
0.985377
0.956287
0.927449
0.898558
0.869333
0.839284
0.808134
0.77564
0.741591
0.7058
0.668102
0.628351
0.586419
0.54219
0.495566
0.446462
0.394813
0.340581
0.283701
0.224203
1.36557
1.30028
1.24431
1.19582
1.15339
1.11576
1.08187
1.05081
1.02179
0.994149
0.967298
0.940744
0.914191
0.887254
0.859501
0.830744
0.800739
0.769275
0.736165
0.70124
0.664352
0.625368
0.584168
0.540647
0.494714
0.446291
0.395321
0.341744
0.285421
1.34691
1.28589
1.23372
1.18863
1.14926
1.11444
1.08316
1.05455
1.02787
1.00252
0.97796
0.95379
0.929392
0.904682
0.879163
0.852715
0.825102
0.796114
0.765564
0.733285
0.699123
0.662942
0.624617
0.584037
0.541102
0.495727
0.447837
0.397365
0.344175
1.32776
1.271
1.22262
1.18092
1.14463
1.11262
1.08394
1.05778
1.03344
1.01034
0.987974
0.965906
0.943723
0.921097
0.897954
0.873882
0.848673
0.822136
0.794094
0.764384
0.732855
0.699369
0.663797
0.626022
0.585939
0.543453
0.49848
0.45094
0.400725
1.30806
1.25553
1.21094
1.17263
1.13941
1.11021
1.08415
1.06045
1.03845
1.01761
0.99743
0.977496
0.957414
0.937112
0.916232
0.894471
0.871621
0.847491
0.821907
0.794708
0.765741
0.734865
0.701948
0.666869
0.629514
0.589782
0.547579
0.502817
0.455402
1.28773
1.23941
1.19857
1.16365
1.1335
1.10713
1.0837
1.06247
1.04285
1.0243
1.00638
0.988704
0.970953
0.952899
0.934316
0.914761
0.894189
0.872402
0.84922
0.824475
0.798009
0.769677
0.739338
0.706864
0.672134
0.635038
0.595474
0.553347
0.508564
1.26669
1.22253
1.18543
1.15388
1.12679
1.10326
1.08247
1.06375
1.04652
1.03031
1.01469
0.999335
0.983974
0.968095
0.951709
0.934477
0.916259
0.896861
0.876105
0.853821
0.829848
0.804034
0.776233
0.746308
0.714128
0.679575
0.642537
0.602914
0.560609
1.24487
1.20483
1.17143
1.14322
1.11919
1.09849
1.08036
1.06416
1.04937
1.03552
1.02222
1.00915
0.995985
0.98242
0.968278
0.953548
0.937811
0.920898
0.902642
0.882877
0.861439
0.83817
0.812915
0.785527
0.755864
0.723795
0.689199
0.651966
0.611997
1.22226
1.18626
1.15651
1.13161
1.11063
1.09275
1.07728
1.06363
1.05129
1.03984
1.02892
1.01819
1.00736
0.996106
0.984569
0.972283
0.959034
0.944651
0.928962
0.911792
0.892969
0.87232
0.849675
0.824871
0.797748
0.768158
0.735965
0.701046
0.663293
1.19892
1.16686
1.1407
1.11907
1.1011
1.08603
1.07323
1.06213
1.05227
1.04325
1.03474
1.02644
1.01811
1.00956
1.00039
0.990722
0.979916
0.968106
0.955073
0.940614
0.924534
0.90664
0.88674
0.864645
0.840169
0.813137
0.783385
0.750769
0.715167
1.17502
1.14682
1.12416
1.10574
1.09074
1.07847
1.06831
1.05976
1.05238
1.04581
1.03972
1.03386
1.02798
1.02189
1.01522
1.00795
0.99997
0.990969
0.980774
0.969198
0.956043
0.9411
0.924152
0.904978
0.883358
0.859073
0.831919
0.801711
0.768296
1.15093
1.12646
1.10723
1.09195
1.07988
1.07036
1.06283
1.0568
1.05188
1.04772
1.04402
1.04055
1.03706
1.03335
1.02908
1.02448
1.01926
1.01308
1.00578
0.997206
0.987135
0.975345
0.961595
0.945624
0.927163
0.905938
0.881681
0.854143
0.823115
1.12722
1.10635
1.09045
1.07825
1.06906
1.06226
1.0573
1.05374
1.0512
1.04936
1.04794
1.04672
1.04551
1.04414
1.04251
1.04022
1.03746
1.0339
1.02944
1.02386
1.01696
1.00848
0.998152
0.985686
0.97075
0.952999
0.932078
0.907646
0.879399
1.10469
1.08728
1.07461
1.06542
1.05905
1.05489
1.05243
1.05121
1.05089
1.05115
1.05174
1.05247
1.05318
1.05374
1.05407
1.05389
1.05326
1.05218
1.05038
1.04768
1.04389
1.03876
1.03202
1.02332
1.01228
0.998475
0.981438
0.960705
0.935836
1.08434
1.07021
1.06066
1.0544
1.05075
1.04911
1.04896
1.04985
1.05141
1.05336
1.05546
1.05756
1.05956
1.06136
1.06293
1.06417
1.06504
1.066
1.06644
1.06627
1.06534
1.06344
1.06029
1.05552
1.0487
1.03931
1.02676
1.01045
0.989742
1.06722
1.0562
1.04962
1.04613
1.04502
1.04566
1.04748
1.05001
1.05286
1.05577
1.05853
1.06106
1.06331
1.0653
1.06709
1.06866
1.07062
1.07264
1.07451
1.0762
1.07762
1.07861
1.07888
1.07807
1.0757
1.07114
1.06373
1.05267
1.03706
1.05432
1.04617
1.04233
1.04136
1.04247
1.04494
1.04813
1.05151
1.05469
1.05741
1.05956
1.06111
1.06217
1.06283
1.06342
1.06479
1.06648
1.06826
1.07046
1.07309
1.07612
1.07947
1.08283
1.08586
1.08805
1.08862
1.08693
1.08207
1.07267
1.04629
1.04072
1.03928
1.04041
1.04319
1.04675
1.05036
1.05342
1.05554
1.0565
1.0563
1.05505
1.05313
1.05157
1.05027
1.04898
1.0484
1.04845
1.04973
1.05222
1.0559
1.06099
1.0669
1.07353
1.08029
1.08588
1.09037
1.093
1.09093
1.04331
1.03991
1.04038
1.04297
1.0466
1.05022
1.05297
1.05418
1.0535
1.05076
1.04623
1.04105
1.03517
1.02855
1.02217
1.01658
1.01226
1.00944
1.00842
1.0097
1.0132
1.01891
1.02661
1.03611
1.04697
1.0585
1.07037
1.07873
1.08493
1.04489
1.04319
1.04491
1.04815
1.05159
1.05399
1.05437
1.05197
1.04663
1.03872
1.02865
1.0167
1.00348
0.99005
0.977284
0.96603
0.956795
0.949748
0.945455
0.944265
0.94621
0.951363
0.959672
0.971015
0.985115
1.00154
1.01994
1.03838
1.0513
1.05004
1.04948
1.05171
1.05467
1.05678
1.05659
1.05309
1.04535
1.03446
1.01919
1.00078
0.980412
0.959065
0.938026
0.918124
0.900143
0.884766
0.872401
0.863493
0.858378
0.857235
0.860215
0.867402
0.878813
0.894381
0.914023
0.937507
0.964916
0.988752
1.05739
1.05743
1.05944
1.06119
1.06091
1.0569
1.04846
1.03464
1.01566
0.992071
0.965165
0.936301
0.906648
0.877551
0.850038
0.824942
0.802923
0.784436
0.76987
0.759535
0.753673
0.752514
0.756272
0.765091
0.779146
0.798881
0.824614
0.857558
0.892299
1.06559
1.06574
1.06689
1.0667
1.06324
1.05479
1.04049
1.0195
0.992702
0.961053
0.92598
0.88908
0.851786
0.815424
0.781036
0.749406
0.72111
0.696536
0.675982
0.659689
0.647874
0.640794
0.638717
0.641752
0.650257
0.665295
0.688027
0.720011
0.761299
1.0735
1.0734
1.07326
1.07073
1.06367
1.05045
1.03
1.00241
0.968522
0.929756
0.887816
0.844441
0.801156
0.759232
0.719618
0.682977
0.649737
0.620154
0.594383
0.572534
0.554715
0.54109
0.53183
0.526612
0.526425
0.532465
0.546045
0.568866
0.605979
1.0804
1.07983
1.07825
1.07322
1.0626
1.04474
1.01901
0.98573
0.946135
0.901946
0.855073
0.807325
0.760215
0.714908
0.672217
0.632649
0.596476
0.563807
0.534647
0.508955
0.486682
0.467821
0.452391
0.44021
0.431172
0.42678
0.428097
0.435585
0.459309
1.08594
1.08483
1.08186
1.07451
1.06075
1.03909
1.00917
0.971662
0.928105
0.880456
0.830736
0.780752
0.731944
0.685354
0.641653
0.601212
0.564181
0.530556
0.50024
0.473089
0.448933
0.42763
0.409033
0.393371
0.379337
0.367904
0.359364
0.350742
0.356226
1.09007
1.08849
1.08436
1.07519
1.05904
1.03464
1.00189
0.961768
0.916022
0.866752
0.81601
0.765554
0.716725
0.670449
0.627286
0.587512
0.551202
0.518298
0.488662
0.462114
0.438452
0.417495
0.398985
0.383182
0.369123
0.358297
0.346561
0.332816
0.322172
1.09294
1.09101
1.08611
1.07578
1.05818
1.03224
0.998068
0.956834
0.910432
0.861008
0.810591
0.760866
0.713085
0.668085
0.626354
0.588119
0.553425
0.522204
0.494321
0.469614
0.447902
0.429045
0.412809
0.399414
0.38783
0.381252
0.372615
0.370967
0.342146
1.09475
1.09268
1.08749
1.07672
1.05867
1.03236
0.998034
0.956957
0.911068
0.862503
0.813245
0.764915
0.718705
0.675402
0.635463
0.599103
0.566369
0.537211
0.511521
0.489175
0.470046
0.454061
0.441068
0.4314
0.424048
0.422846
0.41945
0.430245
0.387059
1.09576
1.09376
1.08881
1.07836
1.06081
1.03519
1.00176
0.961803
0.917222
0.87012
0.822437
0.775763
0.731266
0.689728
0.651611
0.617146
0.586405
0.559367
0.535966
0.516123
0.49977
0.486908
0.477495
0.471992
0.469612
0.474575
0.478178
0.497294
0.454699
5.80607e-005
5.80602e-005
5.80598e-005
5.80597e-005
5.806e-005
5.80607e-005
5.80612e-005
5.8061e-005
5.80603e-005
5.806e-005
5.80606e-005
5.80612e-005
5.80611e-005
5.80608e-005
5.80611e-005
5.80613e-005
5.80607e-005
5.80601e-005
5.80601e-005
5.80616e-005
5.80624e-005
5.80619e-005
5.80603e-005
5.80595e-005
5.80602e-005
5.80611e-005
5.8061e-005
5.80614e-005
5.80623e-005
5.80622e-005
5.80608e-005
5.80594e-005
5.80592e-005
5.80605e-005
5.80609e-005
5.80608e-005
5.80608e-005
5.80608e-005
5.80608e-005
5.80608e-005
5.80608e-005
5.80608e-005
5.80608e-005
5.80609e-005
5.80609e-005
5.80609e-005
5.80609e-005
5.80609e-005
5.80609e-005
5.80609e-005
5.8061e-005
5.8061e-005
5.8061e-005
5.8061e-005
5.8061e-005
5.80611e-005
5.80611e-005
5.80611e-005
5.80611e-005
5.80611e-005
5.80611e-005
5.80612e-005
5.80612e-005
5.80612e-005
5.80612e-005
5.80613e-005
5.80613e-005
5.80613e-005
5.80613e-005
5.80613e-005
5.80614e-005
5.80613e-005
5.80614e-005
5.80614e-005
5.80614e-005
5.80614e-005
5.80615e-005
5.80615e-005
5.80615e-005
5.80617e-005
5.80617e-005
5.80618e-005
5.80617e-005
5.80615e-005
5.80616e-005
5.80616e-005
5.80618e-005
5.80615e-005
5.80616e-005
5.80618e-005
5.80618e-005
5.80617e-005
5.80617e-005
5.80618e-005
5.80618e-005
5.80618e-005
5.80618e-005
5.80618e-005
5.80619e-005
5.80619e-005
5.80619e-005
5.80619e-005
5.80619e-005
5.80619e-005
5.80619e-005
5.80619e-005
5.80619e-005
5.80619e-005
5.80619e-005
5.80619e-005
5.80619e-005
5.80619e-005
5.80619e-005
5.80619e-005
5.80619e-005
5.80619e-005
5.80619e-005
5.8062e-005
5.8062e-005
5.8062e-005
5.8062e-005
5.8062e-005
5.80619e-005
5.8062e-005
5.8062e-005
5.8062e-005
5.8062e-005
5.8062e-005
5.8062e-005
5.8062e-005
5.80621e-005
5.80623e-005
5.80622e-005
5.80625e-005
5.80623e-005
5.80627e-005
5.80625e-005
5.80634e-005
5.93211e-005
4.60806e-006
4.6071e-006
4.60636e-006
4.60626e-006
4.60719e-006
4.60869e-006
4.60938e-006
4.60868e-006
4.60717e-006
4.60692e-006
4.60843e-006
4.6096e-006
4.60897e-006
4.60834e-006
4.60922e-006
4.60964e-006
4.60829e-006
4.60702e-006
4.60731e-006
4.61045e-006
4.61186e-006
4.61039e-006
4.60719e-006
4.60573e-006
4.60757e-006
4.60914e-006
4.60917e-006
4.61004e-006
4.61177e-006
4.61129e-006
4.60824e-006
4.60564e-006
4.60564e-006
4.60838e-006
4.60895e-006
4.6089e-006
4.60886e-006
4.60884e-006
4.60884e-006
4.60885e-006
4.60886e-006
4.60889e-006
4.60893e-006
4.60898e-006
4.60903e-006
4.60906e-006
4.6091e-006
4.60912e-006
4.60916e-006
4.6092e-006
4.60924e-006
4.60928e-006
4.60933e-006
4.60938e-006
4.60943e-006
4.60948e-006
4.60955e-006
4.60958e-006
4.60965e-006
4.60968e-006
4.60973e-006
4.60979e-006
4.60982e-006
4.6099e-006
4.60992e-006
4.61e-006
4.61001e-006
4.61013e-006
4.61011e-006
4.61018e-006
4.61025e-006
4.6102e-006
4.61041e-006
4.61032e-006
4.61045e-006
4.61039e-006
4.61054e-006
4.61061e-006
4.61066e-006
4.61107e-006
4.61103e-006
4.61122e-006
4.61108e-006
4.61059e-006
4.61074e-006
4.61093e-006
4.61113e-006
4.61053e-006
4.61097e-006
4.61131e-006
4.61124e-006
4.6111e-006
4.61113e-006
4.61122e-006
4.61131e-006
4.61134e-006
4.61138e-006
4.61137e-006
4.6114e-006
4.61141e-006
4.61143e-006
4.61144e-006
4.61145e-006
4.61146e-006
4.61146e-006
4.61146e-006
4.61147e-006
4.61149e-006
4.61149e-006
4.61151e-006
4.61151e-006
4.61153e-006
4.61153e-006
4.61154e-006
4.61155e-006
4.61156e-006
4.61156e-006
4.61156e-006
4.61155e-006
4.61154e-006
4.61152e-006
4.6115e-006
4.61148e-006
4.61148e-006
4.61151e-006
4.61153e-006
4.61153e-006
4.61158e-006
4.61154e-006
4.61164e-006
4.61172e-006
4.61214e-006
4.61195e-006
4.61264e-006
4.61222e-006
4.61301e-006
4.61334e-006
4.61782e-006
5.10589e-006
7.23905e-007
7.23823e-007
7.23842e-007
7.24039e-007
7.24459e-007
7.24612e-007
7.24302e-007
7.23872e-007
7.23839e-007
7.24357e-007
7.24801e-007
7.24614e-007
7.24144e-007
7.24221e-007
7.24605e-007
7.24602e-007
7.24186e-007
7.23947e-007
7.24369e-007
7.24829e-007
7.24731e-007
7.24101e-007
7.23837e-007
7.23977e-007
7.24632e-007
7.24656e-007
7.24713e-007
7.24998e-007
7.25071e-007
7.24512e-007
7.2411e-007
7.24014e-007
7.24583e-007
7.24992e-007
7.24934e-007
7.24946e-007
7.24969e-007
7.24986e-007
7.25004e-007
7.25026e-007
7.25051e-007
7.25078e-007
7.25112e-007
7.25148e-007
7.25182e-007
7.25207e-007
7.25231e-007
7.25248e-007
7.25283e-007
7.25296e-007
7.25319e-007
7.25346e-007
7.25377e-007
7.25408e-007
7.25438e-007
7.25464e-007
7.25501e-007
7.25526e-007
7.25561e-007
7.25585e-007
7.25615e-007
7.25646e-007
7.25667e-007
7.25704e-007
7.25724e-007
7.2576e-007
7.25775e-007
7.25819e-007
7.25822e-007
7.25862e-007
7.25895e-007
7.25887e-007
7.25965e-007
7.2595e-007
7.26006e-007
7.26008e-007
7.2607e-007
7.26121e-007
7.26135e-007
7.26151e-007
7.26185e-007
7.26284e-007
7.26242e-007
7.2622e-007
7.26184e-007
7.26247e-007
7.2616e-007
7.26124e-007
7.26282e-007
7.26322e-007
7.2629e-007
7.26295e-007
7.26318e-007
7.26331e-007
7.26333e-007
7.2633e-007
7.2635e-007
7.26366e-007
7.26379e-007
7.26387e-007
7.26393e-007
7.26397e-007
7.26398e-007
7.26399e-007
7.26396e-007
7.26394e-007
7.26389e-007
7.26388e-007
7.26385e-007
7.26382e-007
7.26378e-007
7.26372e-007
7.26364e-007
7.26352e-007
7.26344e-007
7.26322e-007
7.26313e-007
7.26284e-007
7.26265e-007
7.26234e-007
7.262e-007
7.26163e-007
7.26127e-007
7.261e-007
7.26082e-007
7.26068e-007
7.26056e-007
7.26019e-007
7.26044e-007
7.26057e-007
7.25932e-007
7.26076e-007
7.26119e-007
7.26038e-007
7.25812e-007
7.30754e-007
7.11804e-007
6.4151e-007
1.31707e-006
2.1292e-007
2.12936e-007
2.12973e-007
2.1309e-007
2.13149e-007
2.13034e-007
2.12914e-007
2.12986e-007
2.13208e-007
2.13352e-007
2.13252e-007
2.13059e-007
2.1307e-007
2.13319e-007
2.13462e-007
2.13403e-007
2.13187e-007
2.13128e-007
2.13253e-007
2.13289e-007
2.13187e-007
2.13032e-007
2.13059e-007
2.1322e-007
2.13398e-007
2.13429e-007
2.13463e-007
2.13499e-007
2.13405e-007
2.13261e-007
2.13251e-007
2.13318e-007
2.13532e-007
2.13564e-007
2.13585e-007
2.1361e-007
2.13632e-007
2.13651e-007
2.13671e-007
2.13691e-007
2.13713e-007
2.13737e-007
2.13763e-007
2.13789e-007
2.13813e-007
2.13832e-007
2.13851e-007
2.13865e-007
2.1388e-007
2.13904e-007
2.1393e-007
2.13948e-007
2.13968e-007
2.13989e-007
2.14011e-007
2.14031e-007
2.14055e-007
2.14074e-007
2.14098e-007
2.14117e-007
2.14138e-007
2.1416e-007
2.14178e-007
2.14201e-007
2.14219e-007
2.14241e-007
2.14259e-007
2.14283e-007
2.14297e-007
2.1432e-007
2.1434e-007
2.14354e-007
2.1439e-007
2.14396e-007
2.14418e-007
2.14437e-007
2.14434e-007
2.14465e-007
2.14495e-007
2.14488e-007
2.14526e-007
2.14544e-007
2.14561e-007
2.14556e-007
2.14572e-007
2.14573e-007
2.14551e-007
2.14546e-007
2.14561e-007
2.14572e-007
2.14599e-007
2.14601e-007
2.14594e-007
2.14596e-007
2.14612e-007
2.14636e-007
2.14654e-007
2.14666e-007
2.14675e-007
2.14679e-007
2.14684e-007
2.14687e-007
2.14689e-007
2.14691e-007
2.1469e-007
2.14691e-007
2.14686e-007
2.14685e-007
2.1468e-007
2.14677e-007
2.14671e-007
2.14664e-007
2.14656e-007
2.14645e-007
2.14635e-007
2.14622e-007
2.14613e-007
2.14596e-007
2.1458e-007
2.14559e-007
2.14537e-007
2.14509e-007
2.14481e-007
2.14451e-007
2.14424e-007
2.14379e-007
2.14347e-007
2.14313e-007
2.14282e-007
2.14245e-007
2.14276e-007
2.14308e-007
2.13731e-007
2.18699e-007
2.17009e-007
1.66786e-007
3.8977e-007
8.09301e-005
0.00677328
1.03713e-007
1.03724e-007
1.03769e-007
1.03807e-007
1.0379e-007
1.03754e-007
1.0379e-007
1.03899e-007
1.03959e-007
1.03922e-007
1.03842e-007
1.03838e-007
1.03946e-007
1.04062e-007
1.04062e-007
1.03965e-007
1.03886e-007
1.03904e-007
1.03949e-007
1.03955e-007
1.03927e-007
1.03918e-007
1.03954e-007
1.0403e-007
1.04068e-007
1.04109e-007
1.04143e-007
1.04147e-007
1.04099e-007
1.04086e-007
1.04104e-007
1.04164e-007
1.04237e-007
1.04249e-007
1.04277e-007
1.04299e-007
1.04318e-007
1.04333e-007
1.04349e-007
1.04366e-007
1.04384e-007
1.04404e-007
1.04425e-007
1.04445e-007
1.04464e-007
1.04482e-007
1.04498e-007
1.04516e-007
1.04539e-007
1.04554e-007
1.04563e-007
1.04578e-007
1.04601e-007
1.04621e-007
1.04639e-007
1.04657e-007
1.04676e-007
1.04694e-007
1.04712e-007
1.0473e-007
1.04748e-007
1.04766e-007
1.04783e-007
1.04801e-007
1.04818e-007
1.04835e-007
1.04852e-007
1.04868e-007
1.04884e-007
1.04901e-007
1.04912e-007
1.04933e-007
1.04946e-007
1.04961e-007
1.04971e-007
1.04988e-007
1.04984e-007
1.04995e-007
1.05013e-007
1.05006e-007
1.05027e-007
1.05034e-007
1.05053e-007
1.05065e-007
1.05089e-007
1.05085e-007
1.05067e-007
1.05079e-007
1.05097e-007
1.05119e-007
1.05141e-007
1.05144e-007
1.05157e-007
1.05175e-007
1.05189e-007
1.05191e-007
1.05193e-007
1.0519e-007
1.05193e-007
1.052e-007
1.052e-007
1.05204e-007
1.05204e-007
1.05206e-007
1.05208e-007
1.05206e-007
1.05207e-007
1.05201e-007
1.05199e-007
1.0519e-007
1.05187e-007
1.05174e-007
1.05167e-007
1.05149e-007
1.05142e-007
1.05126e-007
1.05119e-007
1.05102e-007
1.0509e-007
1.05074e-007
1.05058e-007
1.05036e-007
1.05018e-007
1.04994e-007
1.04978e-007
1.05013e-007
1.05019e-007
1.04819e-007
1.04804e-007
1.05148e-007
1.04622e-007
1.043e-007
1.08369e-007
8.33924e-008
9.0594e-008
7.87958e-007
0.000100655
0.00670172
0.0734184
7.06161e-008
7.0629e-008
7.06573e-008
7.06728e-008
7.06676e-008
7.0673e-008
7.07181e-008
7.07638e-008
7.07629e-008
7.07329e-008
7.07218e-008
7.07574e-008
7.08312e-008
7.08624e-008
7.08452e-008
7.0778e-008
7.07699e-008
7.07994e-008
7.08529e-008
7.08751e-008
7.08633e-008
7.08676e-008
7.0889e-008
7.09409e-008
7.0978e-008
7.10006e-008
7.10192e-008
7.1021e-008
7.10065e-008
7.10045e-008
7.10111e-008
7.10619e-008
7.11034e-008
7.1135e-008
7.1158e-008
7.11726e-008
7.11881e-008
7.12035e-008
7.12194e-008
7.12359e-008
7.12533e-008
7.12722e-008
7.12906e-008
7.13064e-008
7.13213e-008
7.13398e-008
7.13583e-008
7.13694e-008
7.13775e-008
7.13924e-008
7.14188e-008
7.14486e-008
7.14679e-008
7.14813e-008
7.14962e-008
7.15131e-008
7.15295e-008
7.15466e-008
7.15631e-008
7.15798e-008
7.15968e-008
7.16119e-008
7.16297e-008
7.1644e-008
7.1661e-008
7.16746e-008
7.16924e-008
7.17033e-008
7.17208e-008
7.17342e-008
7.17429e-008
7.17655e-008
7.17714e-008
7.179e-008
7.17962e-008
7.18146e-008
7.18189e-008
7.18265e-008
7.18436e-008
7.18433e-008
7.18562e-008
7.18625e-008
7.18751e-008
7.18977e-008
7.19166e-008
7.19146e-008
7.19038e-008
7.191e-008
7.192e-008
7.19267e-008
7.19427e-008
7.19587e-008
7.19763e-008
7.19846e-008
7.19859e-008
7.19854e-008
7.19874e-008
7.19975e-008
7.20025e-008
7.20127e-008
7.20144e-008
7.20194e-008
7.20199e-008
7.20217e-008
7.20229e-008
7.20218e-008
7.2024e-008
7.20185e-008
7.20197e-008
7.20096e-008
7.20082e-008
7.19943e-008
7.19907e-008
7.19727e-008
7.19707e-008
7.19554e-008
7.19509e-008
7.19348e-008
7.19274e-008
7.19139e-008
7.19015e-008
7.18812e-008
7.1867e-008
7.18415e-008
7.17927e-008
7.15677e-008
7.15118e-008
7.196e-008
7.16745e-008
7.10407e-008
7.19561e-008
7.33757e-008
6.1288e-008
1.41776e-007
3.62873e-006
0.00025316
0.00935778
0.0858562
0.282757
5.78279e-008
5.78795e-008
5.79095e-008
5.7907e-008
5.79083e-008
5.79269e-008
5.79511e-008
5.7955e-008
5.79591e-008
5.79745e-008
5.80006e-008
5.80249e-008
5.80396e-008
5.80387e-008
5.80306e-008
5.80334e-008
5.80709e-008
5.80891e-008
5.81077e-008
5.81254e-008
5.81478e-008
5.81725e-008
5.81854e-008
5.81943e-008
5.82172e-008
5.82413e-008
5.82651e-008
5.82778e-008
5.82817e-008
5.82846e-008
5.82932e-008
5.83286e-008
5.83553e-008
5.83842e-008
5.84012e-008
5.84194e-008
5.84387e-008
5.8457e-008
5.84739e-008
5.84916e-008
5.85097e-008
5.85266e-008
5.85424e-008
5.85605e-008
5.85788e-008
5.85939e-008
5.8604e-008
5.862e-008
5.8646e-008
5.8674e-008
5.86891e-008
5.86933e-008
5.87e-008
5.87196e-008
5.87408e-008
5.87615e-008
5.87777e-008
5.87958e-008
5.88111e-008
5.88282e-008
5.88435e-008
5.88593e-008
5.8875e-008
5.88901e-008
5.89051e-008
5.89199e-008
5.89354e-008
5.89487e-008
5.89649e-008
5.89783e-008
5.89889e-008
5.90076e-008
5.90143e-008
5.90314e-008
5.90386e-008
5.90525e-008
5.90598e-008
5.90637e-008
5.90782e-008
5.90865e-008
5.9096e-008
5.91047e-008
5.91117e-008
5.91234e-008
5.91376e-008
5.91409e-008
5.91459e-008
5.91599e-008
5.91623e-008
5.91683e-008
5.91875e-008
5.92049e-008
5.92104e-008
5.92125e-008
5.92192e-008
5.92302e-008
5.92388e-008
5.92478e-008
5.92497e-008
5.92517e-008
5.92556e-008
5.92589e-008
5.92611e-008
5.92641e-008
5.9263e-008
5.92628e-008
5.92595e-008
5.92604e-008
5.92563e-008
5.92544e-008
5.92476e-008
5.92408e-008
5.92318e-008
5.92228e-008
5.92147e-008
5.92068e-008
5.91965e-008
5.91869e-008
5.91756e-008
5.91648e-008
5.91524e-008
5.91378e-008
5.91213e-008
5.91134e-008
5.91819e-008
5.94875e-008
5.94309e-008
5.84537e-008
5.91886e-008
5.96257e-008
5.89721e-008
5.58184e-008
1.88553e-007
1.08617e-005
0.000585925
0.0160492
0.114958
0.338146
0.596955
5.19764e-008
5.19695e-008
5.19871e-008
5.20141e-008
5.20236e-008
5.20283e-008
5.20513e-008
5.20838e-008
5.20916e-008
5.20838e-008
5.20866e-008
5.21112e-008
5.21589e-008
5.21823e-008
5.21721e-008
5.21504e-008
5.21583e-008
5.2213e-008
5.22867e-008
5.2307e-008
5.22808e-008
5.22612e-008
5.22855e-008
5.23515e-008
5.24092e-008
5.24162e-008
5.24153e-008
5.24041e-008