/*--------------------------------*- C++ -*----------------------------------*\
| =========                 |                                                 |
| \\      /  F ield         | OpenFOAM: The Open Source CFD Toolbox           |
|  \\    /   O peration     | Version:  5.x                                   |
|   \\  /    A nd           | Web:      www.OpenFOAM.org                      |
|    \\/     M anipulation  |                                                 |
\*---------------------------------------------------------------------------*/
/*   Windows 32 and 64 bit porting by blueCAPE: http://www.bluecape.com.pt   *\
|  Based on Windows porting (2.0.x v4) by Symscape: http://www.symscape.com   |
\*---------------------------------------------------------------------------*/
FoamFile
{
    version     2.0;
    format      ascii;
    class       volScalarField;
    location    "370";
    object      p;
}
// * * * * * * * * * * * * * * * * * * * * * * * * * * * * * * * * * * * * * //

dimensions      [0 2 -2 0 0 0 0];

internalField   nonuniform List<scalar> 
43900
(
0.337898
0.337548
0.337507
0.337379
0.337175
0.336949
0.336745
0.336416
0.336173
0.335848
0.335524
0.335192
0.334845
0.334483
0.334113
0.333733
0.333342
0.332943
0.332537
0.332121
0.331699
0.331271
0.330836
0.330395
0.329948
0.329497
0.329042
0.328581
0.328115
0.33591
0.343997
0.337855
0.341148
0.338634
0.339389
0.338474
0.338293
0.337842
0.33741
0.337008
0.336573
0.336141
0.335714
0.335283
0.334848
0.334409
0.333968
0.333522
0.333073
0.332622
0.332163
0.331702
0.331238
0.330768
0.330295
0.329817
0.329333
0.328848
0.329098
0.350899
0.339799
0.346056
0.340965
0.343543
0.341155
0.341492
0.340401
0.339987
0.339396
0.338831
0.338291
0.337757
0.337228
0.336703
0.336184
0.33567
0.335158
0.334648
0.334136
0.333626
0.333119
0.332607
0.332095
0.331581
0.331063
0.330546
0.330024
0.324292
0.351943
0.345219
0.345011
0.344655
0.34423
0.343139
0.343096
0.3423
0.341923
0.341354
0.340834
0.340308
0.339778
0.339247
0.338716
0.338183
0.33765
0.337116
0.33658
0.336046
0.335513
0.334974
0.334437
0.333903
0.333362
0.332822
0.332281
0.331736
0.326895
0.350735
0.345726
0.345114
0.345091
0.344661
0.344466
0.344233
0.343705
0.343398
0.342966
0.342543
0.342119
0.341678
0.341223
0.340757
0.340283
0.339801
0.339305
0.338804
0.338296
0.337777
0.337254
0.336724
0.336184
0.335639
0.335091
0.334535
0.333975
0.332026
0.350072
0.347047
0.346736
0.346661
0.34625
0.345975
0.345725
0.345506
0.345233
0.34486
0.344514
0.344141
0.343751
0.343347
0.342929
0.342494
0.342047
0.341588
0.341115
0.340626
0.340127
0.339613
0.339084
0.338548
0.338002
0.337439
0.336866
0.336283
0.338167
0.352138
0.350318
0.349781
0.349731
0.349585
0.34925
0.348793
0.348465
0.348229
0.347893
0.347527
0.347156
0.346761
0.346351
0.34593
0.345496
0.345043
0.344575
0.344098
0.343602
0.343093
0.342572
0.342039
0.341492
0.340926
0.340352
0.339773
0.339182
0.345111
0.356297
0.355159
0.354545
0.354363
0.35422
0.354002
0.353647
0.35318
0.352733
0.352392
0.352023
0.351608
0.351183
0.350741
0.350284
0.349812
0.349325
0.348821
0.348296
0.34776
0.347213
0.346646
0.346063
0.345464
0.344857
0.344233
0.343587
0.342929
0.35305
0.361993
0.361299
0.360664
0.360381
0.360168
0.359916
0.359606
0.359212
0.358692
0.358172
0.357752
0.357312
0.356828
0.356328
0.355815
0.355286
0.354731
0.354159
0.353568
0.352959
0.352334
0.351694
0.351033
0.350357
0.349662
0.348951
0.348227
0.347491
0.362143
0.369075
0.368669
0.368024
0.36766
0.367378
0.367067
0.366711
0.36631
0.36584
0.365261
0.364639
0.364106
0.363572
0.363003
0.362415
0.361813
0.36119
0.360537
0.359862
0.359172
0.358458
0.357722
0.356972
0.356194
0.355408
0.354607
0.353776
0.352927
0.371612
0.377553
0.37726
0.37659
0.376161
0.375814
0.375442
0.375024
0.374562
0.374052
0.373475
0.372802
0.372064
0.371405
0.370749
0.370072
0.369376
0.368653
0.367902
0.367139
0.366347
0.365526
0.364687
0.363815
0.362936
0.362027
0.361093
0.36016
0.359196
0.381686
0.387122
0.386881
0.386176
0.385689
0.385286
0.384855
0.384376
0.383847
0.383267
0.382629
0.381923
0.38113
0.380269
0.379454
0.378654
0.377849
0.377016
0.376153
0.375259
0.374345
0.373408
0.372435
0.371451
0.370419
0.369364
0.368293
0.367182
0.366068
0.392915
0.397659
0.397448
0.396723
0.396184
0.395726
0.39524
0.394703
0.394112
0.393464
0.392754
0.391977
0.391122
0.390175
0.389158
0.388174
0.387213
0.386248
0.38525
0.384213
0.383144
0.382053
0.380924
0.379765
0.378589
0.377385
0.376145
0.374891
0.37359
0.404888
0.409116
0.408909
0.408157
0.407568
0.407053
0.40651
0.405912
0.405256
0.404536
0.403748
0.402885
0.401944
0.400914
0.399783
0.398584
0.39741
0.396264
0.395091
0.393883
0.392654
0.391393
0.3901
0.38876
0.387382
0.386007
0.384592
0.383122
0.381657
0.417528
0.421392
0.421172
0.420387
0.419746
0.419174
0.418571
0.417909
0.417183
0.416388
0.415516
0.414562
0.413522
0.412391
0.41116
0.409818
0.408411
0.407028
0.405678
0.404284
0.402856
0.401411
0.39992
0.398394
0.396824
0.395211
0.393583
0.391911
0.390195
0.430777
0.434392
0.434151
0.433329
0.432637
0.432009
0.431346
0.430619
0.429822
0.42895
0.427993
0.426946
0.425803
0.424561
0.423217
0.421762
0.420191
0.41855
0.416928
0.415325
0.41367
0.411977
0.410264
0.40849
0.40668
0.404838
0.402935
0.401015
0.399068
0.444535
0.447995
0.447729
0.446867
0.446124
0.445439
0.444716
0.443923
0.443054
0.4421
0.441054
0.439908
0.438656
0.437293
0.435816
0.434223
0.432502
0.430655
0.428739
0.426824
0.424915
0.422954
0.420956
0.418929
0.416841
0.414725
0.412574
0.410393
0.40818
0.458703
0.462084
0.461792
0.460886
0.460092
0.459353
0.45857
0.45771
0.456767
0.455733
0.454598
0.453352
0.451989
0.450505
0.448894
0.447155
0.445283
0.443269
0.441123
0.4389
0.436685
0.434477
0.432204
0.429904
0.427575
0.425178
0.422732
0.420249
0.417733
0.473193
0.476554
0.476238
0.475287
0.474445
0.473654
0.472812
0.471889
0.470874
0.46976
0.468535
0.467191
0.465721
0.464118
0.462377
0.460496
0.458473
0.456303
0.453981
0.451518
0.448982
0.446444
0.443886
0.441258
0.438601
0.435883
0.433091
0.430276
0.427394
0.487877
0.491268
0.49093
0.489933
0.489042
0.488199
0.487298
0.486306
0.485216
0.484018
0.482701
0.481255
0.479669
0.477939
0.476057
0.474021
0.471828
0.469475
0.466959
0.464272
0.461433
0.45851
0.455567
0.452587
0.449521
0.446436
0.443296
0.440085
0.436892
0.502642
0.506111
0.505753
0.504709
0.503768
0.502873
0.501916
0.50086
0.499695
0.498411
0.496997
0.495441
0.493734
0.49187
0.48984
0.487641
0.485268
0.482719
0.479993
0.477084
0.473986
0.470724
0.467379
0.463997
0.460573
0.457103
0.453598
0.450036
0.446385
0.517393
0.520978
0.520604
0.519513
0.518525
0.517579
0.516563
0.515439
0.514196
0.512825
0.511315
0.509653
0.507827
0.505829
0.503653
0.501293
0.498745
0.496005
0.493074
0.489948
0.486624
0.483099
0.479409
0.475606
0.471759
0.46785
0.463871
0.459831
0.455715
0.532019
0.535757
0.535369
0.53423
0.533194
0.532199
0.531125
0.529935
0.528617
0.52716
0.525548
0.523771
0.521819
0.519682
0.517352
0.514824
0.512092
0.509154
0.506006
0.50265
0.499083
0.495303
0.491305
0.487117
0.482814
0.478429
0.473985
0.469463
0.464896
0.546437
0.55036
0.549961
0.548774
0.547693
0.546647
0.545515
0.544254
0.542854
0.541301
0.539584
0.53769
0.535608
0.533325
0.530834
0.528129
0.525204
0.522055
0.51868
0.515079
0.511252
0.5072
0.502921
0.498405
0.493691
0.48885
0.483915
0.478906
0.473833
0.560557
0.564694
0.564285
0.563049
0.561921
0.560825
0.559631
0.558299
0.556816
0.55517
0.553345
0.551328
0.549105
0.546667
0.544005
0.541112
0.537982
0.534612
0.530999
0.527141
0.52304
0.518698
0.514119
0.5093
0.504231
0.498954
0.493511
0.487956
0.482317
0.574314
0.578692
0.578275
0.57699
0.575816
0.574669
0.573414
0.572007
0.570437
0.568689
0.566745
0.564593
0.56222
0.559615
0.55677
0.553676
0.550326
0.546718
0.542848
0.538714
0.534318
0.529661
0.524749
0.519587
0.514174
0.508501
0.502591
0.496504
0.490272
0.587645
0.592286
0.591862
0.590529
0.589308
0.58811
0.586791
0.585306
0.583643
0.581785
0.579716
0.577423
0.574892
0.57211
0.569067
0.565755
0.562167
0.5583
0.55415
0.549716
0.545
0.540003
0.53473
0.529189
0.523386
0.517324
0.510997
0.504433
0.497652
0.600495
0.605422
0.604992
0.603609
0.602342
0.601091
0.599705
0.598138
0.596377
0.594405
0.592207
0.589764
0.587062
0.584088
0.580831
0.577283
0.573437
0.569289
0.564835
0.560075
0.55501
0.549643
0.543979
0.538025
0.531792
0.525288
0.51852
0.511488
0.504233
0.612824
0.618055
0.617618
0.616186
0.614874
0.613571
0.612117
0.610466
0.608604
0.606513
0.604174
0.601569
0.598682
0.595501
0.592015
0.588213
0.584087
0.579633
0.574848
0.569731
0.564284
0.55851
0.552416
0.54601
0.539303
0.532307
0.525034
0.51749
0.509717
0.624595
0.630145
0.629701
0.628222
0.626866
0.625511
0.623989
0.622252
0.620284
0.618068
0.615582
0.612807
0.609726
0.606326
0.602594
0.598517
0.594089
0.589303
0.584157
0.57865
0.572783
0.566563
0.559997
0.553094
0.545868
0.538335
0.530513
0.522415
0.514048
0.635778
0.641659
0.641209
0.639683
0.638286
0.636879
0.635288
0.633463
0.631387
0.629041
0.626402
0.62345
0.620167
0.616536
0.612541
0.608171
0.603417
0.598273
0.592735
0.586802
0.580477
0.573767
0.56668
0.559229
0.551429
0.543301
0.534865
0.526146
0.517155
0.646352
0.652571
0.652113
0.650543
0.649109
0.647653
0.645994
0.644081
0.641896
0.639418
0.636623
0.633487
0.629991
0.626114
0.621841
0.61716
0.612058
0.606528
0.600567
0.594173
0.587348
0.5801
0.57244
0.564382
0.555945
0.547152
0.538029
0.528606
0.51891
0.656301
0.66286
0.662393
0.660784
0.659316
0.657814
0.65609
0.654091
0.651797
0.649187
0.646233
0.642908
0.63919
0.635058
0.630495
0.625485
0.620014
0.614073
0.607656
0.600762
0.593394
0.585559
0.577269
0.568542
0.559399
0.549868
0.53998
0.529771
0.519278
0.665615
0.672512
0.672033
0.67039
0.668894
0.667351
0.665564
0.66348
0.66108
0.658338
0.655222
0.651706
0.647762
0.643369
0.638505
0.633151
0.62729
0.620912
0.614009
0.606578
0.598622
0.590148
0.58117
0.571708
0.561787
0.551439
0.540703
0.529619
0.518238
0.674288
0.681517
0.681025
0.679353
0.677836
0.676255
0.674409
0.672245
0.66974
0.666866
0.66359
0.65988
0.655708
0.651048
0.645873
0.640161
0.633892
0.627053
0.619635
0.61163
0.603042
0.593877
0.58415
0.573884
0.563108
0.551859
0.540183
0.528131
0.515762
0.682322
0.689873
0.689365
0.687672
0.68614
0.684528
0.682628
0.680387
0.677781
0.674779
0.671344
0.667442
0.66304
0.658106
0.652611
0.646528
0.639836
0.632515
0.624552
0.615938
0.606672
0.596762
0.586222
0.575077
0.563362
0.55112
0.538406
0.525281
0.511817
0.689719
0.697585
0.697057
0.69535
0.693811
0.692173
0.690224
0.687912
0.68521
0.682083
0.678493
0.6744
0.669767
0.664556
0.658735
0.652274
0.645144
0.63732
0.628783
0.619523
0.609534
0.598822
0.587401
0.575299
0.562555
0.549219
0.535357
0.521045
0.506368
0.696485
0.704663
0.704112
0.702399
0.700861
0.699202
0.697209
0.69483
0.692036
0.688789
0.685045
0.680763
0.675897
0.67041
0.664261
0.657415
0.649834
0.641488
0.632352
0.62241
0.611652
0.60008
0.587707
0.574561
0.560688
0.546146
0.531015
0.515386
0.499365
0.702627
0.711126
0.710547
0.708834
0.707304
0.70563
0.703597
0.701156
0.698274
0.694911
0.691017
0.686547
0.681454
0.675691
0.669212
0.661972
0.653929
0.645045
0.635287
0.62463
0.613057
0.600564
0.587161
0.572879
0.557766
0.541892
0.525351
0.508258
0.490744
0.708151
0.716998
0.716383
0.714676
0.713161
0.711476
0.709407
0.706908
0.703943
0.700468
0.69643
0.691778
0.68646
0.680423
0.673612
0.665976
0.657466
0.648032
0.637631
0.626227
0.613793
0.600316
0.585803
0.570281
0.553802
0.53645
0.518336
0.499604
0.480422
0.713064
0.722308
0.721644
0.719947
0.718451
0.716759
0.714658
0.712105
0.709062
0.705479
0.701301
0.696472
0.690934
0.684628
0.677491
0.669465
0.660488
0.650498
0.639439
0.627261
0.613923
0.599402
0.583692
0.566816
0.548831
0.52983
0.50995
0.48937
0.468306
0.717374
0.727086
0.726356
0.724668
0.723196
0.721498
0.719369
0.716765
0.713648
0.709963
0.705651
0.700653
0.694904
0.688339
0.680889
0.672483
0.663046
0.652504
0.640784
0.627817
0.613544
0.597921
0.58093
0.562581
0.542931
0.522085
0.500207
0.477524
0.454314
0.721096
0.731363
0.730539
0.72886
0.727414
0.725712
0.723556
0.720907
0.717722
0.713943
0.709508
0.704352
0.698409
0.691605
0.683861
0.675096
0.665222
0.654149
0.641781
0.628025
0.612797
0.596029
0.577678
0.557736
0.53625
0.513334
0.489183
0.464083
0.438398
0.724253
0.735164
0.734211
0.732541
0.731122
0.729419
0.727241
0.724552
0.721307
0.717446
0.712904
0.707613
0.7015
0.694487
0.686486
0.677402
0.667133
0.655568
0.642585
0.628063
0.611886
0.59395
0.574177
0.552529
0.529031
0.503795
0.477048
0.449146
0.420572
0.726887
0.73851
0.737386
0.735727
0.734341
0.732639
0.730445
0.727728
0.724439
0.720515
0.715891
0.710496
0.704255
0.69708
0.688874
0.679531
0.668932
0.656939
0.643403
0.628169
0.61108
0.591987
0.570761
0.547313
0.521632
0.493807
0.464092
0.432922
0.40093
0.729053
0.741414
0.740079
0.738441
0.737094
0.7354
0.733204
0.730476
0.727167
0.723212
0.718545
0.713095
0.706779
0.699505
0.691169
0.681651
0.670811
0.658485
0.644492
0.628639
0.610719
0.590522
0.567851
0.542545
0.514528
0.483843
0.450749
0.415749
0.379668
0.730822
0.743888
0.742309
0.740714
0.739417
0.737745
0.735567
0.732856
0.729562
0.72562
0.720963
0.715518
0.709201
0.701915
0.693546
0.683961
0.672996
0.660463
0.646148
0.629809
0.611184
0.589987
0.565936
0.538767
0.508298
0.474484
0.43758
0.398108
0.357102
0.732274
0.745953
0.74411
0.74259
0.741359
0.739729
0.737598
0.734942
0.731709
0.727833
0.723251
0.717891
0.711665
0.704473
0.696188
0.686663
0.675714
0.663125
0.648647
0.631991
0.612832
0.590799
0.565502
0.536544
0.503587
0.466426
0.425237
0.380523
0.33365
0.733483
0.747641
0.745529
0.744128
0.74298
0.741418
0.739369
0.73681
0.733688
0.729943
0.725513
0.720326
0.714292
0.707302
0.699222
0.689887
0.679097
0.666611
0.652147
0.635373
0.615893
0.59325
0.566931
0.536364
0.501015
0.460388
0.414501
0.363595
0.30971
0.734512
0.748998
0.746624
0.745388
0.744341
0.742874
0.740942
0.738523
0.735564
0.732011
0.727802
0.722865
0.717105
0.710406
0.702626
0.693592
0.683089
0.670857
0.656587
0.639904
0.620352
0.597383
0.570354
0.538486
0.501007
0.456979
0.406198
0.348087
0.28575
0.735404
0.750082
0.747458
0.74643
0.745496
0.744147
0.742361
0.740115
0.737358
0.734038
0.730092
0.725445
0.720001
0.71364
0.706218
0.697553
0.687426
0.675562
0.661633
0.64523
0.625848
0.602857
0.575493
0.542748
0.503602
0.45649
0.400944
0.334761
0.262405
0.736184
0.75095
0.748085
0.747302
0.746483
0.745266
0.743643
0.741585
0.739044
0.735964
0.732284
0.727926
0.722795
0.716771
0.709707
0.70142
0.691688
0.680234
0.666715
0.650706
0.631667
0.6089
0.581549
0.548384
0.508155
0.458503
0.398715
0.323904
0.240148
0.73687
0.751662
0.748562
0.748045
0.747333
0.746252
0.744791
0.742914
0.740573
0.737711
0.734265
0.730159
0.725296
0.719555
0.712792
0.704826
0.695434
0.684341
0.671202
0.655581
0.636919
0.61447
0.587315
0.554015
0.513177
0.461516
0.39817
0.314515
0.218203
0.737468
0.752269
0.748935
0.748691
0.74807
0.747117
0.745801
0.74408
0.741904
0.739216
0.735953
0.732034
0.727362
0.721821
0.715264
0.707514
0.698352
0.687503
0.674622
0.659266
0.640865
0.618631
0.591604
0.558136
0.516779
0.46324
0.396612
0.303744
0.193014
0.737906
0.752735
0.74917
0.749188
0.748632
0.747785
0.74658
0.744977
0.742919
0.740351
0.737205
0.7334
0.728839
0.723405
0.716954
0.709309
0.70025
0.689502
0.676717
0.661443
0.643096
0.620842
0.593687
0.559751
0.517569
0.461703
0.391234
0.287177
0.157166
0.737938
0.752822
0.749022
0.749262
0.748728
0.74794
0.746791
0.74524
0.743234
0.740714
0.737613
0.733849
0.729324
0.723919
0.717489
0.709854
0.700793
0.690025
0.677195
0.661832
0.643334
0.620812
0.593232
0.558468
0.515046
0.456173
0.381011
0.261345
0.105541
0.737678
0.752574
0.748551
0.748944
0.748389
0.747601
0.746434
0.744857
0.742818
0.740263
0.737126
0.733325
0.728761
0.723313
0.716833
0.709137
0.699996
0.689123
0.676148
0.660583
0.641799
0.618846
0.59064
0.554817
0.509922
0.447762
0.367999
0.229956
0.0417553
0.739682
0.754484
0.750427
0.750947
0.750465
0.749768
0.748685
0.747174
0.745174
0.742626
0.739464
0.735609
0.730967
0.725421
0.718826
0.711
0.701714
0.690675
0.677509
0.661711
0.642632
0.619275
0.590511
0.553805
0.507669
0.443136
0.360956
0.214687
0.00517662
0.7497
0.764785
0.76121
0.762068
0.762191
0.762226
0.76198
0.761335
0.760155
0.758324
0.755742
0.752323
0.747982
0.742621
0.736119
0.728321
0.719018
0.707939
0.694726
0.678892
0.659801
0.636487
0.607784
0.571348
0.52499
0.461739
0.380474
0.267463
0.188102
0.327562
0.326918
0.326268
0.325611
0.324947
0.324278
0.323602
0.32292
0.322232
0.32154
0.320842
0.320138
0.319427
0.318712
0.317992
0.317265
0.316533
0.315799
0.315062
0.314317
0.313565
0.312809
0.312063
0.311311
0.310555
0.309796
0.309031
0.308262
0.307494
0.306725
0.305956
0.305191
0.304423
0.303653
0.302886
0.302121
0.301357
0.300596
0.299835
0.299075
0.298317
0.29756
0.296806
0.296055
0.295307
0.294562
0.29382
0.293081
0.292347
0.291617
0.290891
0.290169
0.289452
0.288739
0.288032
0.287329
0.286632
0.285941
0.285255
0.284575
0.283902
0.283234
0.282574
0.28192
0.281272
0.280632
0.279999
0.279374
0.278756
0.278146
0.277543
0.276949
0.276363
0.275785
0.275216
0.274655
0.274103
0.273561
0.273026
0.272503
0.271991
0.271485
0.270988
0.270504
0.270028
0.26956
0.269105
0.26866
0.268224
0.267799
0.267381
0.266976
0.266582
0.266199
0.265825
0.265463
0.265112
0.264773
0.264445
0.264128
0.263822
0.263528
0.263244
0.262972
0.262711
0.26246
0.262221
0.261993
0.261775
0.261569
0.261375
0.261191
0.261018
0.260856
0.260705
0.260565
0.260434
0.260314
0.260203
0.260102
0.260009
0.259925
0.259849
0.259781
0.259722
0.259669
0.259625
0.259588
0.259557
0.259536
0.25952
0.259512
0.259513
0.259516
0.259541
0.259556
0.259618
0.259627
0.259783
0.32827
0.327597
0.326919
0.32623
0.325536
0.324835
0.324126
0.323413
0.322694
0.321968
0.321233
0.320496
0.319753
0.319006
0.318255
0.317502
0.316747
0.315983
0.315212
0.314446
0.313716
0.312982
0.312199
0.31141
0.310625
0.309845
0.309071
0.308319
0.307582
0.306827
0.306043
0.30525
0.304462
0.30368
0.302893
0.302106
0.301323
0.300541
0.29976
0.298982
0.298205
0.297431
0.296658
0.295888
0.295121
0.294356
0.293595
0.292838
0.292077
0.291314
0.290562
0.289819
0.289082
0.28835
0.287622
0.2869
0.286183
0.285471
0.284765
0.284066
0.283372
0.282685
0.282005
0.281331
0.280665
0.280006
0.279354
0.27871
0.278074
0.277445
0.276824
0.276212
0.275608
0.275013
0.274427
0.273849
0.273277
0.272712
0.272161
0.271621
0.271091
0.270567
0.270055
0.269551
0.269056
0.268574
0.268101
0.267638
0.267188
0.266747
0.26632
0.2659
0.265489
0.265088
0.264702
0.264337
0.263987
0.263648
0.263319
0.263
0.262692
0.262396
0.262111
0.261838
0.261577
0.261328
0.261091
0.260866
0.260653
0.260452
0.260264
0.260087
0.259921
0.259768
0.259625
0.259493
0.259372
0.25926
0.259158
0.259066
0.258984
0.258911
0.258847
0.258792
0.258746
0.258712
0.258681
0.258661
0.258644
0.258629
0.258625
0.258603
0.258619
0.258573
0.258622
0.258552
0.258604
0.258529
0.25849
0.329403
0.328686
0.327962
0.327232
0.326499
0.325758
0.325015
0.324268
0.323511
0.322751
0.321991
0.321228
0.320463
0.319696
0.31892
0.318138
0.317353
0.316582
0.315811
0.315017
0.314186
0.313355
0.312555
0.311788
0.311005
0.31019
0.309369
0.308531
0.30767
0.306837
0.306031
0.305219
0.304409
0.30359
0.302769
0.301958
0.301148
0.300337
0.299525
0.298715
0.297905
0.297096
0.296289
0.295484
0.294681
0.293879
0.293078
0.292279
0.291489
0.290705
0.28992
0.289134
0.28835
0.287573
0.286802
0.286038
0.28528
0.284528
0.283783
0.283044
0.282312
0.281587
0.28087
0.28016
0.279458
0.278763
0.278078
0.277401
0.276733
0.276074
0.275426
0.274787
0.274158
0.273539
0.272929
0.272327
0.27174
0.271162
0.270587
0.270017
0.269454
0.268908
0.268372
0.267841
0.267324
0.266819
0.266322
0.265833
0.265355
0.264893
0.264446
0.264013
0.263594
0.263192
0.262799
0.262413
0.262038
0.261676
0.261331
0.261001
0.260686
0.260385
0.260097
0.259823
0.259563
0.259317
0.259083
0.258864
0.258657
0.258463
0.258282
0.258114
0.257958
0.257816
0.257685
0.257567
0.257461
0.257367
0.257286
0.257217
0.257161
0.257117
0.257086
0.257066
0.257058
0.257059
0.257073
0.257097
0.257141
0.257186
0.257257
0.257307
0.257386
0.257468
0.257494
0.257668
0.257539
0.257942
0.257572
0.331096
0.330354
0.329604
0.328854
0.328097
0.327333
0.326557
0.325776
0.325005
0.324222
0.323426
0.322615
0.321794
0.320966
0.320153
0.319346
0.318507
0.317648
0.31679
0.315933
0.315077
0.314217
0.313348
0.312453
0.311568
0.310704
0.309836
0.308956
0.308075
0.30719
0.306302
0.305425
0.304542
0.303653
0.30277
0.301884
0.300998
0.300115
0.299237
0.298363
0.297491
0.296621
0.295753
0.294887
0.294022
0.293159
0.292296
0.291434
0.290573
0.289714
0.288858
0.288008
0.287177
0.286364
0.285553
0.284744
0.28394
0.283142
0.282349
0.281562
0.280781
0.280009
0.279243
0.278486
0.277736
0.276996
0.276264
0.275542
0.274828
0.274124
0.27343
0.272744
0.272065
0.271395
0.270727
0.270063
0.269403
0.268754
0.268121
0.267504
0.266907
0.266322
0.26575
0.265203
0.264669
0.264151
0.26365
0.263165
0.262695
0.262237
0.261783
0.261343
0.260914
0.260489
0.26008
0.259678
0.259282
0.258904
0.258539
0.258196
0.25787
0.257561
0.257265
0.256984
0.256719
0.256468
0.256231
0.256007
0.255799
0.255603
0.255423
0.255256
0.255105
0.254966
0.254842
0.254733
0.254643
0.254571
0.254518
0.254483
0.254468
0.254472
0.254496
0.254541
0.254604
0.254689
0.254788
0.254906
0.255048
0.255194
0.255356
0.255654
0.255623
0.256303
0.25566
0.257303
0.255617
0.258587
0.255189
0.333305
0.332518
0.331728
0.330928
0.330112
0.329285
0.328459
0.327619
0.32675
0.32588
0.325007
0.324133
0.323296
0.32244
0.32152
0.320593
0.319685
0.318781
0.317869
0.316953
0.316021
0.315084
0.314152
0.313211
0.312264
0.311308
0.310351
0.309408
0.308475
0.307518
0.306543
0.305566
0.30459
0.303621
0.302659
0.301702
0.300746
0.299791
0.298835
0.297878
0.296922
0.295969
0.29502
0.294075
0.293135
0.292202
0.291276
0.290354
0.289429
0.28851
0.287599
0.286695
0.285779
0.284859
0.283957
0.283069
0.282191
0.281322
0.280461
0.279608
0.278764
0.277929
0.277102
0.276284
0.275474
0.274673
0.27388
0.273096
0.272321
0.271552
0.270793
0.270041
0.269304
0.268579
0.267872
0.267186
0.266514
0.265863
0.265224
0.264593
0.263968
0.263351
0.262746
0.262142
0.261552
0.260974
0.260408
0.259861
0.259322
0.258788
0.25828
0.257791
0.257317
0.256872
0.256438
0.256025
0.255634
0.255261
0.254904
0.254555
0.254214
0.253889
0.253577
0.25328
0.252998
0.25273
0.25248
0.252246
0.252027
0.251827
0.251642
0.251476
0.25133
0.251205
0.2511
0.251019
0.250959
0.250922
0.250907
0.250917
0.250947
0.251002
0.25108
0.251182
0.251309
0.251459
0.25165
0.251846
0.252082
0.252436
0.252477
0.253381
0.252707
0.255104
0.252549
0.258088
0.251447
0.262881
0.247296
0.33559
0.334784
0.333952
0.333099
0.33224
0.331374
0.330491
0.329593
0.328689
0.327778
0.326858
0.325927
0.324938
0.323952
0.322993
0.322028
0.321057
0.320058
0.319043
0.318035
0.317031
0.31602
0.31499
0.31395
0.312907
0.311866
0.310835
0.30981
0.308774
0.307729
0.30669
0.30565
0.304602
0.30356
0.302507
0.301442
0.30038
0.299324
0.298269
0.297217
0.29617
0.295126
0.294087
0.293052
0.292019
0.290986
0.289948
0.28891
0.287885
0.286872
0.285864
0.284865
0.283871
0.282893
0.281932
0.28098
0.28003
0.279085
0.278147
0.277219
0.2763
0.27539
0.274491
0.273601
0.272722
0.271853
0.270994
0.270145
0.269304
0.268475
0.267658
0.266849
0.266053
0.26527
0.264507
0.263766
0.263042
0.26233
0.261616
0.260907
0.26022
0.259548
0.258889
0.25826
0.257647
0.257041
0.256451
0.25587
0.255304
0.254767
0.254235
0.253711
0.253206
0.252709
0.252225
0.25176
0.251316
0.250881
0.250458
0.25005
0.249668
0.249301
0.248955
0.248631
0.248321
0.24804
0.247773
0.247531
0.24731
0.247111
0.246933
0.24678
0.246646
0.246539
0.24645
0.246387
0.246342
0.246319
0.246319
0.24634
0.246388
0.24646
0.246564
0.246699
0.246867
0.247064
0.247317
0.247648
0.247806
0.248616
0.24824
0.250123
0.248408
0.252262
0.248254
0.254843
0.246385
0.26105
0.231165
0.33846
0.337599
0.336724
0.335841
0.334934
0.333992
0.333037
0.332079
0.331098
0.330088
0.32907
0.328056
0.327035
0.325983
0.324911
0.32382
0.322721
0.321636
0.320558
0.319443
0.318309
0.317169
0.316034
0.314923
0.313807
0.312652
0.311484
0.310305
0.309118
0.307941
0.306768
0.30559
0.304414
0.303236
0.302072
0.300929
0.29979
0.298642
0.29749
0.29634
0.295191
0.294043
0.292895
0.29175
0.290607
0.289466
0.288335
0.287216
0.286101
0.284995
0.283895
0.282802
0.281727
0.280654
0.279584
0.278527
0.277484
0.276455
0.275437
0.274429
0.27343
0.27244
0.271461
0.27049
0.26953
0.268579
0.267644
0.266721
0.265814
0.264919
0.264033
0.263164
0.26231
0.26147
0.260636
0.259809
0.258995
0.258193
0.257415
0.256665
0.255928
0.255212
0.254512
0.253813
0.253133
0.25248
0.251836
0.25121
0.250618
0.250035
0.249467
0.248926
0.248401
0.247884
0.247394
0.246922
0.24645
0.245998
0.245553
0.245133
0.244727
0.24434
0.243968
0.243608
0.243276
0.242948
0.242649
0.242367
0.242109
0.241869
0.241655
0.241457
0.241288
0.241134
0.241009
0.240902
0.240824
0.24077
0.240739
0.240742
0.240766
0.240827
0.240914
0.241032
0.24119
0.241365
0.241522
0.241896
0.241819
0.24263
0.242054
0.243482
0.24237
0.244183
0.243115
0.244324
0.243223
0.250899
0.21832
0.342142
0.341231
0.340277
0.339287
0.33828
0.337262
0.336223
0.335142
0.334054
0.332969
0.331849
0.330677
0.329496
0.328322
0.327144
0.325975
0.324773
0.323535
0.322284
0.321032
0.31981
0.318589
0.317319
0.316017
0.314712
0.313434
0.312164
0.310889
0.309608
0.308328
0.307034
0.305743
0.304461
0.303159
0.30186
0.300574
0.299275
0.297977
0.296693
0.295419
0.294149
0.292883
0.291623
0.290368
0.289126
0.287885
0.286638
0.285407
0.28419
0.282985
0.281787
0.280593
0.279402
0.278214
0.277022
0.275846
0.274702
0.273572
0.272452
0.271343
0.27024
0.269148
0.268064
0.266989
0.265925
0.264868
0.263829
0.262808
0.261809
0.260831
0.259874
0.258939
0.258024
0.257132
0.256252
0.255389
0.254548
0.253713
0.252885
0.252079
0.251301
0.250518
0.249739
0.248983
0.248246
0.247521
0.246804
0.24611
0.245425
0.244761
0.244115
0.24349
0.242895
0.242321
0.241757
0.241199
0.240678
0.240177
0.239709
0.239261
0.238835
0.238428
0.238039
0.237676
0.237326
0.237008
0.236694
0.236407
0.236137
0.235886
0.235651
0.235441
0.235246
0.235076
0.234925
0.2348
0.234697
0.234617
0.234568
0.234529
0.23452
0.234517
0.234542
0.234566
0.234604
0.234689
0.234631
0.234887
0.234669
0.235121
0.234787
0.235343
0.235089
0.235356
0.235963
0.235562
0.235691
0.242659
0.212666
0.346597
0.345529
0.344449
0.343362
0.342235
0.341067
0.339899
0.338729
0.337508
0.336253
0.335004
0.333758
0.332496
0.33119
0.329856
0.328507
0.327138
0.325808
0.324487
0.323099
0.321662
0.320228
0.318814
0.317416
0.31601
0.314566
0.31314
0.311747
0.310317
0.308849
0.307392
0.305932
0.304467
0.303031
0.301609
0.300168
0.298721
0.297285
0.295858
0.294432
0.29301
0.291599
0.290201
0.288808
0.287425
0.286049
0.284663
0.283281
0.281917
0.280554
0.279215
0.277893
0.276586
0.275299
0.274026
0.272768
0.271511
0.270258
0.269019
0.267796
0.266594
0.265407
0.264237
0.263086
0.261951
0.260836
0.259733
0.25864
0.257558
0.256485
0.255425
0.254379
0.25334
0.252318
0.251321
0.250339
0.249377
0.248452
0.247549
0.246656
0.245793
0.244973
0.244167
0.243375
0.24261
0.241871
0.241148
0.240436
0.239753
0.23908
0.238417
0.237763
0.237119
0.236489
0.235872
0.235284
0.234702
0.234153
0.233611
0.233081
0.232576
0.232086
0.231625
0.231181
0.230771
0.23037
0.230002
0.229656
0.229324
0.229023
0.228741
0.228483
0.228245
0.228029
0.227829
0.227661
0.227506
0.227368
0.22723
0.227129
0.227003
0.226927
0.226842
0.226778
0.226701
0.226703
0.226586
0.226695
0.226534
0.226751
0.226555
0.226838
0.226865
0.226605
0.227076
0.226127
0.224812
0.23182
0.205464
0.351914
0.350747
0.349514
0.348233
0.346965
0.345685
0.344339
0.342955
0.341579
0.340201
0.338759
0.337285
0.335809
0.33432
0.33283
0.331332
0.329805
0.328228
0.326648
0.325083
0.323551
0.322
0.320401
0.318784
0.317168
0.315555
0.313913
0.312236
0.310596
0.308988
0.307379
0.305789
0.304191
0.302574
0.300974
0.299402
0.297839
0.296279
0.294711
0.293134
0.291561
0.289991
0.288419
0.28685
0.285262
0.283692
0.282189
0.280706
0.279231
0.277783
0.276334
0.274896
0.273461
0.272039
0.27063
0.269218
0.267808
0.266415
0.265046
0.263687
0.26235
0.261036
0.25975
0.258489
0.257252
0.256042
0.254856
0.253694
0.252558
0.251447
0.250359
0.249296
0.248252
0.247221
0.246203
0.245207
0.244216
0.243227
0.24225
0.241283
0.240323
0.239377
0.238454
0.237546
0.23665
0.235792
0.234958
0.234151
0.233363
0.232595
0.231872
0.231172
0.230489
0.229835
0.229211
0.228603
0.228022
0.227452
0.226884
0.226359
0.225845
0.22535
0.224869
0.224407
0.223956
0.223525
0.223116
0.222712
0.222348
0.221993
0.221658
0.221341
0.221045
0.22076
0.220502
0.220246
0.220005
0.219781
0.219572
0.219367
0.2192
0.219013
0.21886
0.218714
0.218563
0.218486
0.218306
0.218326
0.218109
0.218216
0.218036
0.218029
0.218298
0.217985
0.218026
0.21728
0.215866
0.222055
0.199095
0.358024
0.356641
0.355243
0.353828
0.352333
0.350804
0.349288
0.34774
0.346132
0.344504
0.34288
0.341244
0.339584
0.337883
0.336174
0.334455
0.33272
0.330981
0.329217
0.327437
0.325624
0.323808
0.322012
0.320222
0.318419
0.316609
0.314802
0.313011
0.311199
0.309363
0.30759
0.305846
0.304035
0.30222
0.300404
0.298578
0.296767
0.294971
0.293185
0.291418
0.28967
0.287935
0.286214
0.284513
0.282844
0.28121
0.279575
0.277913
0.27628
0.274657
0.27304
0.271447
0.269866
0.26831
0.26677
0.265253
0.263773
0.262322
0.260881
0.259459
0.258057
0.256663
0.255282
0.253917
0.25257
0.251235
0.249917
0.248618
0.247334
0.246074
0.244827
0.243598
0.242397
0.241227
0.240082
0.238959
0.237882
0.236852
0.235839
0.234862
0.23392
0.233001
0.232089
0.23119
0.230313
0.229443
0.228581
0.227727
0.2269
0.226102
0.225304
0.224532
0.223782
0.223053
0.222335
0.221647
0.220986
0.220326
0.219718
0.219122
0.218551
0.218003
0.217478
0.216975
0.216499
0.216033
0.215582
0.215161
0.214748
0.214346
0.213967
0.213601
0.21325
0.212915
0.212591
0.212277
0.211982
0.211696
0.211431
0.211184
0.210942
0.21074
0.210518
0.210382
0.210159
0.21009
0.209875
0.209868
0.20969
0.209697
0.209624
0.209483
0.209607
0.209018
0.20863
0.208012
0.206856
0.212222
0.192073
0.364744
0.363152
0.361498
0.359836
0.358157
0.356442
0.354678
0.352896
0.351116
0.3493