/*--------------------------------*- C++ -*----------------------------------*\
| =========                 |                                                 |
| \\      /  F ield         | OpenFOAM: The Open Source CFD Toolbox           |
|  \\    /   O peration     | Version:  5.x                                   |
|   \\  /    A nd           | Web:      www.OpenFOAM.org                      |
|    \\/     M anipulation  |                                                 |
\*---------------------------------------------------------------------------*/
/*   Windows 32 and 64 bit porting by blueCAPE: http://www.bluecape.com.pt   *\
|  Based on Windows porting (2.0.x v4) by Symscape: http://www.symscape.com   |
\*---------------------------------------------------------------------------*/
FoamFile
{
    version     2.0;
    format      ascii;
    class       surfaceScalarField;
    location    "370";
    object      phi;
}
// * * * * * * * * * * * * * * * * * * * * * * * * * * * * * * * * * * * * * //

dimensions      [0 3 -1 0 0 0 0];

internalField   nonuniform List<scalar> 
87341
(
0.366436
39.5566
0.530915
39.7586
0.498351
39.9556
0.605163
39.8162
0.642575
39.8856
0.688165
39.8774
0.726463
39.8847
0.766004
39.8835
0.804301
39.8847
0.837735
39.8896
0.870754
39.89
0.89941
39.8944
0.927635
39.8948
0.956004
39.8947
0.980867
39.8982
1.00161
39.9023
1.02408
39.9006
1.05041
39.8967
1.07187
39.9016
1.08902
39.9059
1.10594
39.9061
1.12123
39.9078
1.13376
39.9105
1.14423
39.9126
1.15829
39.909
1.18127
39.9001
1.20635
39.898
1.22365
39.9057
39.9164
1.23031
0.970047
38.5866
1.36199
39.3666
1.47281
39.8448
1.60898
39.68
1.64751
39.8471
1.80504
39.7199
1.90413
39.7856
2.03281
39.7548
2.12669
39.7909
2.22836
39.7879
2.32178
39.7966
2.40982
39.8063
2.48909
39.8155
2.56356
39.8202
2.63394
39.8278
2.69809
39.8381
2.75846
39.8402
2.81161
39.8436
2.86196
39.8512
2.91407
39.8538
2.95909
39.8611
2.99785
39.869
3.03637
39.872
3.08111
39.8678
3.12801
39.8621
3.15841
39.8697
3.16937
39.887
3.17684
39.8983
39.89
3.20316
2.03603
36.5505
3.35335
38.0493
4.13375
39.0644
4.21852
39.5953
4.37694
39.6887
4.31256
39.7843
4.34541
39.7528
4.31952
39.7807
4.34212
39.7683
4.35889
39.7712
4.38188
39.7736
4.41323
39.775
4.45055
39.7782
4.48645
39.7843
4.52392
39.7903
4.57225
39.7898
4.61918
39.7933
4.65864
39.8041
4.70321
39.8067
4.74856
39.8084
4.79705
39.8126
4.85678
39.8093
4.91922
39.8095
4.96656
39.8205
4.99334
39.8353
5.01586
39.8471
5.06267
39.8402
5.13236
39.8286
39.824
5.19842
1.70175
34.8488
3.5078
36.2432
4.96424
37.6079
5.85761
38.7019
6.16423
39.3821
6.25723
39.6913
6.27838
39.7316
6.31686
39.7422
6.34112
39.744
6.36402
39.7483
6.38563
39.752
6.40379
39.7568
6.42395
39.7581
6.44705
39.7612
6.47282
39.7646
6.49701
39.7656
6.5293
39.761
6.57324
39.7602
6.61188
39.768
6.64761
39.7727
6.68972
39.7705
6.72812
39.7709
6.75801
39.7797
6.78951
39.789
6.84334
39.7815
6.91606
39.7744
6.98264
39.7736
7.02887
39.7823
39.7962
7.05668
1.09421
33.7546
2.46662
34.8708
4.04527
36.0293
5.51605
37.2311
6.59318
38.3049
7.1872
39.0973
7.4005
39.5184
7.44857
39.6941
7.49463
39.698
7.54251
39.7004
7.58933
39.7052
7.64296
39.7032
7.69816
39.7029
7.74373
39.7156
7.79347
39.7148
7.84757
39.7115
7.88782
39.7207
7.92575
39.7222
7.97545
39.7183
8.031
39.7172
8.07666
39.7248
8.11381
39.7337
8.16366
39.7298
8.22775
39.7249
8.28678
39.7224
8.33803
39.7232
8.37908
39.7326
8.42305
39.7384
39.742
8.4772
0.859008
32.8956
1.87737
33.8525
3.05265
34.854
4.38946
35.8943
5.75132
36.9431
6.89604
37.9525
7.63121
38.7832
7.99217
39.3332
8.12798
39.5621
8.21469
39.6137
8.30638
39.6135
8.39427
39.6153
8.47821
39.6189
8.56977
39.6241
8.65368
39.6309
8.73945
39.6257
8.83157
39.6286
8.91519
39.6386
8.9936
39.6399
9.06904
39.6417
9.15628
39.6376
9.25765
39.6323
9.35504
39.6324
9.4412
39.6387
9.51777
39.6459
9.59079
39.6502
9.66372
39.6596
9.75042
39.6517
39.6438
9.84861
0.757213
32.1383
1.61529
32.9944
2.57708
33.8922
3.64642
34.825
4.81285
35.7766
6.03713
36.7283
7.16126
37.659
8.00257
38.4919
8.47269
39.092
8.68064
39.4057
8.80088
39.4933
8.92393
39.4922
9.04669
39.4962
9.16594
39.5048
9.29039
39.5065
9.41143
39.5047
9.5294
39.5106
9.65477
39.5132
9.77606
39.5186
9.89244
39.5253
10.0043
39.5257
10.1133
39.5234
10.2218
39.5239
10.3279
39.5327
10.4349
39.5388
10.5436
39.5415
10.6539
39.5493
10.7595
39.5461
39.5519
10.8515
0.703853
31.4345
1.47744
32.2208
2.32414
33.0455
3.24635
33.9028
4.24158
34.7814
5.30098
35.6689
6.40939
36.5506
7.49492
37.4063
8.37933
38.2076
8.94564
38.8394
9.21698
39.2219
9.36282
39.3464
9.50715
39.3518
9.65192
39.36
9.78881
39.3696
9.92752
39.366
10.0759
39.3623
10.2163
39.3729
10.3626
39.3723
10.5144
39.3736
10.6537
39.3863
10.7829
39.3943
10.9069
39.3998
11.0391
39.4006
11.1744
39.4035
11.309
39.4069
11.4482
39.4101
11.585
39.4093
39.4118
11.725
0.675188
30.7593
1.40152
31.4945
2.1827
32.2643
3.02073
33.0647
3.91513
33.887
4.86242
34.7216
5.85517
35.5579
6.87762
36.3839
7.90026
37.185
8.79777
37.9419
9.43525
38.5844
9.77059
39.0111
9.9573
39.1651
10.1392
39.1781
10.3237
39.1851
10.4958
39.1939
10.6655
39.1926
10.8471
39.1913
11.0222
39.1972
11.1889
39.2069
11.3732
39.2021
11.5553
39.2121
11.7297
39.2254
11.8949
39.2354
12.0616
39.2368
12.2306
39.2379
12.3888
39.252
12.5323
39.2658
39.2818
12.6624
0.658741
30.1006
1.35973
30.7935
2.10312
31.521
2.89053
32.2773
3.72209
33.0555
4.59622
33.8475
5.50908
34.645
6.45366
35.4393
7.41831
36.2203
8.38419
36.976
9.27995
37.6887
9.96705
38.324
10.3645
38.7676
10.5906
38.9521
10.8035
38.9721
11.0129
38.9845
11.2211
38.9843
11.4214
38.991
11.6175
39.0011
11.8228
39.0016
12.0099
39.0149
12.2082
39.0138
12.414
39.0196
12.6212
39.0282
12.8018
39.0561
12.9696
39.0701
13.1555
39.066
13.3532
39.0682
39.0909
13.544
0.655303
29.4453
1.34519
30.1036
2.07005
30.7961
2.83063
31.5168
3.62686
32.2592
4.45767
33.0166
5.32077
33.7819
6.21234
34.5477
7.12635
35.3063
8.05343
36.0489
8.97731
36.7648
9.8634
37.4379
10.5762
38.0549
11.0181
38.5101
11.28
38.7102
11.5253
38.7392
11.7612
38.7484
12.0072
38.745
12.2447
38.7637
12.4619
38.7844
12.6872
38.7896
12.8997
38.8014
13.1041
38.8151
13.3129
38.8194
13.5365
38.8325
13.7548
38.8518
13.9408
38.8801
14.1079
38.901
38.899
14.2998
0.660442
28.7848
1.3495
29.4145
2.06892
30.0767
2.81897
30.7667
3.59939
31.4788
4.40914
32.2069
5.24643
32.9446
6.10851
33.6857
6.99139
34.4234
7.88921
35.1511
8.79289
35.8611
9.68664
36.5441
10.5538
37.1877
11.2841
37.7799
11.7593
38.235
12.0619
38.4366
12.3359
38.4744
12.5964
38.4845
12.8738
38.4862
13.1366
38.5216
13.3837
38.5425
13.6388
38.5463
13.8783
38.5756
14.1062
38.5915
14.3365
38.6022
14.5712
38.6171
14.8236
38.6277
15.0793
38.6454
38.6828
15.2954
0.666565
28.1182
1.35993
28.7212
2.0802
29.3564
2.82736
30.0195
3.60103
30.7051
4.40035
31.4076
5.22377
32.1212
6.06905
32.8404
6.93319
33.5593
7.81208
34.2722
8.70003
34.9732
9.58879
35.6554
10.4658
36.3107
11.3174
36.9283
12.0548
37.4976
12.544
37.9474
12.8706
38.1478
13.1689
38.1863
13.4466
38.2085
13.7523
38.2159
14.0428
38.252
14.3186
38.2705
14.6119
38.2823
14.9049
38.2985
15.1702
38.3369
15.4245
38.3627
15.6628
38.3894
15.9017
38.4065
38.4106
16.1739
0.676848
27.4414
1.37803
28.02
2.10385
28.6306
2.85421
29.2692
3.62836
29.931
4.42543
30.6105
5.24414
31.3025
6.08259
32.0019
6.93832
32.7036
7.8082
33.4023
8.68821
34.0932
9.57298
34.7706
10.4551
35.4286
11.3235
36.0599
12.1667
36.6544
12.9103
37.2038
13.4103
37.6478
13.7553
37.8413
14.0862
37.8775
14.3897
37.9124
14.7083
37.9335
15.0209
37.9579
15.3198
37.9833
15.613
38.0054
15.9125
38.0374
16.2101
38.0651
16.5055
38.094
16.7771
38.135
38.1681
17.0196
0.689821
26.7516
1.40223
27.3076
2.1374
27.8954
2.89533
28.5113
3.67543
29.1509
4.47651
29.8094
5.29735
30.4817
6.13644
31.1628
6.9917
31.8483
7.86058
32.5335
8.73994
33.2138
9.62583
33.8847
10.5131
34.5414
11.3947
35.1783
12.2602
35.7888
13.1002
36.3638
13.8482
36.8998
14.3499
37.3397
14.7058
37.5216
15.0627
37.5554
15.3887
37.6075
15.7142
37.6325
16.049
37.6485
16.3664
37.688
16.6683
37.7355
16.9558
37.7775
17.2355
37.8143
17.5351
37.8354
37.883
17.8202
0.703362
26.0482
1.42815
26.5828
2.17429
27.1493
2.94159
27.744
3.7297
28.3628
4.53759
29.0015
5.36373
29.6555
6.20666
30.3199
7.06461
30.9904
7.93541
31.6627
8.81642
32.3328
9.70448
32.9967
10.5956
33.6502
11.4846
34.2892
12.3646
34.9088
13.2254
35.503
14.0607
36.0645
14.8077
36.5927
15.3064
37.0229
15.6721
37.1897
16.0526
37.227
16.3902
37.2949
16.7189
37.3198
17.0571
37.3498
17.3954
37.3972
17.7313
37.4417
18.0439
37.5017
18.3565
37.5228
37.5632
18.6763
0.717549
25.3307
1.45569
25.8447
2.21426
26.3907
2.9929
26.9653
3.79111
27.5646
4.60822
28.1844
5.44292
28.8208
6.29354
29.4693
7.1584
30.1255
8.03552
30.7856
8.9226
31.4457
9.817
32.1023
10.7156
32.7517
11.6144
33.3904
12.5087
34.0145
13.3921
34.6197
14.2558
35.2008
15.0966
35.7519
15.8474
36.2721
16.3521
36.6851
16.7392
36.8399
17.1417
36.8924
17.4897
36.9718
17.8357
37.0038
18.1778
37.0551
18.5243
37.0952
18.8688
37.1572
19.1852
37.2064
37.2413
19.5071
0.731862
24.5988
1.48369
25.0928
2.25533
25.6191
3.04636
26.1743
3.85614
26.7548
4.68394
27.3566
5.52883
27.9759
6.38932
28.6088
7.26379
29.251
8.15049
29.8989
9.04734
30.5488
9.95201
31.1976
10.8619
31.8418
11.7739
32.4784
12.6844
33.104
13.5889
33.7152
14.4816
34.308
15.3553
34.8782
16.2062
35.4213
16.9551
35.9361
17.4602
36.3347
17.8545
36.4981
18.2511
36.5752
18.615
36.64
18.9788
36.6912
19.3252
36.7488
19.689
36.7933
20.0279
36.8675
36.9426
20.3267
0.744786
23.854
1.50916
24.3285
2.29287
24.8354
3.09548
25.3717
3.91634
25.9339
4.75461
26.5184
5.60931
27.1212
6.47919
27.7389
7.3626
28.3676
8.25789
29.0036
9.16325
29.6435
10.0766
30.2842
10.9955
30.9228
11.9175
31.5564
12.8394
32.1821
13.7576
32.797
14.6677
33.3979
15.5643
33.9816
16.4409
34.5447
17.2922
35.0848
18.028
35.599
18.5283
35.9979
18.9434
36.1601
19.3407
36.2426
19.7231
36.3088
20.1082
36.3637
20.4523
36.4492
20.8352
36.4846
36.558
21.2197
0.756581
23.0974
1.53244
23.5526
2.32729
24.0405
3.14069
24.5583
3.97198
25.1026
4.82031
25.67
5.68467
26.2569
6.56395
26.8596
7.45664
27.4749
8.36101
28.0992
9.27533
28.7292
10.1977
29.3619
11.126
29.9946
12.0578
30.6245
12.9907
31.2492
13.9215
31.8661
14.8469
32.4725
15.7627
33.0658
16.6642
33.6432
17.547
34.202
18.4044
34.7415
19.1414
35.2609
19.6536
35.6478
20.0836
35.8126
20.5022
35.8902
20.9121
35.9537
21.3112
36.0501
21.6276
36.1683
36.2315
21.9541
0.767163
22.3303
1.55334
22.7664
2.35828
23.2356
3.18151
23.7351
4.0224
24.2617
4.88013
24.8123
5.75365
25.3833
6.64188
25.9714
7.54353
26.5733
8.457
27.1857
9.38057
27.8056
10.3125
28.43
11.2508
29.0563
12.1934
29.6819
13.1381
30.3046
14.0823
30.9219
15.0232
31.5316
15.9577
32.1313
16.8822
32.7188
17.7927
33.2915
18.6863
33.8479
19.5572
34.3901
20.2915
34.9135
20.8004
35.3037
21.219
35.4716
21.5831
35.5896
21.9851
35.6481
22.4034
35.75
35.896
22.7389
0.775994
21.5543
1.57085
21.9716
2.38426
22.4222
3.21578
22.9035
4.0648
23.4127
4.93049
23.9466
5.81189
24.5019
6.70784
25.0755
7.61713
25.664
8.5383
26.2646
9.46969
26.8742
10.4096
27.4901
11.3562
28.1096
12.3076
28.7305
13.2617
29.3505
14.2162
29.9674
15.1686
30.5791
16.1163
31.1836
17.0562
31.7788
17.985
32.3628
18.8992
32.9337
19.7983
33.491
20.6725
34.0393
21.3973
34.5789
21.8999
34.969
22.3357
35.1539
22.7019
35.2819
23.0874
35.3645
35.4865
23.4969
0.783248
20.771
1.58515
21.1697
2.40543
21.6019
3.24364
22.0653
4.09919
22.5572
4.97128
23.0745
5.85895
23.6143
6.76106
24.1733
7.67637
24.7487
8.60353
25.3374
9.54098
25.9368
10.4871
26.544
11.4401
27.1567
12.3981
27.7725
13.3593
28.3893
14.3216
29.0051
15.2827
29.618
16.2403
30.226
17.1917
30.8274
18.1342
31.4203
19.0648
32.0031
19.9812
32.5745
20.8856
33.135
21.7706
33.6939
22.49
34.2496
22.9891
34.6548
23.4214
34.8495
23.786
34.9999
35.1089
24.1636
0.788685
19.9823
1.59588
20.3625
2.42129
20.7765
3.26446
21.2221
4.12483
21.6968
5.00162
22.1977
5.89391
22.722
6.80061
23.2666
7.72049
23.8288
8.65221
24.4057
9.59427
24.9947
10.545
25.5932
11.5028
26.1989
12.4657
26.8095
13.4321
27.423
14.3998
28.0374
15.3669
28.6509
16.3313
29.2617
17.2906
29.8681
18.2424
30.4685
19.1841
31.0614
20.1132
31.6455
21.0278
32.2203
21.9349
32.7868
22.8288
33.3556
23.5416
33.9421
24.0175
34.3736
24.4459
34.5715
34.728
24.8268
0.79274
19.1896
1.60379
19.5514
2.43288
19.9474
3.27959
20.3754
4.14334
20.8331
5.02339
21.3177
5.91881
21.8266
6.82852
22.3569
7.75126
22.9061
8.68571
23.4712
9.63046
24.0499
10.5839
24.6398
11.5444
25.2384
12.5102
25.8437
13.4795
26.4537
14.4503
27.0665
15.4208
27.6803
16.389
28.2935
17.3525
28.9045
18.3093
29.5117
19.257
30.1137
20.1931
30.7093
21.1158
31.2977
22.0239
31.8787
22.9281
32.4515
23.8314
33.0387
24.5509
33.6542
25.0183
34.1041
34.3242
25.4221
0.795343
18.3943
1.60881
18.7379
2.44013
19.1161
3.2889
19.5267
4.15456
19.9674
5.03637
20.4359
5.93343
20.9295
6.84467
21.4457
7.76887
21.9819
8.7047
22.5354
9.65072
23.1039
10.6054
23.6852
11.567
24.2768
12.5338
24.8769
13.5042
25.4834
14.4762
26.0945
15.4479
26.7086
16.4174
27.324
17.3827
27.9393
18.3416
28.5528
19.292
29.1633
20.2318
29.7695
21.1591
30.3704
22.0724
30.9654
22.9699
31.5539
23.8713
32.1373
24.7844
32.7411
25.5046
33.384
33.8608
25.9679
0.796647
17.5976
1.61122
17.9234
2.44345
18.2838
3.29296
18.6771
4.15921
19.1012
5.04149
19.5536
5.93891
20.0321
6.85044
20.5342
7.77487
21.0574
8.71089
21.5994
9.65705
22.1578
10.6118
22.7304
11.5734
23.3152
12.5402
23.9101
13.5103
24.5133
14.4819
25.1229
15.4531
25.7374
16.4221
26.3551
17.3868
26.9745
18.3453
27.5943
19.2956
28.2131
20.2356
28.8295
21.1635
29.4426
22.0775
30.0513
22.9764
30.6551
23.8595
31.2542
24.7507
31.8498
25.6622
32.4725
33.1499
26.3731
0.796827
16.8008
1.61135
17.1088
2.44335
17.4518
3.29247
17.828
4.15821
18.2354
5.03989
18.6719
5.93665
19.1353
6.84744
19.6234
7.77106
20.1338
8.70616
20.6643
9.65128
21.2127
10.6049
21.7768
11.5652
22.3548
12.5307
22.9447
13.4993
23.5446
14.4694
24.1529
15.4389
24.7679
16.4059
25.3881
17.3684
26.012
18.3245
26.6382
19.2722
27.2654
20.2094
27.8923
21.1344
28.5176
22.0453
29.1404
22.9406
29.7598
23.8194
30.3754
24.6817
30.9875
25.5582
31.5961
32.2586
26.4495
0.795829
16.005
1.60912
16.2956
2.43967
16.6213
3.28721
16.9805
4.15126
17.3714
5.03118
17.792
5.92614
18.2404
6.83509
18.7144
7.75687
19.212
8.69011
19.731
9.63335
20.2694
10.585
20.8252
11.5434
21.3964
12.5067
21.9814
13.4731
22.5782
14.4407
23.1853
15.4075
23.8011
16.3715
24.4241
17.3307
25.0528
18.2831
25.6858
19.2266
26.3219
20.1593
26.9596
21.0792
27.5977
21.9844
28.2351
22.8735
28.8707
23.7452
29.5037
24.5991
30.1336
25.4355
30.7596
31.3937
26.3004
0.793623
15.2113
1.60444
15.4847
2.43232
15.7934
3.27704
16.1358
4.1382
16.5102
5.01521
16.915
5.90726
17.3483
6.81336
17.8083
7.73236
18.293
8.66293
18.8005
9.60361
19.3287
10.5528
19.876
11.5087
20.4405
12.4695
21.0206
13.4332
21.6144
14.3979
22.2206
15.3615
22.8375
16.3219
23.4637
17.277
24.0977
18.2247
24.7381
19.1629
25.3837
20.0895
26.033
21.0025
26.6848
21.8998
27.3378
22.7797
27.9908
23.6407
28.6428
24.4815
29.2928
25.301
29.9401
30.5856
26.1091
0.790174
14.4212
1.59725
14.6777
2.42117
14.9695
3.26183
15.2951
4.11891
15.6531
4.99187
16.042
5.87999
16.4602
6.7823
16.906
7.69768
17.3776
8.62482
17.8733
9.56223
18.3913
10.5083
18.93
11.4612
19.4876
12.419
20.0627
13.3797
20.6537
14.3413
21.259
15.3015
21.8773
16.2582
22.507
17.2091
23.1468
18.1519
23.7953
19.0843
24.4512
20.0042
25.1132
20.9092
25.7797
21.7973
26.4497
22.6664
27.1217
23.5148
27.7945
24.3406
28.4669
25.1428
29.138
29.807
25.9214
0.785374
13.6358
1.58732
13.8757
2.40591
14.1509
3.24115
14.4599
4.09283
14.8014
4.96051
15.1743
5.84352
15.5772
6.74098
16.0086
7.65179
16.4668
8.57465
16.9505
9.50805
17.4579
10.4504
17.9877
11.3997
18.5382
12.3543
19.1082
13.3119
19.6961
14.2703
20.3006
15.2274
20.9202
16.1806
21.5538
17.1276
22.1998
18.0658
22.8571
18.9928
23.5242
19.9062
24.1998
20.8034
24.8825
21.6822
25.5709
22.5402
26.2636
23.3755
26.9593
24.1859
27.6564
24.9701
28.3538
29.0502
25.7269
0.779093
12.8567
1.57441
13.0804
2.38615
13.3392
3.21447
13.6316
4.05929
13.9566
4.92028
14.3133
5.79687
14.7006
6.68823
15.1172
7.59335
15.5617
8.51096
16.0328
9.43962
16.5293
10.3777
17.0496
11.3233
17.5926
12.2744
18.1571
13.229
18.7416
14.1845
19.345
15.1387
19.966
16.089
20.6035
17.0327
21.2561
17.9671
21.9227
18.8895
22.6018
19.7972
23.2921
20.6874
23.9923
21.5575
24.7008
22.4051
25.4161
23.2276
26.1367
24.0229
26.8611
24.7892
27.5875
28.3145
25.5249
0.771225
12.0855
1.5583
12.2933
2.36158
12.5359
3.18141
12.8117
4.01784
13.1202
4.87068
13.4605
5.73946
13.8318
6.62348
14.2332
7.52178
14.6634
8.43318
15.1214
9.35629
15.6062
10.2895
16.1164
11.2309
16.6512
12.1785
17.2095
13.13
17.7901
14.0829
18.392
15.0347
19.0142
15.9826
19.6556
16.9239
20.3149
17.8554
20.9911
18.7743
21.6829
19.6775
22.3889
20.5619
23.1079
21.4246
23.8381
22.2627
24.5781
23.0734
25.326
23.8543
26.0802
24.6032
26.8386
27.5995
25.3181
0.761672
11.3238
1.53882
11.5162
2.33197
11.7427
3.14166
12.002
3.96812
12.2937
4.81129
12.6173
5.67084
12.9723
6.54619
13.3578
7.43648
13.7731
8.34063
14.2173
9.25728
14.6895
10.1848
15.1889
11.1214
15.7146
12.065
16.2659
13.0132
16.8419
13.9636
17.4417
14.9134
18.0644
15.8598
18.7092
16.7996
19.3751
17.7295
20.0611
18.6463
20.7661
19.5466
21.4887
20.4268
22.2276
21.2836
22.9813
22.1137
23.748
22.9139
24.5258
23.6815
25.3126
24.4137
26.1064
26.9048
25.1084
0.750342
10.5735
1.51581
10.7507
2.29711
10.9614
3.09497
11.2042
3.90981
11.4789
4.74172
11.7854
5.59052
12.1235
6.45574
12.4926
7.33667
12.8922
8.2323
13.3217
9.14137
13.7804
10.0623
14.2679
10.9934
14.7836
11.9325
15.3268
12.8773
15.897
13.8253
16.4937
14.7736
17.1161
15.7191
17.7637
16.6584
18.4358
17.5881
19.1315
18.5044
19.8498
19.4035
20.5897
20.2814
21.3497
21.1342
22.1284
21.9582
22.924
22.7496
23.7343
23.5051
24.5571
24.2217
25.3898
26.2297
24.8968
0.737164
9.8363
1.48917
9.9987
2.25688
10.1937
3.04122
10.4199
3.84276
10.6773
4.66178
10.9664
5.49822
11.287
6.35179
11.639
7.22188
12.0221
8.10764
12.4359
9.0079
12.8802
9.92127
13.3546
10.846
13.8588
11.7802
14.3926
12.7214
14.9558
13.667
15.548
14.6141
16.169
15.5594
16.8184
16.4994
17.4958
17.4302
18.2007
18.3476
18.9323
19.2474
19.6898
20.1252
20.472
20.9762
21.2774
21.7962
22.104
22.5808
22.9498
23.3259
23.812
24.0281
24.6877
25.5735
24.6842
0.722092
9.11421
1.45886
9.26193
2.21123
9.44133
2.98033
9.65076
3.7669
9.89076
4.57134
10.162
5.39379
10.4646
6.2341
10.7987
7.09183
11.1644
7.96627
11.5615
8.85643
11.99
9.76103
12.45
10.6785
12.9413
11.6069
13.4642
12.544
14.0188
13.487
14.605
14.4331
15.2229
15.3788
15.8727
16.3205
16.5542
17.2539
17.2673
18.1745
18.0118
19.0774
18.7869
19.9575
19.5919
20.8095
20.4253
21.6281
21.2854
22.4082
22.1697
23.145
23.0753
23.8341
23.9986
24.9356
24.4721
0.7051
8.40911
1.42484
8.5422
2.16014
8.70603
2.91224
8.89865
3.68206
9.12094
4.47016
9.37385
5.27683
9.65793
6.1021
9.97348
6.9457
10.3208
7.80713
10.7
8.68556
11.1116
9.57987
11.5556
10.4886
12.0326
11.4101
12.5428
12.3421
13.0868
13.2821
13.665
14.2272
14.2778
15.1739
14.9259
16.1184
15.6097
17.0562
16.3296
17.9822
17.0858
18.8909
17.8782
19.7766
18.7062
20.6329
19.569
21.4537
20.4647
22.2325
21.3909
22.9635
22.3442
23.6416
23.3205
24.3149
24.2622
0.686199
7.72291
1.38712
7.84128
2.10353
7.98962
2.83678
8.1654
3.58793
8.3698
4.35769
8.6041
5.14652
8.8691
5.95462
9.16537
6.78196
9.49343
7.6282
9.8538
8.49274
10.247
9.3747
10.6737
10.2729
11.1344
11.1857
11.6299
12.1115
12.1611
13.0476
12.7288
13.9914
13.334
14.9395
13.9779
15.8877
14.6614
16.8315
15.3858
17.7654
16.1519
18.6833
16.9603
19.5784
17.8111
20.4434
18.7039
21.2708
19.6373
22.0527
20.6089
22.7819
21.615
23.4518
22.6507
23.7098
24.0568
0.665436
7.05747
1.34571
7.16101
2.04129
7.29403
2.75362
7.45307
3.48388
7.63953
4.23296
7.85503
5.00148
8.10057
5.78986
8.37698
6.59826
8.68503
7.42658
9.02548
8.27449
9.39912
9.14139
9.80679
10.0264
10.2494
10.9283
10.728
11.8457
11.2437
12.7763
11.7981
13.7177
12.3927
14.6666
13.029
15.619
13.709
16.5702
14.4346
17.5144
15.2077
18.4449
16.0298
19.354
16.902
20.2332
17.8248
21.0731
18.7974
21.8642
19.8178
22.5971
20.8821
23.2633
21.9845
23.1173
23.8558
0.642887
6.41458
1.30056
6.50333
1.97314
6.62145
2.66216
6.76405
3.36896
6.93274
4.09456
7.12942
4.8398
7.35533
5.6053
7.61149
6.39144
7.89889
7.19839
8.21853
8.02612
8.57139
8.87439
8.95852
9.74271
9.38108
10.6303
9.84039
11.536
10.338
12.4583
10.8758
13.395
11.456
14.3433
12.0807
15.2995
12.7528
16.2588
13.4753
17.2152
14.2512
18.1617
15.0833
19.0894
15.9743
19.9886
16.9257
20.848
17.938
21.6558
19.01
22.3999
20.1379
23.0691
21.3152
22.5325
23.654
0.618617
5.79597
1.25157
5.87038
1.89866
5.97436
2.56163
6.10108
3.24195
6.25242
3.94082
6.43055
4.65928
6.63688
5.39813
6.87264
6.15801
7.13901
6.93939
7.43715
7.74258
7.7682
8.56774
8.13336
9.41484
8.53398
10.2836
8.97161
11.1735
9.44811
12.0836
9.96574
13.0124
10.5272
13.9575
11.1356
14.9156
11.7947
15.8822
12.5087
16.8515
13.2819
17.8161
14.1188
18.7664
15.0239
19.6913
16.0008
20.5776
17.0518
21.4106
18.177
22.1749
19.3736
22.8555
20.6346
21.9484
23.4396
0.592638
5.20333
1.19848
5.26453
1.81733
5.35551
2.45119
5.46723
3.1017
5.6019
3.77024
5.762
4.45801
5.94911
5.16605
6.1646
5.89525
6.40981
6.64639
6.68601
7.42017
6.99442
8.21721
7.33633
9.03802
7.71317
9.88295
8.12667
10.7521
8.57895
11.6453
9.07257
12.5616
9.61084
13.4994
10.1978
14.456
10.8381
15.4276
11.5371
16.4086
12.3008
17.3917
13.1357
18.367
14.0486
19.3222
15.0456
20.2419
16.132
21.1085
17.3105
21.9024
18.5797
22.604
19.933
21.357
23.1953
0.564869
4.63846
1.14104
4.68837
1.72871
4.76784
2.33032
4.86562
2.94763
4.98459
3.58217
5.12746
4.23533
5.29595
4.90836
5.49157
5.60243
5.71574
6.31867
5.96977
7.0582
6.2549
7.82213
6.57239
8.61157
6.92374
9.42751
7.31074
10.2708
7.7357
11.1417
8.20158
12.0403
8.71226
12.9656
9.27251
13.916
9.88781
14.8883
10.5648
15.8779
11.3112
16.8779
12.1358
17.8783
13.0481
18.8661
14.0579
19.8242
15.1739
20.7316
16.4031
21.5642
17.7471
22.2962
19.201
20.7501
22.9031
0.535167
4.10329
1.07908
4.14446
1.63282
4.21409
2.19926
4.29918
2.78028
4.40357
3.37753
4.53022
3.99257
4.68091
4.62688
4.85725
5.28193
5.06068
5.95922
5.29249
6.66029
5.55382
7.3868
5.84587
8.1404
6.17014
8.92266
6.52848
9.73496
6.9234
10.5783
7.35825
11.4534
7.83717
12.3605
8.36543
13.2988
8.94945
14.2665
9.59708
15.2599
10.3179
16.2727
11.1229
17.2959
12.0249
18.316
13.0378
19.3147
14.1752
20.2682
15.4496
21.1473
16.868
21.9186
18.4297
20.1199
22.5489
0.503439
3.59985
1.01283
3.63507
1.53039
3.69653
2.05941
3.77017
2.60177
3.8612
3.15925
3.97275
3.73356
4.10659
4.32643
4.26439
4.93963
4.44749
5.57502
4.65709
6.2346
4.89424
6.92046
5.16002
7.63465
5.45594
8.37914
5.784
9.15582
6.14671
9.96659
6.54748
10.813
6.99074
11.6962
7.48221
12.6166
8.02913
13.5732
8.64042
14.5639
9.32722
15.5837
10.1031
16.6247
10.9839
17.6742
11.9883
18.7134
13.136
19.7158
14.4472
20.6473
15.9365
21.4652
17.6118
19.4592
22.1259
0.469821
3.13003
0.943111
3.16178
1.42313
3.21651
1.91343
3.27987
2.41583
3.3588
2.9322
3.45638
3.46442
3.57437
4.01443
3.71438
4.58429
3.87762
5.17622
4.06517
5.7925
4.27795
6.43546
4.51707
7.1075
4.78389
7.81122
5.08028
8.54911
5.40883
9.32356
5.77303
10.1368
6.1775
10.9908
6.62824
11.8869
7.13302
12.8256
7.70171
13.806
8.34676
14.8253
9.08381
15.8772
9.93197
16.9507
10.9148
18.0276
12.059
19.0796
13.3952
20.0677
14.9484
20.9387
16.7408
18.7615
21.6364
0.434809
2.69522
0.871384
2.7252
1.31357
2.77432
1.765
2.82844
2.22735
2.89645
2.70256
2.98117
3.19266
3.08427
3.69977
3.20728
4.22614
3.35125
4.77417
3.51714
5.3464
3.70572
5.94552
3.91794
6.57436
4.15506
7.23577
4.41886
7.93263
4.71197
8.66774
5.03792
9.44386
5.40138
10.2637
5.80842
11.1296
6.26712
12.0433
6.78796
13.0058
7.38433
14.016
8.07356
15.0704
8.87757
16.1603
9.825
17.2697
10.9496
18.3698
12.2951
19.4188
13.8995
20.3487
15.811
18.0195
21.0906
0.399261
2.29596
0.799561
2.3249
1.20471
2.36917
1.61823
2.41492
2.04158
2.4731
2.47678
2.54598
2.92591
2.63514
3.39122
2.74196
3.87503
2.86744
4.37999
3.01218
4.90889
3.17682
5.46461
3.36222
6.05014
3.56953
6.66849
3.80051
7.32277
4.05768
8.01617
4.34453
8.7519
4.66564
9.53327
5.02705
10.3635
5.43684
11.2458
5.90574
12.1825
6.44763
13.175
7.08102
14.2227
7.82992
15.3199
8.72778
16.4549
9.81458
17.5997
11.1502
18.7135
12.7857
19.7093
14.8152
17.2233
20.5055
0.364241
1.93172
0.729658
1.95948
1.09951
1.99932
1.47696
2.03747
1.86331
2.08675
2.26056
2.14872
2.67081
2.22489
3.09634
2.31643
3.53967
2.42412
4.00349
2.54835
4.49065
2.68966
5.00409
2.84878
5.54686
3.02676
6.12208
3.22529
6.73302
3.44675
7.38308
3.69446
8.0759
3.97283
8.81528
4.28766
9.60529
4.64684
10.4501
5.06089
11.354
5.54377
12.3204
6.11456
13.352
6.7984
14.4469
7.6329
15.5993
8.66215
16.784
9.96556
17.9667
11.603
19.038
13.7438
16.3556
19.9058
0.330788
1.60093
0.66342
1.62685
1.00036
1.66238
1.34425
1.69358
1.69618
1.73482
2.05817
1.78674
2.43228
1.85078
2.82083
1.92787
3.22636
2.01859
3.65152
2.1232
4.0991
2.24208
4.57203
2.37586
5.07329
2.5255
5.60604
2.69254
6.1736
2.87919
6.77955
3.08852
7.42776
3.32461
8.12251
3.59291
8.86854
3.90081
9.67111
4.25833
10.5359
4.67895
11.4687
5.18177
12.4753
5.79181
13.5584
6.54981
14.72
7.50054
15.9392
8.74632
17.1969
10.3453
18.3591
12.5816
15.385
19.3296
0.299709
1.30122
0.602071
1.32449
0.908873
1.35558
1.222
1.38045
1.54245
1.41436
1.87219
1.45699
2.21327
1.50971
2.56793
1.57321
2.93864
1.64788
3.32795
1.73389
3.73853
1.83149
4.17317
1.94122
4.63476
2.0639
5.12638
2.20092
5.65131
2.35425
6.21321
2.52662
6.81612
2.7217
7.46467
2.94437
8.16414
3.20133
8.92072
3.50175
9.74151
3.85816
10.6344
4.28892
11.6085
4.81772
12.6715
5.48679
13.8346
6.33739
15.0846
7.49639
16.4259
9.00401
17.7083
11.2992
14.2558
18.8375
0.271476
1.02975
0.546235
1.04973
0.825814
1.076
1.11104
1.09523
1.40301
1.12239
1.7036
1.15641
2.01474
1.19856
2.33862
1.24933
2.67755
1.30896
3.03393
1.37751
3.41026
1.45516
3.80914
1.54234
4.23329
1.63975
4.68565
1.74857
5.16941
1.87049
5.68818
2.00785
6.24611
2.16377
6.84802
2.34247
7.49964
2.54971
8.20787
2.79353
8.98107
3.08495
9.82921
3.44078
10.7647
3.88218
11.8007
4.45087
12.9577
5.18039
14.2371
6.21693
15.67
7.57119
17.1309
9.8383
12.8815
18.5051
0.246245
0.783503
0.496018
0.799958
0.75122
0.820801
1.0113
0.835141
1.27766
0.856041
1.55198
0.882081
1.83614
0.914405
2.13216
0.953315
2.44219
0.998923
2.76846
1.05124
3.11325
1.11037
3.47895
1.17664
3.86806
1.25064
4.28332
1.3333
4.72781
1.42601
5.20503
1.53063
5.71909
1.64971
6.2749
1.78665
6.87845
1.94616
7.53716
2.13482
8.26037
2.36174
9.05997
2.64118
9.95126
2.99089
10.9532
3.44895
12.0941
4.03946
13.4005
4.91051
14.9228
6.04893
16.665
8.09604
11.1607
18.3859
0.224021
0.559482
0.451148
0.572831
0.684603
0.587347
0.922049
0.597696
1.16538
0.612712
1.41607
0.631386
1.67587
0.654603
1.94667
0.68252
2.23043
0.715164
2.52916
0.752505
2.84492
0.794607
3.17987
0.841702
3.53628
0.894227
3.91669
0.952895
4.32397
1.01873
4.76146
1.09313
5.23317
1.178
5.74396
1.27587
6.29986
1.39025
6.90856
1.52612
7.57993
1.69037
8.3272
1.89392
9.16769
2.15039
10.1261
2.49052
11.2355
2.93003
12.5515
3.59456
14.1414
4.45899
16.2374
6.00003
8.99873
18.3994
0.204772
0.35471
0.411062
0.366541
0.625126
0.373282
0.842128
0.380694
1.06471
0.390131
1.29406
0.402033
1.53182
0.416844
1.77971
0.43463
2.03951
0.455368
2.313
0.479014
2.60201
0.505597
2.90844
0.535265
3.23436
0.568311
3.58205
0.605203
3.95417
0.646615
4.35384
0.693465
4.78485
0.746985
5.25188
0.808836
5.76083
0.881307
6.3193
0.967648
6.93725
1.07242
7.62838
1.20278
8.41088
1.3679
9.31282
1.58858
10.3695
1.87334
11.6549
2.30915
13.2597
2.85425
15.6
3.65967
6.40728
18.1915
0.188119
0.166591
0.37496
0.1797
0.571815
0.176427
0.770191
0.182318
0.97396
0.186363
1.18391
0.192082
1.4016
0.199154
1.62859
0.207642
1.86645
0.21751
2.11674
0.228723
2.38104
0.241289
2.66103
0.25528
2.9585
0.270837
3.27551
0.288192
3.61446
0.307673
3.9782
0.329723
4.37025
0.354937
4.79497
0.384114
5.25791
0.418361
5.76634
0.459222
6.3298
0.50896
6.96171
0.570872
7.67987
0.649736
8.51313
0.755328
9.495
0.891465
10.7024
1.10172
12.2127
1.34398
14.5004
1.37197
3.57422
17.3335
0.166591
0.346291
0.522719
0.705037
0.891399
1.08348
1.28264
1.49028
1.70779
1.93651
2.1778
2.43308
2.70392
2.99211
3.29978
3.6295
3.98444
4.36856
4.78692
5.24614
5.7551
6.32597
6.97571
7.73103
8.6225
9.72422
11.0682
12.4402
16.0144
1.23733
54.1332
1.25617
54.1214
1.28545
54.111
1.31811
54.1076
1.3429
54.1154
1.35014
54.133
1.34442
54.146
1.34177
54.1429
1.35742
54.1246
1.38272
54.1149
1.39419
54.1288
1.38847
54.146
1.38517
54.1435
1.38961
54.1358
1.38554
54.1443
1.37531
54.1505
1.3798
54.1357
1.39939
54.1207
1.42053
54.1191
1.4032
54.1576
1.36641
54.177
1.34066
54.166
1.35598
54.1249
1.39248
54.1037
1.41171
54.121
1.40867
54.1433
1.40583
54.1431
1.39429
54.1518
1.36104
54.1735
1.32607
54.1752
1.3284
54.1379
1.36546
54.1032
1.40993
54.0958
1.42089
54.1293
1.42242
54.1387
1.42461
54.1381
1.4274
54.1374
1.4304
54.1372
1.43347
54.1372
1.43653
54.1372
1.43949
54.1373
1.44225
54.1375
1.44465
54.1378
1.44661
54.1383
1.44812
54.1387
1.44935
54.139
1.45024
54.1393
1.45087
54.1396
1.45133
54.1398
1.45118
54.1404
1.45047
54.1409
1.44937
54.1413
1.44777
54.1418
1.44566
54.1424
1.44302
54.1429
1.43997
54.1433
1.43624
54.144
1.43215
54.1443
1.42742
54.145
1.42235
54.1453
1.41678
54.1458
1.41062
54.1464
1.40416
54.1467
1.3969
54.1475
1.38944
54.1477
1.38117
54.1485
1.37276
54.1486
1.36304
54.15
1.35356
54.1497
1.34344
54.1504
1.33256
54.1511
1.32211
54.1507
1.30948
54.1529
1.29778
54.1519
1.2848
54.1532
1.27253
54.1525
1.2589
54.1539
1.2446
54.1545
1.2295
54.1553
1.20902
54.1607
1.18937
54.1599
1.16833
54.1613
1.14837
54.1602
1.135
54.1536
1.11881
54.1564
1.10086
54.1582
1.07892
54.1622
1.0651
54.1541
1.04736
54.158
1.02545
54.1621
1.00375
54.1619
0.983962
54.16
0.964099
54.1601
0.943179
54.1612
0.92074
54.1627
0.89752
54.1635
0.87402
54.1637
0.850596
54.1637
0.826966
54.1639
0.803189
54.164
0.779249
54.1642
0.755157
54.1643
0.730948
54.1644
0.706643
54.1645
0.682315
54.1646
0.657942
54.1646
0.633491
54.1647
0.608819
54.1649
0.584026
54.165
0.559042
54.1652
0.533933
54.1653
0.508639
54.1655
0.483236
54.1656
0.457642
54.1658
0.431935
54.1659
0.405956
54.1662
0.379906
54.1663
0.353749
54.1664
0.327525
54.1665
0.301293
54.1665
0.27511
54.1664