/*--------------------------------*- C++ -*----------------------------------*\
| =========                 |                                                 |
| \\      /  F ield         | OpenFOAM: The Open Source CFD Toolbox           |
|  \\    /   O peration     | Version:  5.x                                   |
|   \\  /    A nd           | Web:      www.OpenFOAM.org                      |
|    \\/     M anipulation  |                                                 |
\*---------------------------------------------------------------------------*/
/*   Windows 32 and 64 bit porting by blueCAPE: http://www.bluecape.com.pt   *\
|  Based on Windows porting (2.0.x v4) by Symscape: http://www.symscape.com   |
\*---------------------------------------------------------------------------*/
FoamFile
{
    version     2.0;
    format      ascii;
    class       volVectorField;
    location    "370";
    object      U;
}
// * * * * * * * * * * * * * * * * * * * * * * * * * * * * * * * * * * * * * //

dimensions      [0 1 -1 0 0 0 0];

internalField   nonuniform List<vector> 
43900
(
(1.16162 -0.000738907 -1.60949e-027)
(1.16713 0.00218354 -4.3131e-027)
(1.16971 0.000365821 1.44266e-030)
(1.16837 0.00183947 2.83054e-030)
(1.16973 0.000798212 3.67094e-030)
(1.16991 0.00201238 3.67474e-030)
(1.17012 0.00118533 5.75763e-027)
(1.17052 0.00190874 -1.14949e-026)
(1.17047 0.00165371 9.70229e-030)
(1.17013 0.0018416 -1.14669e-026)
(1.17012 0.00192901 1.14895e-026)
(1.16996 0.00199185 1.15935e-029)
(1.1699 0.00202455 -1.14309e-026)
(1.17005 0.00209501 2.50609e-029)
(1.16993 0.00218018 2.56664e-029)
(1.1699 0.00221579 2.63491e-029)
(1.17016 0.0022436 -2.27529e-026)
(1.17013 0.00233221 5.50504e-029)
(1.16984 0.00237123 2.27828e-026)
(1.16982 0.00240094 2.8642e-029)
(1.16989 0.00247161 2.90594e-029)
(1.16989 0.00247224 2.95256e-029)
(1.16972 0.00252372 2.99634e-029)
(1.16978 0.00255276 3.03305e-029)
(1.17025 0.00254741 3.07013e-029)
(1.17049 0.00263315 -2.24856e-026)
(1.17032 0.00265178 6.26663e-029)
(1.16989 0.00272431 6.33593e-029)
(1.16966 0.00275421 8.975e-026)
(1.15868 0.0114639 0)
(1.16549 -0.00498061 0)
(1.17142 0.00906904 0)
(1.16656 -0.000182783 0)
(1.1684 0.00619826 0)
(1.16799 0.00274 0)
(1.16829 0.00490944 0)
(1.16763 0.00463277 0)
(1.16809 0.00463257 0)
(1.16848 0.00533344 0)
(1.16857 0.00532406 0)
(1.16887 0.00550031 0)
(1.16889 0.00581708 0)
(1.16869 0.00597832 0)
(1.16897 0.00611563 0)
(1.1692 0.00627595 0)
(1.16882 0.00645375 0)
(1.16861 0.00656284 0)
(1.16915 0.00666014 0)
(1.1694 0.00685415 0)
(1.16933 0.00689483 0)
(1.16941 0.00701582 0)
(1.16971 0.00713791 0)
(1.16976 0.00717239 0)
(1.1691 0.00734704 0)
(1.16834 0.00740498 0)
(1.16836 0.0074558 0)
(1.16919 0.0074902 0)
(1.17 0.00749306 0)
(1.10199 0.0321405 0)
(1.14467 -0.0175866 0)
(1.16302 0.028818 0)
(1.1632 -0.00369718 0)
(1.16632 0.0209 0)
(1.16423 0.00398669 0)
(1.16575 0.0150391 0)
(1.16645 0.00835657 0)
(1.16657 0.0118466 0)
(1.1666 0.0105499 0)
(1.16681 0.0107247 0)
(1.16692 0.0110606 0)
(1.16727 0.0110042 0)
(1.16742 0.0111034 0)
(1.16736 0.0111935 0)
(1.16753 0.0113119 0)
(1.16778 0.0114479 0)
(1.16798 0.0115261 0)
(1.16776 0.011681 0)
(1.16757 0.0117151 0)
(1.16789 0.0118417 0)
(1.16808 0.0120656 0)
(1.16779 0.0121056 0)
(1.1674 0.0123135 0)
(1.16761 0.0124167 0)
(1.16865 0.0123926 0)
(1.16954 0.0125608 0)
(1.16934 0.0126447 0)
(1.16806 0.0128344 1.57825e-027)
(1.04077 0.0199805 0)
(1.08662 -0.00669621 0)
(1.12952 0.0201177 0)
(1.15551 0.00823078 0)
(1.16323 0.022301 0)
(1.16591 0.010789 0)
(1.16471 0.0206528 0)
(1.16356 0.0137279 0)
(1.1646 0.0182355 0)
(1.1648 0.0158646 0)
(1.16498 0.0169942 0)
(1.16538 0.0167383 0)
(1.16539 0.0168092 0)
(1.16563 0.0168729 0)
(1.16606 0.0169146 0)
(1.16585 0.0170349 0)
(1.1657 0.0170493 0)
(1.16611 0.0172172 0)
(1.16649 0.0172339 0)
(1.16664 0.0174078 0)
(1.16651 0.0175314 0)
(1.16612 0.0175408 0)
(1.16632 0.0176955 0)
(1.16727 0.0178042 0)
(1.16787 0.0178106 0)
(1.16748 0.0180719 0)
(1.16616 0.0182331 0)
(1.16564 0.0183648 0)
(1.16655 0.0185064 1.68438e-027)
(1.00329 0.0102029 3.37467e-027)
(1.03879 -0.000893804 0)
(1.07566 0.0108455 0)
(1.11395 0.0129316 0)
(1.14433 0.0183553 0)
(1.15993 0.0174038 0)
(1.16327 0.0228936 0)
(1.16432 0.0186263 0)
(1.16332 0.0217474 0)
(1.16346 0.020425 0)
(1.16348 0.0208889 0)
(1.16337 0.0212343 0)
(1.16371 0.0212016 0)
(1.16371 0.021339 0)
(1.16368 0.0214927 0)
(1.16404 0.0215955 0)
(1.16409 0.0218392 0)
(1.16381 0.021804 0)
(1.16397 0.0220282 0)
(1.16424 0.0221618 0)
(1.16429 0.0222267 0)
(1.1647 0.0224511 0)
(1.16511 0.0225375 0)
(1.16471 0.0226037 0)
(1.16369 0.0228786 0)
(1.1637 0.0230178 0)
(1.16491 0.0231234 0)
(1.16589 0.0232675 0)
(1.16581 0.0233639 -7.08555e-027)
(0.97599 0.00683615 -3.52184e-027)
(1.00586 0.000684974 0)
(1.03707 0.00760562 0)
(1.06946 0.0110586 0)
(1.1019 0.0149362 0)
(1.13222 0.0182491 0)
(1.15262 0.0222052 0)
(1.16094 0.0223458 0)
(1.16217 0.0246313 0)
(1.16181 0.0230834 0)
(1.16176 0.024461 0)
(1.16186 0.0243282 0)
(1.16161 0.0246031 0)
(1.16193 0.0248633 0)
(1.16204 0.0251578 0)
(1.16167 0.0254339 0)
(1.16204 0.0255655 0)
(1.16254 0.0260001 0)
(1.16213 0.0261027 0)
(1.1618 0.0263698 0)
(1.16229 0.026642 0)
(1.16249 0.0268587 0)
(1.16204 0.0271384 0)
(1.16208 0.0275053 0)
(1.16296 0.0277019 0)
(1.16318 0.0278812 0)
(1.16246 0.0280722 0)
(1.16203 0.0283444 0)
(1.16246 0.028589 3.75229e-027)
(0.95274 0.00529588 0)
(0.979066 0.00143707 0)
(1.00665 0.00647265 0)
(1.0353 0.00970692 0)
(1.06443 0.0130489 0)
(1.09336 0.0166903 0)
(1.12142 0.0204655 0)
(1.14476 0.0233719 0)
(1.15635 0.0260625 0)
(1.15949 0.0266378 0)
(1.15934 0.0265757 0)
(1.15904 0.0274954 0)
(1.15938 0.0276884 0)
(1.15904 0.0279864 0)
(1.15917 0.0284758 0)
(1.15957 0.0288219 0)
(1.15924 0.0292378 0)
(1.15931 0.0295134 0)
(1.15977 0.0299711 0)
(1.16022 0.0303561 0)
(1.1596 0.030588 0)
(1.15914 0.0310535 0)
(1.15976 0.0313651 0)
(1.16003 0.0316483 0)
(1.15966 0.0319567 0)
(1.15981 0.0323511 0)
(1.16096 0.0326827 0)
(1.16124 0.0330955 0)
(1.16054 0.0332978 0)
(0.931528 0.00444269 0)
(0.955476 0.00191876 0)
(0.98058 0.00604433 0)
(1.00667 0.00911439 0)
(1.03338 0.0121773 0)
(1.06026 0.0154901 0)
(1.08683 0.019054 0)
(1.11231 0.02264 0)
(1.13556 0.0259777 0)
(1.15033 0.0283852 0)
(1.15546 0.0302105 0)
(1.15564 0.0299172 0)
(1.15529 0.0307717 0)
(1.15574 0.0311694 0)
(1.15553 0.0316336 0)
(1.15537 0.0321539 0)
(1.15599 0.0323932 0)
(1.15582 0.0332015 0)
(1.15575 0.033344 0)
(1.15569 0.0339961 0)
(1.15625 0.0345073 0)
(1.1566 0.0348689 0)
(1.15606 0.0352521 0)
(1.15616 0.0357094 0)
(1.157 0.0361804 0)
(1.157 0.0366439 0)
(1.15609 0.036884 0)
(1.15585 0.0375142 0)
(1.15679 0.0378228 0)
(0.911456 0.00386402 0)
(0.933664 0.00233178 0)
(0.956946 0.00595083 0)
(0.98115 0.00895254 0)
(1.006 0.0119117 0)
(1.03117 0.0150434 0)
(1.05631 0.0183822 0)
(1.08101 0.0218748 0)
(1.10473 0.0254264 0)
(1.12679 0.028719 0)
(1.14359 0.0315512 0)
(1.15036 0.0336365 0)
(1.15097 0.0336723 0)
(1.15067 0.0345265 0)
(1.15099 0.0351395 0)
(1.1513 0.0358429 0)
(1.15076 0.0364228 0)
(1.15132 0.0367736 0)
(1.15117 0.03771 0)
(1.15142 0.0381803 0)
(1.15159 0.0385991 0)
(1.15172 0.0395307 0)
(1.15261 0.0399687 0)
(1.15242 0.0405902 0)
(1.15186 0.0411523 0)
(1.15212 0.0416637 0)
(1.15322 0.042368 0)
(1.15369 0.0429344 0)
(1.15298 0.0432031 0)
(0.892 0.00339663 0)
(0.912872 0.00272926 0)
(0.934754 0.00605778 0)
(0.957503 0.0090524 0)
(0.980892 0.0119946 0)
(1.00467 0.0150632 0)
(1.02858 0.0183011 0)
(1.05231 0.0216824 0)
(1.07555 0.0251718 0)
(1.09786 0.0287021 0)
(1.11862 0.0320671 0)
(1.13639 0.0350511 0)
(1.14443 0.0375647 0)
(1.14535 0.0378586 0)
(1.14509 0.0388458 0)
(1.14517 0.0395894 0)
(1.14593 0.0403301 0)
(1.14536 0.0412302 0)
(1.14573 0.0415743 0)
(1.14606 0.0426204 0)
(1.14577 0.0433153 0)
(1.1462 0.0437923 0)
(1.14617 0.0447965 0)
(1.14698 0.0452901 0)
(1.14763 0.0462587 0)
(1.14741 0.0467847 0)
(1.14707 0.0472509 0)
(1.14748 0.0481906 0)
(1.14908 0.048594 -9.91631e-027)
(0.87278 0.00321782 0)
(0.892577 0.00304967 0)
(0.913361 0.00632001 0)
(0.934976 0.00937664 0)
(0.957226 0.012374 0)
(0.979898 0.0154699 0)
(1.00277 0.0187103 0)
(1.02561 0.0220777 0)
(1.04817 0.0255477 0)
(1.07015 0.0290952 0)
(1.09117 0.032669 0)
(1.11062 0.0361113 0)
(1.12819 0.0392498 0)
(1.13765 0.0420687 0)
(1.13863 0.0425805 0)
(1.13876 0.0438455 0)
(1.13849 0.0446792 0)
(1.13947 0.0453884 0)
(1.13949 0.0466484 0)
(1.13928 0.0473239 0)
(1.14037 0.0480591 0)
(1.13993 0.0492623 0)
(1.14049 0.0497379 0)
(1.14021 0.0505638 0)
(1.14116 0.0515942 0)
(1.14213 0.0520124 0)
(1.14244 0.053339 0)
(1.14243 0.0538051 0)
(1.14223 0.0543589 1.04669e-026)
(0.853568 0.00318456 0)
(0.872429 0.00336585 0)
(0.892258 0.00669626 0)
(0.912908 0.00987739 0)
(0.934202 0.0129947 0)
(0.955949 0.0161944 0)
(0.977956 0.019523 0)
(1.00002 0.022967 0)
(1.02194 0.0265055 0)
(1.0435 0.030119 0)
(1.06443 0.0337825 0)
(1.08441 0.0374456 0)
(1.103 0.0409828 0)
(1.1199 0.0442784 0)
(1.13008 0.0472267 0)
(1.1309 0.0482103 0)
(1.13175 0.0496687 0)
(1.13106 0.0503982 0)
(1.13192 0.0515292 0)
(1.13306 0.0526379 0)
(1.13267 0.0539488 0)
(1.13372 0.0542967 0)
(1.13405 0.0561181 0)
(1.13482 0.0565744 0)
(1.13448 0.0574128 0)
(1.13452 0.0588172 0)
(1.13592 0.0591626 0)
(1.1368 0.0605464 0)
(1.13734 0.0615944 1.14986e-026)
(0.834138 0.0031096 0)
(0.852191 0.00372406 0)
(0.871194 0.00714237 0)
(0.891012 0.0104763 0)
(0.911479 0.013752 0)
(0.932427 0.0171001 0)
(0.953683 0.0205659 0)
(0.975068 0.0241386 0)
(0.996407 0.0278003 0)
(1.01752 0.0315344 0)
(1.03821 0.0353222 0)
(1.05825 0.039138 0)
(1.07737 0.042934 0)
(1.09517 0.0466024 0)
(1.11141 0.0500472 0)
(1.12183 0.0531802 0)
(1.12247 0.0543873 0)
(1.12387 0.0560473 0)
(1.12324 0.0567091 0)
(1.1238 0.0582357 0)
(1.1255 0.059431 0)
(1.12504 0.0609006 0)
(1.12626 0.0615827 0)
(1.12644 0.0632357 0)
(1.12749 0.0645208 0)
(1.12838 0.0651207 0)
(1.12807 0.0668807 0)
(1.12848 0.0675426 0)
(1.13001 0.0682556 -1.21432e-026)
(0.814487 0.00309775 0)
(0.831797 0.00410143 0)
(0.850046 0.00766218 0)
(0.869118 0.0111847 0)
(0.888855 0.0146561 0)
(0.909097 0.0181935 0)
(0.929688 0.0218414 0)
(0.95047 0.0255906 0)
(0.971284 0.0294252 0)
(0.991971 0.033331 0)
(1.01237 0.0372926 0)
(1.03232 0.0412908 0)
(1.0516 0.0452999 0)
(1.06997 0.0492728 0)
(1.08708 0.0530951 0)
(1.10277 0.0567569 0)
(1.11324 0.0600448 0)
(1.11351 0.0615458 0)
(1.11533 0.0631237 0)
(1.11518 0.0641902 0)
(1.11565 0.0660248 0)
(1.11742 0.0669559 0)
(1.11712 0.0690348 0)
(1.11802 0.0696089 0)
(1.119 0.0712471 0)
(1.11947 0.0730261 0)
(1.12123 0.0734426 0)
(1.12175 0.0753641 0)
(1.12143 0.0767528 -1.33848e-026)
(0.794477 0.00314005 0)
(0.811103 0.00450068 0)
(0.828661 0.00825532 0)
(0.847039 0.0120006 0)
(0.866109 0.0157029 0)
(0.885713 0.0194689 0)
(0.905698 0.0233398 0)
(0.925925 0.0273093 0)
(0.946249 0.0313627 0)
(0.966529 0.0354872 0)
(0.986625 0.0396697 0)
(1.00639 0.043894 0)
(1.02567 0.0481403 0)
(1.04429 0.0523822 0)
(1.06201 0.0565715 0)
(1.0785 0.0605834 0)
(1.09385 0.0644713 0)
(1.10429 0.0679172 0)
(1.10412 0.06969 0)
(1.106 0.0711083 0)
(1.10676 0.0727798 0)
(1.10687 0.074655 0)
(1.10858 0.0754215 0)
(1.10902 0.0779863 0)
(1.11018 0.0787961 0)
(1.11111 0.0800995 0)
(1.11158 0.0823036 0)
(1.11362 0.0828546 0)
(1.11523 0.0842355 1.41647e-026)
(0.77407 0.00322393 0)
(0.790054 0.00491588 0)
(0.806968 0.00890266 0)
(0.824704 0.012899 0)
(0.843142 0.0168559 0)
(0.862153 0.0208775 0)
(0.881585 0.0250021 0)
(0.901297 0.0292215 0)
(0.921163 0.0335233 0)
(0.941053 0.0378954 0)
(0.960841 0.042326 0)
(0.980404 0.0468009 0)
(0.999612 0.0513026 0)
(1.01832 0.0558098 0)
(1.03638 0.0602944 0)
(1.05358 0.0647041 0)
(1.06965 0.0689212 0)
(1.08476 0.0730156 0)
(1.09479 0.0766736 0)
(1.09444 0.0784466 0)
(1.09643 0.0801643 0)
(1.0978 0.0819567 0)
(1.09776 0.0840745 0)
(1.09951 0.0847455 0)
(1.10068 0.0875589 0)
(1.10234 0.088685 0)
(1.10362 0.0900107 0)
(1.10354 0.0924896 0)
(1.10561 0.0935259 0)
(0.753265 0.00334607 0)
(0.768635 0.00535378 0)
(0.78494 0.00960781 0)
(0.802076 0.0138861 0)
(0.819925 0.0181268 0)
(0.838369 0.022432 0)
(0.857284 0.0268424 0)
(0.876526 0.0313487 0)
(0.895968 0.0359362 0)
(0.915494 0.040595 0)
(0.93499 0.0453133 0)
(0.954344 0.0500782 0)
(0.973446 0.0548744 0)
(0.992182 0.0596838 0)
(1.01043 0.0644852 0)
(1.02804 0.0692498 0)
(1.04485 0.0739213 0)
(1.06065 0.0783914 0)
(1.07555 0.0828205 0)
(1.08492 0.0865442 0)
(1.08477 0.088675 0)
(1.08724 0.0905103 0)
(1.08891 0.0924621 0)
(1.08929 0.0949296 0)
(1.09107 0.095727 0)
(1.09195 0.0981649 0)
(1.09483 0.100337 0)
(1.09592 0.101226 0)
(1.09579 0.103621 0)
(0.732027 0.00350179 0)
(0.746803 0.00581563 0)
(0.76252 0.0103683 0)
(0.779079 0.014956 0)
(0.796369 0.0195094 0)
(0.814271 0.024127 0)
(0.832672 0.0288508 0)
(0.85145 0.0336741 0)
(0.870481 0.038582 0)
(0.889653 0.0435638 0)
(0.908858 0.0486089 0)
(0.927992 0.0537053 0)
(0.946958 0.0588389 0)
(0.965657 0.0639938 0)
(0.983986 0.0691519 0)
(1.00183 0.074292 0)
(1.01908 0.0793844 0)
(1.03556 0.0843701 0)
(1.05117 0.0891742 0)
(1.06589 0.0938717 0)
(1.07448 0.0978461 0)
(1.07487 0.100086 0)
(1.07795 0.102017 0)
(1.07925 0.104071 0)
(1.08077 0.106945 0)
(1.08218 0.10771 0)
(1.08269 0.110275 0)
(1.08584 0.112958 0)
(1.08808 0.113551 0)
(0.710387 0.00368212 4.0658e-026)
(0.724583 0.00629315 0)
(0.739728 0.0111668 0)
(0.755727 0.0160836 0)
(0.772477 0.0209682 0)
(0.789864 0.0259191 0)
(0.807777 0.0309779 0)
(0.826105 0.0361385 0)
(0.84473 0.041386 0)
(0.86354 0.0467086 0)
(0.882442 0.0520976 0)
(0.901339 0.0575407 0)
(0.92014 0.0630249 0)
(0.938756 0.0685353 0)
(0.957099 0.0740551 0)
(0.975075 0.0795652 0)
(0.992585 0.0850434 0)
(1.00952 0.0904574 0)
(1.02576 0.0957483 0)
(1.04126 0.100843 0)
(1.05577 0.105833 0)
(1.06399 0.109898 0)
(1.06506 0.11234 0)
(1.06774 0.114355 0)
(1.06918 0.116688 0)
(1.07148 0.119774 0)
(1.07351 0.120907 0)
(1.07383 0.123376 0)
(1.07692 0.12637 0)
(0.688386 0.0038874 1.31753e-027)
(0.702013 0.00678988 0)
(0.716596 0.012007 0)
(0.732047 0.0172736 0)
(0.748267 0.0225091 0)
(0.765149 0.0278144 0)
(0.782586 0.0332303 0)
(0.800473 0.0387513 0)
(0.818709 0.0443641 0)
(0.837184 0.0500559 0)
(0.855798 0.0558152 0)
(0.874464 0.0616321 0)
(0.893097 0.0674936 0)
(0.911619 0.0733855 0)
(0.929948 0.0792924 0)
(0.948008 0.0851967 0)
(0.965714 0.0910789 0)
(0.98298 0.0969166 0)
(0.999716 0.102678 0)
(1.01584 0.108302 0)
(1.03137 0.113739 0)
(1.04609 0.11908 0)
(1.05376 0.123345 0)
(1.05574 0.125954 0)
(1.05822 0.128354 0)
(1.05907 0.13101 0)
(1.06283 0.133809 0)
(1.06572 0.135922 0)
(1.06638 0.137826 0)
(0.666054 0.00411639 -4.69071e-026)
(0.67912 0.00730663 0)
(0.693151 0.0128892 0)
(0.708063 0.0185259 0)
(0.723764 0.0241321 0)
(0.740153 0.029812 0)
(0.757126 0.035608 0)
(0.774581 0.0415127 0)
(0.79242 0.0475133 0)
(0.810547 0.0535984 0)
(0.828865 0.0597565 0)
(0.847291 0.0659768 0)
(0.865744 0.0722467 0)
(0.88415 0.0785528 0)
(0.902435 0.0848804 0)
(0.920529 0.0912138 0)
(0.938362 0.0975353 0)
(0.955861 0.103826 0)
(0.972951 0.110064 0)
(0.989561 0.116218 0)
(1.00565 0.122225 0)
(1.02136 0.128065 0)
(1.03618 0.133893 0)
(1.04364 0.137929 0)
(1.04602 0.141255 0)
(1.0491 0.14337 0)
(1.05021 0.145878 0)
(1.05431 0.14882 0)
(1.05787 0.151106 0)
(0.643434 0.00436503 0)
(0.655946 0.00783964 0)
(0.669429 0.013806 0)
(0.683808 0.0198298 0)
(0.698993 0.0258231 0)
(0.714889 0.0318944 0)
(0.731399 0.0380877 0)
(0.748424 0.0443947 0)
(0.765872 0.0508023 0)
(0.783654 0.0572999 0)
(0.801677 0.0638756 0)
(0.819857 0.0705173 0)
(0.838118 0.0772136 0)
(0.856389 0.0839509 0)
(0.874603 0.0907147 0)
(0.892693 0.0974898 0)
(0.910598 0.10426 0)
(0.928253 0.111006 0)
(0.945594 0.117709 0)
(0.962559 0.124348 0)
(0.979095 0.130889 0)
(0.995213 0.137267 0)
(1.01114 0.143578 0)
(1.02634 0.149563 0)
(1.03328 0.153994 0)
(1.03712 0.15702 0)
(1.0403 0.160001 0)
(1.04216 0.161937 0)
(1.04657 0.165782 0)
(0.620579 0.00463364 -5.72254e-026)
(0.632541 0.00839047 0)
(0.645483 0.0147588 0)
(0.659334 0.0211864 0)
(0.67401 0.0275826 0)
(0.68942 0.0340613 0)
(0.705473 0.0406682 0)
(0.722076 0.0473953 0)
(0.739135 0.0542272 0)
(0.756566 0.061153 0)
(0.774285 0.0681621 0)
(0.79221 0.0752424 0)
(0.810269 0.0823814 0)
(0.828395 0.0895656 0)
(0.846523 0.0967807 0)
(0.864591 0.104012 0)
(0.882541 0.111243 0)
(0.900316 0.118457 0)
(0.917859 0.125635 0)
(0.935114 0.132757 0)
(0.95203 0.139804 0)
(0.96858 0.146743 0)
(0.984802 0.153531 0)
(1.0012 0.160211 0)
(1.01702 0.166812 0)
(1.02394 0.171013 0)
(1.0284 0.174612 0)
(1.03238 0.177471 0)
(1.03464 0.179921 5.4142e-026)
(0.597537 0.00491912 -1.60256e-027)
(0.608954 0.00895728 0)
(0.621361 0.0157444 0)
(0.634688 0.0225912 0)
(0.648857 0.029405 0)
(0.663784 0.0363064 0)
(0.679381 0.0433429 0)
(0.695559 0.0505059 0)
(0.712232 0.0577795 0)
(0.729317 0.0651528 0)
(0.746737 0.072615 0)
(0.764412 0.0801529 0)
(0.782269 0.0877528 0)
(0.800243 0.0954017 0)
(0.818274 0.103085 0)
(0.836303 0.110787 0)
(0.854276 0.118493 0)
(0.872139 0.126186 0)
(0.889842 0.133848 0)
(0.907334 0.141459 0)
(0.92457 0.149002 0)
(0.941512 0.156457 0)
(0.958158 0.163805 0)
(0.974582 0.170944 0)
(0.991432 0.178137 0)
(1.00827 0.1852 0)
(1.01559 0.189307 0)
(1.01997 0.193227 0)
(1.02423 0.196001 1.0633e-027)
(0.574358 0.00522337 6.58768e-026)
(0.585235 0.00954444 0)
(0.59711 0.0167695 0)
(0.609919 0.0240529 0)
(0.623587 0.0313014 0)
(0.638034 0.0386427 0)
(0.653178 0.0461261 0)
(0.668936 0.0537423 0)
(0.685225 0.0614752 0)
(0.701963 0.0693121 0)
(0.719078 0.0772419 0)
(0.736494 0.0852517 0)
(0.754143 0.0933279 0)
(0.771963 0.101457 0)
(0.789894 0.109623 0)
(0.807879 0.117811 0)
(0.825866 0.126003 0)
(0.843804 0.134185 0)
(0.861645 0.142337 0)
(0.879344 0.150442 0)
(0.896857 0.158479 0)
(0.914149 0.16643 0)
(0.931199 0.17428 0)
(0.948017 0.182009 0)
(0.964593 0.189524 0)
(0.982201 0.1972 0)
(1.00018 0.204646 0)
(1.00784 0.20923 0)
(1.01223 0.212747 -6.18772e-026)
(0.55108 0.00554449 0)
(0.561423 0.0101518 0)
(0.572772 0.0178335 0)
(0.585067 0.0255708 0)
(0.598238 0.0332705 0)
(0.612209 0.0410685 0)
(0.626906 0.0490161 0)
(0.642247 0.0571034 0)
(0.658155 0.0653135 0)
(0.674553 0.0736329 0)
(0.691368 0.0820496 0)
(0.708531 0.0905511 0)
(0.725975 0.0991226 0)
(0.743639 0.107748 0)
(0.761465 0.116414 0)
(0.779401 0.125102 0)
(0.797394 0.133796 0)
(0.815398 0.14248 0)
(0.833367 0.151135 0)
(0.851256 0.159742 0)
(0.869025 0.168283 0)
(0.886639 0.176738 0)
(0.904068 0.18509 0)
(0.9213 0.193328 0)
(0.938326 0.201433 0)
(0.95524 0.209327 0)
(0.973533 0.21745 0)
(0.99252 0.225575 0)
(1.00087 0.230081 0)
(0.527746 0.00588238 0)
(0.537561 0.0107814 0)
(0.54839 0.0189396 0)
(0.560176 0.0271489 0)
(0.572853 0.0353177 0)
(0.586354 0.0435908 0)
(0.600604 0.0520217 0)
(0.615531 0.0605997 0)
(0.631059 0.0693071 0)
(0.647116 0.0781299 0)
(0.663634 0.087056 0)
(0.680546 0.0960715 0)
(0.697788 0.10516 0)
(0.7153 0.114306 0)
(0.733026 0.123492 0)
(0.750915 0.132701 0)
(0.768916 0.141915 0)
(0.786984 0.151118 0)
(0.805075 0.160289 0)
(0.823145 0.169411 0)
(0.841156 0.178464 0)
(0.859071 0.187429 0)
(0.876859 0.196287 0)
(0.894496 0.205022 0)
(0.911967 0.213624 0)
(0.929293 0.222076 0)
(0.946556 0.23032 0)
(0.965607 0.238951 0)
(0.985181 0.24744 7.25956e-026)
(0.504391 0.00623728 0)
(0.513683 0.0114359 0)
(0.523997 0.020092 0)
(0.535279 0.0287933 0)
(0.547468 0.037451 0)
(0.5605 0.04622 0)
(0.574308 0.0551559 0)
(0.588823 0.0642469 0)
(0.603974 0.0734743 0)
(0.619694 0.0828237 0)
(0.635915 0.0922811 0)
(0.652576 0.101832 0)
(0.669616 0.111459 0)
(0.686978 0.121146 0)
(0.704608 0.130875 0)
(0.722454 0.140628 0)
(0.740469 0.150384 0)
(0.758607 0.160126 0)
(0.776824 0.169832 0)
(0.795078 0.179483 0)
(0.813331 0.18906 0)
(0.831545 0.198542 0)
(0.849687 0.207909 0)
(0.867728 0.217143 0)
(0.885646 0.226228 0)
(0.903437 0.235152 0)
(0.921127 0.243909 0)
(0.938739 0.252423 0)
(0.959179 0.261717 9.19391e-028)
(0.481047 0.00660765 0)
(0.489823 0.0121151 0)
(0.499628 0.0212903 0)
(0.51041 0.0305027 0)
(0.522114 0.0396687 0)
(0.53468 0.0489538 0)
(0.548047 0.0584157 0)
(0.562152 0.0680416 0)
(0.576928 0.0778119 0)
(0.592312 0.0877116 0)
(0.608241 0.0977255 0)
(0.624656 0.107838 0)
(0.641499 0.118032 0)
(0.658715 0.128288 0)
(0.676251 0.138587 0)
(0.694059 0.148908 0)
(0.712093 0.159232 0)
(0.730307 0.169537 0)
(0.748658 0.179802 0)
(0.767105 0.190004 0)
(0.785609 0.200122 0)
(0.804132 0.210136 0)
(0.822639 0.220022 0)
(0.841097 0.229762 0)
(0.859478 0.239337 0)
(0.877765 0.248732 0)
(0.89595 0.257943 0)
(0.914022 0.266903 0)
(0.932573 0.275812 -1.63905e-025)
(0.457748 0.00699204 0)
(0.466017 0.0128189 0)
(0.475319 0.0225336 0)
(0.485605 0.0322758 0)
(0.496826 0.0419691 0)
(0.508928 0.0517905 0)
(0.521855 0.0617999 0)
(0.535549 0.0719834 0)
(0.549949 0.0823209 0)
(0.564996 0.0927965 0)
(0.580632 0.103395 0)
(0.5968 0.114099 0)
(0.613447 0.12489 0)
(0.630519 0.135747 0)
(0.647968 0.146648 0)
(0.665745 0.157571 0)
(0.683806 0.168493 0)
(0.702106 0.179392 0)
(0.720604 0.190242 0)
(0.739259 0.201021 0)
(0.75803 0.211704 0)
(0.776879 0.222266 0)
(0.79577 0.232686 0)
(0.814667 0.242939 0)
(0.833536 0.253005 0)
(0.852352 0.262864 0)
(0.871092 0.272503 0)
(0.88974 0.281914 0)
(0.908376 0.290933 -6.26926e-028)
(0.434532 0.00738874 0)
(0.442301 0.0135465 0)
(0.451106 0.0238206 0)
(0.460901 0.0341104 0)
(0.47164 0.0443497 0)
(0.483278 0.0547279 0)
(0.495763 0.065307 0)
(0.509044 0.0760722 0)
(0.523064 0.0870027 0)
(0.53777 0.0980821 0)
(0.553107 0.109294 0)
(0.569025 0.12062 0)
(0.585473 0.13204 0)
(0.602402 0.14353 0)
(0.619766 0.155068 0)
(0.637519 0.166629 0)
(0.655616 0.178187 0)
(0.674015 0.189715 0)
(0.692676 0.201187 0)
(0.711557 0.212576 0)
(0.730618 0.223854 0)
(0.74982 0.234994 0)
(0.769125 0.245968 0)
(0.788496 0.256752 0)
(0.807895 0.267318 0)
(0.827288 0.277645 0)
(0.846647 0.287712 0)
(0.865947 0.297509 0)
(0.885182 0.306968 9.20522e-026)
(0.411435 0.00779503 0)
(0.418713 0.0142957 0)
(0.427027 0.0251471 0)
(0.436333 0.0360003 0)
(0.446591 0.0468025 0)
(0.457762 0.0577565 0)
(0.469802 0.0689262 0)
(0.482663 0.0802959 0)
(0.496298 0.0918444 0)
(0.510656 0.103555 0)
(0.52569 0.11541 0)
(0.541352 0.127389 0)
(0.557597 0.139471 0)
(0.57438 0.151632 0)
(0.591657 0.163845 0)
(0.609386 0.176084 0)
(0.627524 0.188319 0)
(0.646033 0.200521 0)
(0.66487 0.212659 0)
(0.683998 0.224701 0)
(0.703374 0.236616 0)
(0.722961 0.248372 0)
(0.742718 0.259937 0)
(0.762606 0.271281 0)
(0.782584 0.282374 0)
(0.802615 0.293188 0)
(0.822661 0.303698 0)
(0.84269 0.313884 0)
(0.862672 0.323723 9.7701e-026)
(0.388499 0.00820751 0)
(0.395296 0.0150633 0)
(0.403125 0.0265069 0)
(0.411945 0.0379362 0)
(0.42172 0.0493157 0)
(0.432421 0.060862 0)
(0.444008 0.0726407 0)
(0.456442 0.0846355 0)
(0.469681 0.0968251 0)
(0.483681 0.109193 0)
(0.4984 0.12172 0)
(0.513796 0.134387 0)
(0.529829 0.147169 0)
(0.546457 0.160041 0)
(0.563642 0.172974 0)
(0.581343 0.185937 0)
(0.599524 0.198898 0)
(0.618147 0.211823 0)
(0.637173 0.224678 0)
(0.656565 0.237424 0)
(0.676282 0.250027 0)
(0.696285 0.262448 0)
(0.716533 0.27465 0)
(0.736984 0.286597 0)
(0.757596 0.298254 0)
(0.778325 0.309587 0)
(0.799129 0.320566 0)
(0.819967 0.331162 0)
(0.840797 0.341354 -1.0304e-025)
(0.365769 0.00862257 0)
(0.372095 0.0158452 0)
(0.379447 0.0278932 0)
(0.387781 0.0399084 0)
(0.397072 0.051877 0)
(0.407295 0.0640299 0)
(0.418422 0.0764344 0)
(0.430417 0.0890739 0)
(0.443246 0.101927 0)
(0.456872 0.114978 0)
(0.471259 0.128209 0)
(0.486371 0.141596 0)
(0.502174 0.155117 0)
(0.518633 0.168743 0)
(0.535713 0.182442 0)
(0.55338 0.196179 0)
(0.5716 0.209919 0)
(0.590339 0.223624 0)
(0.609562 0.237252 0)
(0.629232 0.250763 0)
(0.649311 0.264113 0)
(0.66976 0.277258 0)
(0.690539 0.290155 0)
(0.711602 0.302759 0)
(0.732904 0.315028 0)
(0.754398 0.326922 0)
(0.776035 0.338402 0)
(0.797763 0.349435 0)
(0.819536 0.359991 1.08248e-025)
(0.343293 0.00903644 0)
(0.34916 0.0166367 0)
(0.356039 0.0292979 0)
(0.363889 0.0419055 0)
(0.372692 0.0544722 0)
(0.38243 0.0672439 0)
(0.393084 0.0802891 0)
(0.404626 0.0935912 0)
(0.417027 0.10713 0)
(0.43026 0.12089 0)
(0.444293 0.134852 0)
(0.459099 0.148995 0)
(0.47465 0.163292 0)
(0.490918 0.177712 0)
(0.507875 0.192222 0)
(0.525492 0.206785 0)
(0.543739 0.221361 0)
(0.562589 0.235906 0)
(0.582008 0.250375 0)
(0.601965 0.264719 0)
(0.622424 0.278887 0)
(0.643348 0.292827 0)
(0.664694 0.306486 0)
(0.686418 0.319812 0)
(0.708472 0.332753 0)
(0.730801 0.34526 0)
(0.753351 0.357286 0)
(0.776062 0.368788 0)
(0.798877 0.379729 -2.27697e-025)
(0.321121 0.00944539 0)
(0.32654 0.0174319 0)
(0.332953 0.0307115 0)
(0.340318 0.0439144 0)
(0.348626 0.0570853 0)
(0.357871 0.0704846 0)
(0.368037 0.0841823 0)
(0.379108 0.0981617 0)
(0.391061 0.112404 0)
(0.403877 0.126895 0)
(0.417532 0.141616 0)
(0.432006 0.156544 0)
(0.447279 0.171653 0)
(0.463329 0.18691 0)
(0.480137 0.202281 0)
(0.497678 0.217726 0)
(0.515932 0.2332 0)
(0.534875 0.248654 0)
(0.554483 0.264036 0)
(0.574728 0.279289 0)
(0.595578 0.294355 0)
(0.616998 0.309172 0)
(0.638948 0.323675 0)
(0.661383 0.337801 0)
(0.684249 0.351487 0)
(0.70749 0.364671 0)
(0.731042 0.377295 0)
(0.754837 0.389307 0)
(0.778804 0.40066 1.10036e-027)
(0.299307 0.00984633 0)
(0.304287 0.0182238 0)
(0.310238 0.0321239 0)
(0.317118 0.0459212 0)
(0.324925 0.0596986 0)
(0.333664 0.0737315 0)
(0.343329 0.08809 0)
(0.353908 0.102758 0)
(0.36539 0.117719 0)
(0.377762 0.13296 0)
(0.391009 0.148464 0)
(0.405119 0.164208 0)
(0.42008 0.180166 0)
(0.435877 0.196305 0)
(0.452499 0.212589 0)
(0.469933 0.228974 0)
(0.488163 0.245411 0)
(0.507177 0.261846 0)
(0.526956 0.278221 0)
(0.54748 0.29447 0)
(0.568724 0.310525 0)
(0.590658 0.326311 0)
(0.613242 0.341754 0)
(0.636434 0.356773 0)
(0.660178 0.37129 0)
(0.684413 0.385229 0)
(0.709065 0.398516 0)
(0.734055 0.411086 0)
(0.759297 0.42288 1.53712e-027)
(0.277907 0.0102373 0)
(0.282454 0.0190041 0)
(0.287947 0.0335234 0)
(0.294338 0.0479104 0)
(0.301638 0.062293 0)
(0.309859 0.0769613 0)
(0.319005 0.0919853 0)
(0.329072 0.10735 0)
(0.340058 0.123041 0)
(0.351956 0.139049 0)
(0.364761 0.155357 0)
(0.378469 0.171945 0)
(0.393075 0.188786 0)
(0.408577 0.205849 0)
(0.424972 0.223095 0)
(0.442255 0.240478 0)
(0.460424 0.257945 0)
(0.479474 0.275439 0)
(0.499396 0.292894 0)
(0.52018 0.310236 0)
(0.541811 0.327384 0)
(0.564264 0.344252 0)
(0.587509 0.360747 0)
(0.611503 0.376772 0)
(0.636191 0.392228 0)
(0.661506 0.407018 0)
(0.687367 0.42105 0)
(0.713678 0.434239 0)
(0.740336 0.446509 1.30396e-025)
(0.256975 0.010618 0)
(0.261093 0.0197633 0)
(0.26613 0.034897 0)
(0.272029 0.0498639 0)
(0.278813 0.064845 0)
(0.286505 0.0801448 0)
(0.295114 0.0958325 0)
(0.304648 0.111895 0)
(0.31511 0.128321 0)
(0.326503 0.145104 0)
(0.33883 0.162231 0)
(0.352095 0.179683 0)
(0.366304 0.197436 0)
(0.381461 0.215457 0)
(0.397578 0.233708 0)
(0.41466 0.252144 0)
(0.432714 0.27071 0)
(0.451748 0.289346 0)
(0.47177 0.307978 0)
(0.492779 0.326523 0)
(0.514774 0.344888 0)
(0.537743 0.36297 0)
(0.561664 0.380657 0)
(0.586501 0.397828 0)
(0.612201 0.41436 0)
(0.638692 0.430128 0)
(0.665882 0.445011 0)
(0.693659 0.458898 0)
(0.721898 0.471692 -1.32732e-025)
(0.236568 0.0109901 0)
(0.240256 0.02049 0)
(0.244838 0.0362298 0)
(0.250244 0.0517595 0)
(0.256506 0.067324 0)
(0.263656 0.0832422 0)
(0.271714 0.0995819 0)
(0.280693 0.116332 0)
(0.290604 0.133487 0)
(0.301459 0.151042 0)
(0.313269 0.168988 0)
(0.326048 0.187311 0)
(0.339809 0.205989 0)
(0.354568 0.224992 0)
(0.370346 0.244285 0)
(0.387162 0.263826 0)
(0.405034 0.28356 0)
(0.423987 0.30342 0)
(0.444045 0.32333 0)
(0.465226 0.343198 0)
(0.487545 0.36292 0)
(0.511007 0.382373 0)
(0.535606 0.401422 0)
(0.561317 0.419918 0)
(0.588093 0.437705 0)
(0.61586 0.454619 0)
(0.644518 0.470501 0)
(0.673933 0.485202 0)
(0.703948 0.498591 1.39846e-025)
(0.216742 0.0113572 0)
(0.219997 0.0211717 0)
(0.224126 0.0375032 0)
(0.229039 0.0535681 0)
(0.234774 0.0696886 0)
(0.241375 0.0861983 0)
(0.248868 0.103163 0)
(0.257272 0.120575 0)
(0.266608 0.138433 0)
(0.276894 0.156738 0)
(0.288149 0.175486 0)
(0.300395 0.194667 0)
(0.313654 0.214265 0)
(0.327951 0.234256 0)
(0.343318 0.254612 0)
(0.359789 0.275292 0)
(0.377399 0.296243 0)
(0.396187 0.317401 0)
(0.416197 0.338687 0)
(0.43747 0.360004 0)
(0.460045 0.381234 0)
(0.483953 0.402237 0)
(0.509208 0.422852 0)
(0.535805 0.442897 0)
(0.563713 0.462169 0)
(0.592862 0.480457 0)
(0.623141 0.497546 0)
(0.654394 0.513232 0)
(0.686424 0.527335 0)
(0.19755 0.0117233 0)
(0.200369 0.0217944 0)
(0.204053 0.0386939 0)
(0.208478 0.0552509 0)
(0.213689 0.0718827 0)
(0.219736 0.0889376 0)
(0.226655 0.106479 0)
(0.23447 0.124503 0)
(0.243209 0.143015 0)
(0.252897 0.162021 0)
(0.26356 0.181526 0)
(0.275227 0.201525 0)
(0.287927 0.222009 0)
(0.301696 0.242965 0)
(0.316573 0.264369 0)
(0.332609 0.286189 0)
(0.349857 0.308384 0)
(0.368373 0.330893 0)
(0.388223 0.35364 0)
(0.409478 0.376524 0)
(0.432208 0.399418 0)
(0.456475 0.422166 0)
(0.482329 0.444578 0)
(0.509797 0.466433 0)
(0.538871 0.487478 0)
(0.569496 0.507435 0)
(0.601558 0.526015 0)
(0.634878 0.542934 0)
(0.669209 0.557936 1.42267e-025)
(0.179042 0.0120899 0)
(0.181432 0.0223424 0)
(0.184688 0.0397718 0)
(0.188636 0.0567567 0)
(0.19333 0.0738329 0)
(0.198828 0.0913627 0)
(0.20517 0.109406 0)
(0.212387 0.127964 0)
(0.220514 0.14705 0)
(0.22958 0.166677 0)
(0.239618 0.186857 0)
(0.250661 0.207595 0)
(0.262746 0.228894 0)
(0.275916 0.250751 0)
(0.290222 0.273155 0)
(0.305722 0.296087 0)
(0.32249 0.319519 0)
(0.340602 0.343403 0)
(0.360153 0.367666 0)
(0.381247 0.392211 0)
(0.40399 0.416908 0)
(0.428489 0.441588 0)
(0.454838 0.466038 0)
(0.483113 0.489993 0)
(0.513348 0.513143 0)
(0.54552 0.535128 0)
(0.579525 0.55556 0)
(0.615163 0.574045 0)
(0.65213 0.590213 -5.66349e-027)
(0.161269 0.0124513 0)
(0.163252 0.0227976 0)
(0.166106 0.0406981 0)
(0.169599 0.0580224 0)
(0.173792 0.0754513 0)
(0.178752 0.0933593 0)
(0.184522 0.111802 0)
(0.191142 0.130786 0)
(0.198648 0.150332 0)
(0.207075 0.170465 0)
(0.216461 0.191205 0)
(0.22684 0.212571 0)
(0.238255 0.234577 0)
(0.250754 0.257236 0)
(0.264396 0.280555 0)
(0.279252 0.304532 0)
(0.295409 0.329158 0)
(0.312972 0.354396 0)
(0.332063 0.380188 0)
(0.35282 0.406448 0)
(0.375396 0.433052 0)
(0.399948 0.459826 0)
(0.426635 0.486539 0)
(0.455597 0.512888 0)
(0.486933 0.538497 0)