/*--------------------------------*- C++ -*----------------------------------*\
| =========                 |                                                 |
| \\      /  F ield         | OpenFOAM: The Open Source CFD Toolbox           |
|  \\    /   O peration     | Version:  5.x                                   |
|   \\  /    A nd           | Web:      www.OpenFOAM.org                      |
|    \\/     M anipulation  |                                                 |
\*---------------------------------------------------------------------------*/
/*   Windows 32 and 64 bit porting by blueCAPE: http://www.bluecape.com.pt   *\
|  Based on Windows porting (2.0.x v4) by Symscape: http://www.symscape.com   |
\*---------------------------------------------------------------------------*/
FoamFile
{
    version     2.0;
    format      ascii;
    class       volScalarField;
    location    "100";
    object      epsilon;
}
// * * * * * * * * * * * * * * * * * * * * * * * * * * * * * * * * * * * * * //

dimensions      [0 2 -3 0 0 0 0];

internalField   nonuniform List<scalar> 
43900
(
0.00154817
0.00151953
0.00151975
0.0015197
0.00151967
0.00151967
0.00151966
0.00151968
0.00151968
0.00151968
0.00151968
0.00151968
0.00151969
0.00151969
0.00151969
0.00151969
0.00151969
0.00151969
0.00151969
0.00151969
0.00151969
0.00151969
0.00151969
0.00151969
0.00151969
0.00151969
0.00151969
0.00151969
0.00151969
0.000147447
3.37215e-005
3.15785e-005
3.18764e-005
3.27861e-005
3.28032e-005
3.27849e-005
3.27983e-005
3.27984e-005
3.28033e-005
3.2805e-005
3.28068e-005
3.28083e-005
3.28096e-005
3.28108e-005
3.28118e-005
3.28126e-005
3.28133e-005
3.28139e-005
3.28143e-005
3.28146e-005
3.28147e-005
3.28149e-005
3.28151e-005
3.28153e-005
3.28155e-005
3.28157e-005
3.28158e-005
3.28158e-005
0.0432431
0.00392221
0.000128
4.64376e-006
1.38626e-006
1.32335e-006
1.41122e-006
1.41847e-006
1.418e-006
1.41823e-006
1.41865e-006
1.41907e-006
1.41943e-006
1.41974e-006
1.42002e-006
1.42025e-006
1.42046e-006
1.42064e-006
1.42079e-006
1.42093e-006
1.42105e-006
1.42117e-006
1.42127e-006
1.42136e-006
1.42145e-006
1.42154e-006
1.42162e-006
1.42169e-006
1.42175e-006
0.130628
0.0338648
0.00580287
0.000465835
1.39636e-005
5.65702e-007
1.2693e-007
1.07969e-007
1.15181e-007
1.16284e-007
1.16365e-007
1.16404e-007
1.16446e-007
1.16484e-007
1.16519e-007
1.16552e-007
1.16581e-007
1.16608e-007
1.16634e-007
1.16655e-007
1.16678e-007
1.16699e-007
1.16719e-007
1.16736e-007
1.16754e-007
1.16769e-007
1.16788e-007
1.16803e-007
1.16817e-007
0.186019
0.0744613
0.0265027
0.00683592
0.00103326
6.16391e-005
1.69969e-006
7.80418e-008
2.09762e-008
1.91861e-008
1.924e-008
1.92464e-008
1.92502e-008
1.92547e-008
1.92598e-008
1.92645e-008
1.9269e-008
1.92737e-008
1.92782e-008
1.92841e-008
1.92869e-008
1.92895e-008
1.92927e-008
1.92973e-008
1.92995e-008
1.93031e-008
1.93024e-008
1.93036e-008
1.93056e-008
0.212723
0.0993799
0.0456361
0.0195569
0.00671645
0.00141411
0.000125371
3.78078e-006
9.12008e-008
1.23264e-008
1.02449e-008
1.02055e-008
1.02055e-008
1.02058e-008
1.02072e-008
1.02099e-008
1.02122e-008
1.02145e-008
1.02166e-008
1.02202e-008
1.02262e-008
1.02294e-008
1.02299e-008
1.02301e-008
1.02306e-008
1.02319e-008
1.02249e-008
1.02249e-008
1.02256e-008
0.223525
0.11228
0.056638
0.0280257
0.0129851
0.00502583
0.00112985
9.6071e-005
2.34301e-006
5.1917e-008
1.57421e-008
1.5215e-008
1.52126e-008
1.52128e-008
1.52152e-008
1.52206e-008
1.5225e-008
1.52287e-008
1.5232e-008
1.52378e-008
1.52456e-008
1.52604e-008
1.52585e-008
1.52585e-008
1.52594e-008
1.525e-008
1.52423e-008
1.52424e-008
1.52435e-008
0.227776
0.119104
0.0629709
0.0331508
0.01693
0.00797412
0.00307272
0.00060261
3.29763e-005
5.46583e-007
4.79349e-008
4.1929e-008
4.18825e-008
4.18833e-008
4.18909e-008
4.19133e-008
4.19408e-008
4.1949e-008
4.19558e-008
4.19651e-008
4.19838e-008
4.20363e-008
4.20011e-008
4.20012e-008
4.20029e-008
4.19448e-008
4.19406e-008
4.19406e-008
4.19432e-008
0.224825
0.119212
0.0642194
0.0347009
0.0184317
0.00928976
0.00412161
0.001274
0.000140348
3.28898e-006
1.77495e-007
1.42809e-007
1.42525e-007
1.42526e-007
1.42542e-007
1.42603e-007
1.42716e-007
1.42772e-007
1.42868e-007
1.42879e-007
1.42903e-007
1.42994e-007
1.4277e-007
1.42769e-007
1.42771e-007
1.42579e-007
1.4258e-007
1.426e-007
1.42428e-007
0.220111
0.117871
0.0640461
0.0349636
0.0188616
0.0097599
0.00455596
0.00161686
0.000253434
9.19496e-006
5.44345e-007
4.39387e-007
4.38438e-007
4.38438e-007
4.3845e-007
4.38526e-007
4.38744e-007
4.38905e-007
4.38935e-007
4.39e-007
4.3891e-007
4.39178e-007
4.38453e-007
4.38452e-007
4.38101e-007
4.3805e-007
4.3817e-007
4.3766e-007
4.37253e-007
0.214796
0.115629
0.0632483
0.0347364
0.0188404
0.00982785
0.00466555
0.00173469
0.000304055
1.2839e-005
8.89744e-007
7.41531e-007
7.39965e-007
7.39966e-007
7.39972e-007
7.40092e-007
7.39775e-007
7.39777e-007
7.39825e-007
7.39757e-007
7.39844e-007
7.39407e-007
7.39011e-007
7.39011e-007
7.38603e-007
7.38602e-007
7.38222e-007
7.37883e-007
7.37884e-007
0.209052
0.112784
0.0618616
0.0341386
0.0186326
0.00977322
0.0046641
0.00175515
0.000319123
1.43776e-005
1.10342e-006
9.31496e-007
9.29453e-007
9.29451e-007
9.29479e-007
9.29455e-007
9.29296e-007
9.29297e-007
9.28996e-007
9.28996e-007
9.2864e-007
9.28383e-007
9.2838e-007
9.28379e-007
9.28048e-007
9.28087e-007
9.27283e-007
9.27241e-007
9.27241e-007
0.202831
0.109549
0.0601547
0.0332394
0.0181934
0.00960093
0.00461826
0.00175065
0.000322628
1.52853e-005
1.23917e-006
1.03981e-006
1.0373e-006
1.0373e-006
1.03715e-006
1.03725e-006
1.03691e-006
1.03691e-006
1.03675e-006
1.03675e-006
1.03645e-006
1.03645e-006
1.03613e-006
1.03613e-006
1.03615e-006
1.0356e-006
1.0354e-006
1.0354e-006
1.0354e-006
0.196155
0.106028
0.0582725
0.0322286
0.0176524
0.00932273
0.00450244
0.00172329
0.00032135
1.5984e-005
1.3307e-006
1.09737e-006
1.09405e-006
1.09404e-006
1.09406e-006
1.09374e-006
1.09373e-006
1.09373e-006
1.09358e-006
1.09358e-006
1.09317e-006
1.09317e-006
1.09317e-006
1.09323e-006
1.09282e-006
1.09277e-006
1.09242e-006
1.09241e-006
1.09259e-006
0.189132
0.10231
0.0562771
0.0311545
0.0170788
0.00902348
0.00435304
0.00166321
0.000313213
1.61333e-005
1.39086e-006
1.12645e-006
1.12225e-006
1.12224e-006
1.12204e-006
1.12201e-006
1.12194e-006
1.12194e-006
1.12191e-006
1.12193e-006
1.12153e-006
1.12153e-006
1.12143e-006
1.12144e-006
1.12131e-006
1.12134e-006
1.1213e-006
1.1213e-006
1.12102e-006
0.181797
0.09843
0.054197
0.0300375
0.0164853
0.00871708
0.00420408
0.00159804
0.000297861
1.59158e-005
1.43519e-006
1.14106e-006
1.13555e-006
1.13551e-006
1.13551e-006
1.13556e-006
1.13536e-006
1.13536e-006
1.13537e-006
1.13541e-006
1.13524e-006
1.13524e-006
1.13508e-006
1.13508e-006
1.13508e-006
1.13512e-006
1.13474e-006
1.13476e-006
1.13461e-006
0.174136
0.0943867
0.0520355
0.0288815
0.0158751
0.00840562
0.00405605
0.0015368
0.000285031
1.58793e-005
1.48276e-006
1.14933e-006
1.1423e-006
1.14224e-006
1.14211e-006
1.14212e-006
1.14186e-006
1.14186e-006
1.14187e-006
1.14193e-006
1.14174e-006
1.14174e-006
1.14155e-006
1.14158e-006
1.14148e-006
1.14148e-006
1.14161e-006
1.14134e-006
1.14134e-006
0.166144
0.0901771
0.0497911
0.0276856
0.0152473
0.00808827
0.00390798
0.00147818
0.00027427
1.60984e-005
1.54129e-006
1.15506e-006
1.14544e-006
1.14531e-006
1.14531e-006
1.14526e-006
1.14507e-006
1.14507e-006
1.14511e-006
1.14533e-006
1.14515e-006
1.14517e-006
1.14497e-006
1.14492e-006
1.14493e-006
1.145e-006
1.14435e-006
1.14439e-006
1.14426e-006
0.157833
0.0858067
0.0474655
0.0264498
0.0146014
0.0077642
0.00375893
0.00142128
0.000264961
1.6534e-005
1.61416e-006
1.16063e-006
1.14783e-006
1.14756e-006
1.14756e-006
1.14771e-006
1.14729e-006
1.14743e-006
1.14701e-006
1.147e-006
1.14701e-006
1.14717e-006
1.14673e-006
1.14703e-006
1.14666e-006
1.14661e-006
1.14701e-006
1.14641e-006
1.14638e-006
0.149231
0.0812885
0.0450645
0.0251766
0.0139383
0.00743349
0.00360874
0.0013656
0.000256925
1.71214e-005
1.70495e-006
1.16744e-006
1.1497e-006
1.14938e-006
1.1492e-006
1.14922e-006
1.14915e-006
1.14879e-006
1.1488e-006
1.14874e-006
1.14868e-006
1.14869e-006
1.14877e-006
1.14853e-006
1.1481e-006
1.14843e-006
1.14804e-006
1.14788e-006
1.14821e-006
0.140378
0.0766409
0.0425969
0.0238698
0.0132593
0.00709649
0.00345713
0.00131129
0.000249794
1.79009e-005
1.81859e-006
1.17579e-006
1.15204e-006
1.15098e-006
1.15093e-006
1.15071e-006
1.15076e-006
1.15114e-006
1.15057e-006
1.15105e-006
1.15033e-006
1.15032e-006
1.15079e-006
1.14985e-006
1.15032e-006
1.1498e-006
1.14941e-006
1.14976e-006
1.14936e-006
0.131322
0.0718873
0.0400738
0.0225346
0.0125668
0.00675427
0.00330493
0.0012577
0.000243964
1.88592e-005
1.95944e-006
1.1887e-006
1.15453e-006
1.15279e-006
1.15262e-006
1.15343e-006
1.15302e-006
1.1527e-006
1.15325e-006
1.15252e-006
1.15246e-006
1.1528e-006
1.15204e-006
1.15253e-006
1.15207e-006
1.15127e-006
1.15207e-006
1.15124e-006
1.15096e-006
0.122121
0.0670561
0.037509
0.0211775
0.0118635
0.00640741
0.00315118
0.00120595
0.000238581
2.00054e-005
2.13988e-006
1.20387e-006
1.15848e-006
1.15581e-006
1.1567e-006
1.15575e-006
1.155e-006
1.1561e-006
1.15513e-006
1.1549e-006
1.15574e-006
1.15439e-006
1.15471e-006
1.15525e-006
1.15383e-006
1.15462e-006
1.15404e-006
1.15316e-006
1.15421e-006
0.112841
0.0621785
0.034917
0.0198046
0.0111517
0.00605708
0.0029977
0.00115387
0.000234447
2.13908e-005
2.35335e-006
1.2282e-006
1.16243e-006
1.15992e-006
1.15905e-006
1.15871e-006
1.16025e-006
1.1586e-006
1.15776e-006
1.15936e-006
1.15788e-006
1.15796e-006
1.15877e-006
1.15705e-006
1.15775e-006
1.1579e-006
1.1562e-006
1.15751e-006
1.15626e-006
0.103563
0.0572942
0.0323171
0.0184253
0.0104357
0.00570425
0.00284203
0.001104
0.00023053
2.28597e-005
2.63005e-006
1.2565e-006
1.17031e-006
1.16327e-006
1.16348e-006
1.165e-006
1.1631e-006
1.16208e-006
1.16445e-006
1.16237e-006
1.16153e-006
1.16304e-006
1.16095e-006
1.16204e-006
1.16249e-006
1.1601e-006
1.16115e-006
1.16021e-006
1.16009e-006
0.0943567
0.0524381
0.0297263
0.0170471
0.00971832
0.0053506
0.00268841
0.00105336
0.000227233
2.47055e-005
2.95488e-006
1.3015e-006
1.1774e-006
1.16954e-006
1.1701e-006
1.16844e-006
1.16833e-006
1.17049e-006
1.16774e-006
1.16655e-006
1.16936e-006
1.16654e-006
1.16713e-006
1.16639e-006
1.16479e-006
1.16639e-006
1.16516e-006
1.16395e-006
1.16343e-006
0.0853169
0.0476534
0.0271644
0.0156788
0.00900301
0.00499582
0.00253057
0.0010033
0.000224304
2.64937e-005
3.35138e-006
1.35336e-006
1.19086e-006
1.1775e-006
1.17459e-006
1.17521e-006
1.17655e-006
1.17422e-006
1.17431e-006
1.17602e-006
1.17339e-006
1.17355e-006
1.17208e-006
1.17215e-006
1.17248e-006
1.17043e-006
1.17011e-006
1.1701e-006
1.17067e-006
0.076524
0.0429834
0.0246542
0.0143318
0.00829512
0.00464338
0.00237661
0.000953245
0.000220916
2.86124e-005
3.83327e-006
1.43154e-006
1.20599e-006
1.18426e-006
1.18355e-006
1.18232e-006
1.18197e-006
1.18387e-006
1.18158e-006
1.18059e-006
1.18158e-006
1.18008e-006
1.18095e-006
1.1786e-006
1.17882e-006
1.17818e-006
1.1761e-006
1.177e-006
1.17495e-006
0.0680532
0.038463
0.0222113
0.0130126
0.00759701
0.00429275
0.00221816
0.000901856
0.000217459
3.06008e-005
4.35334e-006
1.52012e-006
1.22582e-006
1.19744e-006
1.19318e-006
1.19466e-006
1.19383e-006
1.19039e-006
1.19184e-006
1.19072e-006
1.18927e-006
1.19102e-006
1.18777e-006
1.18915e-006
1.18697e-006
1.18444e-006
1.18634e-006
1.18295e-006
1.18341e-006
0.0599911
0.0341364
0.0198583
0.0117322
0.00691283
0.00394488
0.0020618
0.000849783
0.000212916
3.26758e-005
5.00305e-006
1.64741e-006
1.25906e-006
1.20787e-006
1.20617e-006
1.20333e-006
1.20253e-006
1.20579e-006
1.2009e-006
1.20077e-006
1.20243e-006
1.19935e-006
1.20127e-006
1.19783e-006
1.19774e-006
1.19873e-006
1.19377e-006
1.19455e-006
1.19242e-006
0.0523956
0.0300351
0.0176122
0.0104999
0.00624857
0.00360431
0.00190396
0.000795648
0.000207566
3.4602e-005
5.66065e-006
1.79308e-006
1.28921e-006
1.22903e-006
1.21684e-006
1.21734e-006
1.22065e-006
1.21575e-006
1.21799e-006
1.21493e-006
1.21128e-006
1.21545e-006
1.21148e-006
1.2127e-006
1.21102e-006
1.20711e-006
1.20829e-006
1.20463e-006
1.20482e-006
0.0453242
0.0261882
0.0154875
0.00932205
0.00560508
0.00326783
0.00174594
0.000740483
0.000200778
3.61918e-005
6.40163e-006
1.97204e-006
1.33859e-006
1.24995e-006
1.23936e-006
1.2343e-006
1.23135e-006
1.23644e-006
1.23095e-006
1.23039e-006
1.23099e-006
1.22713e-006
1.22961e-006
1.22503e-006
1.22661e-006
1.22475e-006
1.21966e-006
1.22131e-006
1.216e-006
0.0388191
0.0226204
0.0134988
0.00820731
0.00498847
0.00294161
0.00158908
0.000680993
0.000191787
3.75434e-005
7.12473e-006
2.18068e-006
1.40805e-006
1.27848e-006
1.25458e-006
1.25458e-006
1.25765e-006
1.25087e-006
1.25517e-006
1.25171e-006
1.24672e-006
1.24802e-006
1.24454e-006
1.24715e-006
1.24111e-006
1.24222e-006
1.24077e-006
1.23396e-006
1.23804e-006
0.0329063
0.0193479
0.0116557
0.00716138
0.00440094
0.00262349
0.00143091
0.000623009
0.000182066
3.80627e-005
7.88048e-006
2.42736e-006
1.47037e-006
1.30619e-006
1.29094e-006
1.27611e-006
1.27272e-006
1.28041e-006
1.27569e-006
1.27754e-006
1.27131e-006
1.2647e-006
1.26759e-006
1.26524e-006
1.27057e-006
1.26328e-006
1.25988e-006
1.25836e-006
1.25106e-006
0.0275978
0.0163805
0.00996547
0.00618913
0.00384608
0.00231851
0.00127755
0.000558812
0.000168696
3.79299e-005
8.45045e-006
2.65762e-006
1.56336e-006
1.36396e-006
1.31271e-006
1.30744e-006
1.31052e-006
1.30071e-006
1.30277e-006
1.3002e-006
1.30594e-006
1.30058e-006
1.28885e-006
1.2917e-006
1.28814e-006
1.29319e-006
1.28594e-006
1.28013e-006
1.27847e-006
0.0228907
0.0137207
0.00843188
0.00529409
0.00332632
0.00202496
0.00112153
0.000496477
0.000155287
3.72934e-005
8.97287e-006
2.95586e-006
1.67273e-006
1.39571e-006
1.35886e-006
1.34425e-006
1.33356e-006
1.33952e-006
1.33539e-006
1.33663e-006
1.3295e-006
1.33615e-006
1.33176e-006
1.31717e-006
1.31895e-006
1.31469e-006
1.32103e-006
1.31402e-006
1.30075e-006
0.0187693
0.0113646
0.0070555
0.00447821
0.00284357
0.00174752
0.000974881
0.000431372
0.000138468
3.59097e-005
9.31337e-006
3.16986e-006
1.77022e-006
1.47828e-006
1.38924e-006
1.38653e-006
1.38179e-006
1.3704e-006
1.37292e-006
1.37035e-006
1.37641e-006
1.36657e-006
1.37155e-006
1.36544e-006
1.34865e-006
1.3504e-006
1.34646e-006
1.35769e-006
1.34919e-006
0.0152061
0.00930251
0.00583418
0.00374274
0.00240098
0.00148665
0.000827641
0.000367974
0.000121856
3.34988e-005
9.36089e-006
3.39981e-006
1.9342e-006
1.53401e-006
1.45466e-006
1.42113e-006
1.42573e-006
1.42716e-006
1.41903e-006
1.41849e-006
1.41376e-006
1.42297e-006
1.40839e-006
1.41401e-006
1.40872e-006
1.39198e-006
1.38678e-006
1.38081e-006
1.39457e-006
0.012164
0.00751903
0.00476254
0.00308634
0.00199702
0.00124272
0.000691746
0.000305023
0.000103558
3.06639e-005
9.27196e-006
3.55953e-006
2.01654e-006
1.6387e-006
1.50257e-006
1.49188e-006
1.47217e-006
1.47203e-006
1.47599e-006
1.4739e-006
1.47366e-006
1.46432e-006
1.47415e-006
1.45731e-006
1.45892e-006
1.45181e-006
1.44001e-006
1.43241e-006
1.42308e-006
0.0095999
0.00599529
0.00383317
0.0025073
0.00163528
0.00101992
0.000560851
0.000247526
8.66019e-005
2.71236e-005
8.95407e-006
3.68509e-006
2.18235e-006
1.70139e-006
1.59545e-006
1.53658e-006
1.54602e-006
1.53813e-006
1.53819e-006
1.53525e-006
1.52311e-006
1.5236e-006
1.5212e-006
1.53759e-006
1.52135e-006
1.52329e-006
1.51753e-006
1.49925e-006
1.48407e-006
0.00746633
0.0047097
0.00303727
0.00200334
0.0013127
0.000816559
0.000444437
0.000193303
6.96982e-005
2.35681e-005
8.45643e-006
3.74745e-006
2.25732e-006
1.81745e-006
1.67547e-006
1.63836e-006
1.59669e-006
1.60924e-006
1.60037e-006
1.60277e-006
1.61048e-006
1.60989e-006
1.61096e-006
1.59938e-006
1.61108e-006
1.58634e-006
1.58784e-006
1.58137e-006
1.56029e-006
0.00571396
0.00363879
0.00236414
0.00156934
0.00103189
0.000636708
0.00033809
0.000147689
5.51831e-005
1.97793e-005
7.7727e-006
3.73049e-006
2.36186e-006
1.89171e-006
1.73677e-006
1.7045e-006
1.70948e-006
1.69036e-006
1.71061e-006
1.69607e-006
1.69605e-006
1.69368e-006
1.68608e-006
1.68556e-006
1.68431e-006
1.70006e-006
1.66878e-006
1.66725e-006
1.65535e-006
0.00429398
0.00275874
0.0018029
0.00120291
0.000788693
0.000478799
0.000250317
0.000108262
4.22115e-005
1.6506e-005
7.05745e-006
3.67095e-006
2.4497e-006
2.02545e-006
1.8597e-006
1.798e-006
1.77985e-006
1.79192e-006
1.77761e-006
1.80302e-006
1.78889e-006
1.79506e-006
1.79922e-006
1.79497e-006
1.78268e-006
1.77668e-006
1.79614e-006
1.76787e-006
1.77061e-006
0.00315968
0.00204616
0.00134237
0.00089661
0.000584747
0.000348105
0.000176295
7.76989e-005
3.18777e-005
1.33992e-005
6.2917e-006
3.55855e-006
2.53536e-006
2.11415e-006
1.94762e-006
1.87731e-006
1.87399e-006
1.87882e-006
1.90288e-006
1.90428e-006
1.94218e-006
1.91224e-006
1.91574e-006
1.92022e-006
1.91902e-006
1.91534e-006
1.90676e-006
1.91684e-006
1.8934e-006
0.00226785
0.0014788
0.000971004
0.000648371
0.000416397
0.000240654
0.000121102
5.40805e-005
2.36513e-005
1.0821e-005
5.58835e-006
3.44661e-006
2.58029e-006
2.22029e-006
2.0547e-006
2.02295e-006
1.99125e-006
1.99128e-006
1.99503e-006
2.0053e-006
2.01839e-006
2.09771e-006
2.07278e-006
2.08617e-006
2.0805e-006
2.07997e-006
2.07726e-006
2.05093e-006
2.05201e-006
0.00157964
0.00103601
0.000678904
0.000450012
0.00028399
0.000160134
7.9515e-005
3.73882e-005
1.74453e-005
8.73372e-006
4.92661e-006
3.34159e-006
2.61108e-006
2.30999e-006
2.15157e-006
2.12108e-006
2.12308e-006
2.12193e-006
2.1338e-006
2.16884e-006
2.1665e-006
2.18494e-006
2.28199e-006
2.26067e-006
2.28264e-006
2.26828e-006
2.27228e-006
2.26673e-006
2.22505e-006
0.00106066
0.00069903
0.000455084
0.000298939
0.000183979
0.000101772
5.19907e-005
2.53859e-005
1.28597e-005
7.08159e-006
4.4879e-006
3.23447e-006
2.64615e-006
2.35517e-006
2.26846e-006
2.24286e-006
2.24608e-006
2.26432e-006
2.27039e-006
2.29985e-006
2.37702e-006
2.36914e-006
2.38949e-006
2.49875e-006
2.48245e-006
2.52062e-006
2.49292e-006
2.50638e-006
2.49189e-006
0.000680662
0.000450436
0.000290509
0.000188517
0.000113859
6.32043e-005
3.31425e-005
1.75755e-005
9.72432e-006
5.91711e-006
4.04302e-006
3.12915e-006
2.68749e-006
2.45668e-006
2.40569e-006
2.38083e-006
2.37995e-006
2.38431e-006
2.41137e-006
2.43036e-006
2.48337e-006
2.61032e-006
2.61611e-006
2.64488e-006
2.78311e-006
2.7803e-006
2.83136e-006
2.8056e-006
2.8243e-006
0.000413106
0.000274606
0.000175774
0.000113046
6.81585e-005
3.86718e-005
2.16583e-005
1.23188e-005
7.55164e-006
5.03704e-006
3.74698e-006
3.0574e-006
2.74216e-006
2.56278e-006
2.51378e-006
2.48448e-006
2.48828e-006
2.50867e-006
2.54847e-006
2.63611e-006
2.6685e-006
2.73455e-006
2.88559e-006
2.91507e-006
2.97058e-006
3.19198e-006
3.18333e-006
3.24166e-006
3.19694e-006
0.000234447
0.00015737
0.000100911
6.56403e-005
4.01782e-005
2.39777e-005
1.43923e-005
9.0927e-006
6.03675e-006
4.47697e-006
3.51832e-006
3.05774e-006
2.76644e-006
2.68185e-006
2.62479e-006
2.63692e-006
2.63741e-006
2.67958e-006
2.72984e-006
2.77926e-006
2.88321e-006
2.97004e-006
3.05503e-006
3.27326e-006
3.32534e-006
3.43042e-006
3.77724e-006
3.75267e-006
3.82149e-006
0.00012371
8.50186e-005
5.61546e-005
3.73643e-005
2.41057e-005
1.53422e-005
1.0062e-005
6.91254e-006
5.14703e-006
3.98811e-006
3.40012e-006
3.0631e-006
2.84807e-006
2.77791e-006
2.73459e-006
2.74129e-006
2.77129e-006
2.79933e-006
2.89748e-006
2.9457e-006
3.03403e-006
3.1502e-006
3.3146e-006
3.45381e-006
3.78842e-006
3.87531e-006
4.06492e-006
4.55332e-006
4.48547e-006
6.13016e-005
4.43241e-005
3.08893e-005
2.1728e-005
1.48663e-005
1.02771e-005
7.42063e-006
5.50184e-006
4.4307e-006
3.72013e-006
3.35973e-006
3.06642e-006
2.93595e-006
2.86867e-006
2.86181e-006
2.86799e-006
2.89958e-006
2.99204e-006
3.04964e-006
3.18253e-006
3.25582e-006
3.4187e-006
3.55767e-006
3.80623e-006
4.02866e-006
4.54279e-006
4.75143e-006
5.05919e-006
5.75324e-006
2.94918e-005
2.3047e-005
1.73805e-005
1.3027e-005
9.63172e-006
7.35828e-006
5.66479e-006
4.6354e-006
3.99579e-006
3.50712e-006
3.31225e-006
3.04853e-006
3.01425e-006
2.94666e-006
2.99825e-006
3.00648e-006
3.06113e-006
3.11282e-006
3.22596e-006
3.29711e-006
3.45836e-006
3.58737e-006
3.78834e-006
4.01228e-006
4.33774e-006
4.72065e-006
5.42038e-006
5.74753e-006
6.58123e-006
1.44154e-005
1.23619e-005
1.0166e-005
8.20718e-006
6.66064e-006
5.39876e-006
4.56587e-006
4.04353e-006
3.68104e-006
3.396e-006
3.20722e-006
3.10069e-006
3.09521e-006
3.09204e-006
3.09729e-006
3.11327e-006
3.16656e-006
3.21843e-006
3.35187e-006
3.45266e-006
3.69578e-006
3.9406e-006
4.45128e-006
5.00347e-006
6.11609e-006
7.035e-006
8.9331e-006
9.74156e-006
1.03057e-005
7.49532e-006
7.02349e-006
6.29792e-006
5.42384e-006
4.942e-006
4.18053e-006
3.9447e-006
3.54334e-006
3.42812e-006
3.20096e-006
3.12845e-006
3.09827e-006
3.12487e-006
3.15693e-006
3.27761e-006
3.54941e-006
4.41954e-006
6.1975e-006
1.1268e-005
1.95255e-005
3.90109e-005
6.99859e-005
0.000117344
0.000200792
0.000280538
0.000422942
0.000513591
0.000605391
0.000555761
4.26254e-006
4.27563e-006
4.19109e-006
3.86824e-006
3.78746e-006
3.4287e-006
3.3137e-006
3.18495e-006
3.20409e-006
3.23198e-006
3.44466e-006
4.16677e-006
6.99294e-006
1.34455e-005
3.30612e-005
7.17749e-005
0.000167227
0.000300114
0.000588694
0.000917196
0.00156139
0.0023172
0.00340977
0.0049155
0.00645361
0.00915514
0.0108732
0.0149726
0.0149467
2.76603e-006
2.91266e-006
2.94451e-006
2.98711e-006
3.04079e-006
3.14012e-006
3.47001e-006
4.1806e-006
6.65067e-006
1.46033e-005
4.27091e-005
0.00010333
0.000254699
0.000481332
0.000977837
0.00161923
0.0027715
0.00416749
0.0063262
0.00888833
0.0126891
0.0172106
0.023456
0.0314018
0.0411872
0.0558969
0.0699234
0.100673
0.116532
2.03943e-006
2.21746e-006
2.54903e-006
3.21378e-006
5.9508e-006
1.01752e-005
2.8612e-005
6.11149e-005
0.000151211
0.000355709
0.000826076
0.0015053
0.00270139
0.00425263
0.00671243
0.00977245
0.0141228
0.0194942
0.0267842
0.0357454
0.0479698
0.062812
0.0833288
0.108603
0.144069
0.190533
0.253657
0.358271
0.459892
1.90815e-006
2.76847e-006
5.77796e-006
1.56196e-005
5.54907e-005
0.000123667
0.000350785
0.000670578
0.0013869
0.00261443
0.00469141
0.00742649
0.0114402
0.0165552
0.0237902
0.0326746
0.04459
0.0592129
0.0784547
0.102069
0.133827
0.172113
0.226054
0.290736
0.38874
0.506769
0.706008
0.955065
1.32987
0.00151969
0.00151969
0.00151969
0.00151969
0.00151969
0.00151969
0.00151969
0.00151969
0.00151969
0.00151969
0.00151969
0.00151969
0.00151969
0.00151969
0.00151969
0.00151969
0.00151969
0.00151969
0.00151969
0.00151969
0.00151969
0.00151969
0.00151969
0.00151969
0.00151969
0.00151969
0.0015197
0.0015197
0.0015197
0.0015197
0.0015197
0.0015197
0.0015197
0.0015197
0.0015197
0.0015197
0.0015197
0.0015197
0.0015197
0.0015197
0.0015197
0.0015197
0.0015197
0.0015197
0.0015197
0.0015197
0.0015197
0.0015197
0.0015197
0.0015197
0.0015197
0.0015197
0.0015197
0.0015197
0.0015197
0.0015197
0.0015197
0.0015197
0.00151971
0.00151971
0.00151971
0.00151971
0.00151971
0.00151971
0.00151971
0.00151971
0.00151971
0.00151971
0.00151971
0.00151971
0.00151971
0.00151971
0.00151971
0.00151971
0.00151971
0.00151971
0.00151971
0.00151971
0.00151971
0.00151971
0.00151971
0.00151971
0.00151971
0.00151971
0.00151971
0.00151971
0.00151971
0.00151971
0.00151971
0.00151971
0.00151971
0.00151971
0.00151971
0.00151971
0.00151971
0.00151971
0.00151971
0.00151971
0.00151971
0.00151971
0.00151971
0.00151971
0.00151971
0.00151971
0.00151971
0.00151971
0.00151971
0.0015197
0.0015197
0.0015197
0.0015197
0.0015197
0.0015197
0.0015197
0.0015197
0.0015197
0.0015197
0.0015197
0.0015197
0.0015197
0.0015197
0.0015197
0.0015197
0.00151971
0.00151971
0.00151971
0.00151971
0.00151971
0.00151971
0.00151971
0.00151971
0.00151971
0.00151971
0.00151971
0.00151971
0.00151972
0.00151971
0.00151975
0.00154201
3.2816e-005
3.28164e-005
3.28166e-005
3.28168e-005
3.2817e-005
3.28172e-005
3.28174e-005
3.28176e-005
3.28178e-005
3.2818e-005
3.28182e-005
3.28184e-005
3.28186e-005
3.28188e-005
3.28191e-005
3.28193e-005
3.28196e-005
3.28198e-005
3.28201e-005
3.28204e-005
3.28207e-005
3.2821e-005
3.28213e-005
3.28216e-005
3.28219e-005
3.28222e-005
3.28225e-005
3.28229e-005
3.28232e-005
3.28235e-005
3.28239e-005
3.28242e-005
3.28246e-005
3.28249e-005
3.28253e-005
3.28257e-005
3.28261e-005
3.28265e-005
3.28269e-005
3.28272e-005
3.28276e-005
3.2828e-005
3.28284e-005
3.28288e-005
3.28292e-005
3.28296e-005
3.283e-005
3.28303e-005
3.28307e-005
3.28311e-005
3.28315e-005
3.28319e-005
3.28323e-005
3.28327e-005
3.28331e-005
3.28335e-005
3.28339e-005
3.28343e-005
3.28346e-005
3.2835e-005
3.28353e-005
3.28356e-005
3.28358e-005
3.28361e-005
3.28364e-005
3.28366e-005
3.28369e-005
3.28371e-005
3.28373e-005
3.28375e-005
3.28378e-005
3.28379e-005
3.28381e-005
3.28383e-005
3.28385e-005
3.28386e-005
3.28388e-005
3.28389e-005
3.2839e-005
3.28391e-005
3.28392e-005
3.28393e-005
3.28394e-005
3.28394e-005
3.28395e-005
3.28395e-005
3.28396e-005
3.28396e-005
3.28396e-005
3.28396e-005
3.28395e-005
3.28395e-005
3.28394e-005
3.28392e-005
3.28391e-005
3.28389e-005
3.28386e-005
3.28383e-005
3.2838e-005
3.28377e-005
3.28373e-005
3.28369e-005
3.28365e-005
3.28361e-005
3.28358e-005
3.28354e-005
3.28351e-005
3.28348e-005
3.28344e-005
3.28341e-005
3.28338e-005
3.28335e-005
3.28333e-005
3.28332e-005
3.28331e-005
3.28331e-005
3.2833e-005
3.2833e-005
3.28331e-005
3.28334e-005
3.28338e-005
3.28342e-005
3.28347e-005
3.28352e-005
3.28357e-005
3.28361e-005
3.28366e-005
3.28368e-005
3.28373e-005
3.28373e-005
3.28381e-005
3.28387e-005
3.28392e-005
3.28423e-005
3.28406e-005
3.28469e-005
3.28563e-005
3.25301e-005
3.37417e-005
1.42183e-006
1.42193e-006
1.42201e-006
1.42209e-006
1.42216e-006
1.42224e-006
1.42231e-006
1.42238e-006
1.42244e-006
1.42251e-006
1.42257e-006
1.42263e-006
1.42269e-006
1.42275e-006
1.42281e-006
1.42286e-006
1.42292e-006
1.42298e-006
1.42303e-006
1.42309e-006
1.42314e-006
1.4232e-006
1.42325e-006
1.42331e-006
1.42336e-006
1.42342e-006
1.42347e-006
1.42353e-006
1.42358e-006
1.42363e-006
1.42369e-006
1.42374e-006
1.4238e-006
1.42385e-006
1.4239e-006
1.42396e-006
1.42401e-006
1.42407e-006
1.42412e-006
1.42417e-006
1.42423e-006
1.42428e-006
1.42434e-006
1.42439e-006
1.42445e-006
1.4245e-006
1.42456e-006
1.42461e-006
1.42467e-006
1.42472e-006
1.42477e-006
1.42483e-006
1.42488e-006
1.42493e-006
1.42498e-006
1.42503e-006
1.42508e-006
1.42513e-006
1.42517e-006
1.42522e-006
1.42526e-006
1.4253e-006
1.42534e-006
1.42538e-006
1.42542e-006
1.42546e-006
1.4255e-006
1.42554e-006
1.42558e-006
1.42561e-006
1.42565e-006
1.42568e-006
1.42572e-006
1.42575e-006
1.42578e-006
1.42581e-006
1.42584e-006
1.42587e-006
1.42589e-006
1.42592e-006
1.42594e-006
1.42596e-006
1.42599e-006
1.42601e-006
1.42602e-006
1.42604e-006
1.42606e-006
1.42607e-006
1.42608e-006
1.4261e-006
1.42612e-006
1.42613e-006
1.42614e-006
1.42615e-006
1.42616e-006
1.42616e-006
1.42617e-006
1.42616e-006
1.42616e-006
1.42615e-006
1.42613e-006
1.42612e-006
1.4261e-006
1.42608e-006
1.42605e-006
1.42603e-006
1.426e-006
1.42597e-006
1.42594e-006
1.42591e-006
1.42587e-006
1.42584e-006
1.42582e-006
1.4258e-006
1.42579e-006
1.42578e-006
1.42577e-006
1.42576e-006
1.42576e-006
1.42575e-006
1.42575e-006
1.42574e-006
1.42573e-006
1.42572e-006
1.4257e-006
1.42567e-006
1.42564e-006
1.42561e-006
1.42553e-006
1.42557e-006
1.4254e-006
1.42552e-006
1.42525e-006
1.42559e-006
1.42648e-006
1.42521e-006
1.3355e-006
2.80347e-006
0.000268267
1.1683e-007
1.16847e-007
1.16862e-007
1.16877e-007
1.16891e-007
1.16904e-007
1.16917e-007
1.16929e-007
1.16942e-007
1.16954e-007
1.16966e-007
1.16978e-007
1.1699e-007
1.17003e-007
1.17015e-007
1.17028e-007
1.1704e-007
1.17053e-007
1.17065e-007
1.17078e-007
1.17092e-007
1.17105e-007
1.17118e-007
1.17131e-007
1.17145e-007
1.17159e-007
1.17172e-007
1.17186e-007
1.172e-007
1.17214e-007
1.17228e-007
1.17243e-007
1.17257e-007
1.17271e-007
1.17286e-007
1.173e-007
1.17315e-007
1.17329e-007
1.17344e-007
1.17358e-007
1.17372e-007
1.17387e-007
1.17401e-007
1.17415e-007
1.17429e-007
1.17443e-007
1.17456e-007
1.1747e-007
1.17484e-007
1.17497e-007
1.17511e-007
1.17524e-007
1.17537e-007
1.1755e-007
1.17563e-007
1.17576e-007
1.17588e-007
1.17601e-007
1.17613e-007
1.17626e-007
1.17638e-007
1.1765e-007
1.17662e-007
1.17674e-007
1.17686e-007
1.17697e-007
1.17708e-007
1.17719e-007
1.1773e-007
1.17741e-007
1.17751e-007
1.17762e-007
1.17772e-007
1.17781e-007
1.17791e-007
1.17801e-007
1.1781e-007
1.17819e-007
1.17827e-007
1.17836e-007
1.17844e-007
1.17852e-007
1.1786e-007
1.17867e-007
1.17875e-007
1.17881e-007
1.17888e-007
1.17894e-007
1.179e-007
1.17905e-007
1.17911e-007
1.17917e-007
1.17922e-007
1.17927e-007
1.17932e-007
1.17937e-007
1.17942e-007
1.17946e-007
1.1795e-007
1.17953e-007
1.17956e-007
1.17959e-007
1.17961e-007
1.17963e-007
1.17964e-007
1.17965e-007
1.17965e-007
1.17965e-007
1.17965e-007
1.17963e-007
1.17961e-007
1.17959e-007
1.17957e-007
1.17954e-007
1.17951e-007
1.17947e-007
1.17942e-007
1.17937e-007
1.17932e-007
1.17926e-007
1.17919e-007
1.1791e-007
1.17901e-007
1.1789e-007
1.17876e-007
1.17862e-007
1.17839e-007
1.17828e-007
1.17794e-007
1.17786e-007
1.1777e-007
1.17723e-007
1.17775e-007
1.1756e-007
1.12765e-007
1.13059e-007
7.49475e-007
0.000103841
0.00605578
1.93089e-008
1.93089e-008
1.93103e-008
1.9312e-008
1.93136e-008
1.93152e-008
1.93165e-008
1.93178e-008
1.9319e-008
1.93202e-008
1.93213e-008
1.93224e-008
1.93234e-008
1.93244e-008
1.93254e-008
1.93264e-008
1.93274e-008
1.93284e-008
1.93294e-008
1.93303e-008
1.93312e-008
1.93321e-008
1.93331e-008
1.93341e-008
1.93351e-008
1.93361e-008
1.93371e-008
1.93382e-008
1.93392e-008
1.93403e-008
1.93413e-008
1.93424e-008
1.93434e-008
1.93445e-008
1.93455e-008
1.93466e-008
1.93478e-008
1.93489e-008
1.935e-008
1.93512e-008
1.93523e-008
1.93535e-008
1.93546e-008
1.93558e-008
1.9357e-008
1.93582e-008
1.93593e-008
1.93605e-008
1.93615e-008
1.93627e-008
1.93638e-008
1.9365e-008
1.93662e-008
1.93673e-008
1.93685e-008
1.93696e-008
1.93708e-008
1.93719e-008
1.93731e-008
1.93742e-008
1.93754e-008
1.93765e-008
1.93777e-008
1.93788e-008
1.93798e-008
1.93809e-008
1.93819e-008
1.93829e-008
1.93839e-008
1.93849e-008
1.93859e-008
1.93868e-008
1.93877e-008
1.93886e-008
1.93895e-008
1.93904e-008
1.93913e-008
1.93921e-008
1.9393e-008
1.93938e-008
1.93946e-008
1.93953e-008
1.9396e-008
1.93966e-008
1.93973e-008
1.9398e-008
1.93986e-008