/*--------------------------------*- C++ -*----------------------------------*\
| =========                 |                                                 |
| \\      /  F ield         | OpenFOAM: The Open Source CFD Toolbox           |
|  \\    /   O peration     | Version:  5.x                                   |
|   \\  /    A nd           | Web:      www.OpenFOAM.org                      |
|    \\/     M anipulation  |                                                 |
\*---------------------------------------------------------------------------*/
/*   Windows 32 and 64 bit porting by blueCAPE: http://www.bluecape.com.pt   *\
|  Based on Windows porting (2.0.x v4) by Symscape: http://www.symscape.com   |
\*---------------------------------------------------------------------------*/
FoamFile
{
    version     2.0;
    format      ascii;
    class       volScalarField;
    location    "100";
    object      k;
}
// * * * * * * * * * * * * * * * * * * * * * * * * * * * * * * * * * * * * * //

dimensions      [0 2 -2 0 0 0 0];

internalField   nonuniform List<scalar> 
43900
(
0.00100763
0.000989954
0.000990216
0.000990167
0.000990116
0.00099012
0.000990114
0.000990128
0.000990127
0.000990131
0.000990132
0.000990133
0.000990134
0.000990135
0.000990136
0.000990137
0.000990137
0.000990138
0.000990138
0.000990139
0.000990139
0.000990139
0.000990139
0.000990139
0.000990139
0.000990139
0.000990139
0.000990139
0.000990139
0.000455786
4.41826e-005
3.87732e-005
3.87838e-005
4.0948e-005
4.09837e-005
4.09489e-005
4.09636e-005
4.09644e-005
4.09705e-005
4.09729e-005
4.09752e-005
4.09773e-005
4.0979e-005
4.09805e-005
4.09819e-005
4.0983e-005
4.09839e-005
4.09847e-005
4.09852e-005
4.09856e-005
4.09859e-005
4.09862e-005
4.09864e-005
4.09867e-005
4.0987e-005
4.09872e-005
4.09875e-005
4.09875e-005
0.249083
0.0367331
0.00165702
3.29232e-005
3.34553e-006
2.98873e-006
3.34822e-006
3.38089e-006
3.37726e-006
3.37729e-006
3.37824e-006
3.3792e-006
3.38005e-006
3.38078e-006
3.38142e-006
3.38198e-006
3.38247e-006
3.3829e-006
3.38327e-006
3.38361e-006
3.3839e-006
3.38418e-006
3.38443e-006
3.38466e-006
3.38488e-006
3.38509e-006
3.38527e-006
3.38546e-006
3.38559e-006
0.772886
0.293179
0.0740647
0.00861488
0.000315518
7.82975e-006
6.37737e-007
4.51437e-007
4.96416e-007
5.05771e-007
5.06324e-007
5.06496e-007
5.06676e-007
5.0684e-007
5.06987e-007
5.07124e-007
5.07251e-007
5.07364e-007
5.07472e-007
5.07557e-007
5.07657e-007
5.07751e-007
5.07837e-007
5.07908e-007
5.07989e-007
5.08052e-007
5.08151e-007
5.08218e-007
5.08283e-007
1.18741
0.645813
0.311655
0.110437
0.0231089
0.00181275
5.46434e-005
1.53904e-006
2.0617e-007
1.61375e-007
1.59799e-007
1.5979e-007
1.59795e-007
1.59811e-007
1.59847e-007
1.59882e-007
1.59912e-007
1.59949e-007
1.59983e-007
1.60042e-007
1.60062e-007
1.60079e-007
1.601e-007
1.60141e-007
1.60151e-007
1.60173e-007
1.60127e-007
1.60128e-007
1.60133e-007
1.44363
0.886354
0.529108
0.293687
0.132673
0.0371936
0.00434295
0.000150561
3.38583e-006
2.43171e-007
1.83406e-007
1.82422e-007
1.82423e-007
1.82426e-007
1.82446e-007
1.82493e-007
1.82533e-007
1.82576e-007
1.82619e-007
1.82702e-007
1.8287e-007
1.82859e-007
1.8289e-007
1.82876e-007
1.82876e-007
1.82925e-007
1.82719e-007
1.82719e-007
1.82723e-007
1.5849
1.02757
0.661135
0.413543
0.241618
0.120005
0.0359031
0.00394537
0.000108652
2.33735e-006
6.05957e-007
5.80367e-007
5.80257e-007
5.80284e-007
5.80475e-007
5.80762e-007
5.80965e-007
5.81107e-007
5.81292e-007
5.81661e-007
5.82074e-007
5.82284e-007
5.83032e-007
5.82437e-007
5.82438e-007
5.82679e-007
5.8125e-007
5.81243e-007
5.81252e-007
1.66701
1.11262
0.742071
0.488075
0.309597
0.181494
0.0888591
0.0232524
0.00161622
2.94019e-005
3.09632e-006
2.77666e-006
2.7745e-006
2.77475e-006
2.77603e-006
2.77881e-006
2.77932e-006
2.77991e-006
2.78096e-006
2.78179e-006
2.7824e-006
2.78361e-006
2.78775e-006
2.78257e-006
2.78257e-006
2.78324e-006
2.77684e-006
2.77476e-006
2.77477e-006
1.67213
1.12909
0.764841
0.514189
0.337291
0.209532
0.115686
0.046366
0.00673983
0.000187724
1.35102e-005
1.15554e-005
1.15412e-005
1.15417e-005
1.15457e-005
1.15561e-005
1.15613e-005
1.15767e-005
1.15747e-005
1.15747e-005
1.15748e-005
1.15759e-005
1.15854e-005
1.15557e-005
1.1553e-005
1.15535e-005
1.15439e-005
1.15267e-005
1.15268e-005
1.66416
1.12989
0.770215
0.522331
0.347225
0.220601
0.127214
0.0577167
0.0120192
0.000545257
4.48289e-005
3.86053e-005
3.85532e-005
3.85532e-005
3.85559e-005
3.85678e-005
3.85917e-005
3.86116e-005
3.86098e-005
3.861e-005
3.86143e-005
3.86085e-005
3.8631e-005
3.85485e-005
3.85199e-005
3.85012e-005
3.84937e-005
3.84871e-005
3.84875e-005
1.64603
1.12235
0.767913
0.52243
0.348772
0.223225
0.13071
0.0617733
0.0144103
0.000780555
7.67593e-005
6.76534e-005
6.75619e-005
6.7562e-005
6.75625e-005
6.75656e-005
6.75861e-005
6.75332e-005
6.7528e-005
6.75282e-005
6.75238e-005
6.75237e-005
6.75349e-005
6.74541e-005
6.74039e-005
6.73858e-005
6.73762e-005
6.73762e-005
6.73767e-005
1.61922
1.10599
0.759015
0.518418
0.347291
0.222955
0.131056
0.0626029
0.0151468
0.000882133
9.66483e-005
8.59649e-005
8.58442e-005
8.58227e-005
8.582e-005
8.582e-005
8.58151e-005
8.58152e-005
8.57765e-005
8.57764e-005
8.57765e-005
8.57853e-005
8.57412e-005
8.56873e-005
8.56855e-005
8.56506e-005
8.56505e-005
8.56276e-005
8.56278e-005
1.58728
1.08489
0.745026
0.509591
0.342479
0.220885
0.130435
0.0625913
0.0153299
0.000937857
0.000108788
9.64193e-005
9.62641e-005
9.62284e-005
9.62261e-005
9.62306e-005
9.62488e-005
9.62148e-005
9.61942e-005
9.61942e-005
9.61945e-005
9.61964e-005
9.61505e-005
9.6144e-005
9.61472e-005
9.61094e-005
9.61094e-005
9.60822e-005
9.60821e-005
1.55184
1.06118
0.729084
0.498853
0.335336
0.216504
0.128346
0.0620049
0.0153048
0.000977993
0.000116345
0.000101958
0.000101747
0.000101734
0.000101755
0.000101728
0.000101726
0.000101711
0.000101709
0.00010171
0.000101708
0.000101677
0.00010167
0.000101673
0.000101653
0.000101647
0.000101647
0.000101615
0.000101615
1.51391
1.03572
0.711917
0.487312
0.327651
0.211477
0.125193
0.0604477
0.0150139
0.000985011
0.000120948
0.000104759
0.000104496
0.000104495
0.000104477
0.000104469
0.000104469
0.000104449
0.000104449
0.000104453
0.000104475
0.000104432
0.000104432
0.000104419
0.000104418
0.000104418
0.000104422
0.0001044
0.000104404
1.4738
1.00882
0.693815
0.475187
0.319635
0.206306
0.121998
0.0585646
0.0143637
0.000970123
0.000123973
0.000106146
0.000105817
0.000105799
0.000105788
0.000105788
0.00010579
0.00010578
0.000105792
0.000105774
0.000105774
0.000105763
0.000105765
0.000105742
0.000105743
0.000105743
0.000105759
0.000105744
0.000105728
1.43141
0.980472
0.674803
0.462518
0.311325
0.201019
0.118815
0.0568031
0.0137974
0.000959974
0.000126826
0.000106868
0.000106429
0.000106421
0.000106424
0.000106403
0.000106402
0.000106409
0.000106407
0.000106407
0.00010642
0.000106398
0.000106398
0.000106398
0.000106374
0.000106386
0.000106367
0.000106355
0.000106375
1.38662
0.950594
0.654832
0.44927
0.302696
0.19559
0.115615
0.0551116
0.0133224
0.000966274
0.000130181
0.000107337
0.000106765
0.000106757
0.000106742
0.000106737
0.000106754
0.000106742
0.000106747
0.000106716
0.000106708
0.000106716
0.000106708
0.000106706
0.000106716
0.000106692
0.00010668
0.000106712
0.000106685
1.33937
0.919144
0.633865
0.435415
0.293721
0.189995
0.11237
0.0534582
0.0129087
0.000984116
0.000134229
0.000107689
0.000106934
0.000106912
0.00010691
0.000106925
0.000106912
0.000106927
0.00010691
0.000106895
0.000106908
0.000106893
0.000106883
0.000106898
0.000106892
0.000106867
0.000106885
0.000106869
0.000106864
1.28968
0.88612
0.611898
0.420942
0.28439
0.184223
0.109071
0.0518269
0.0125479
0.0010104
0.000139217
0.000108147
0.000107104
0.000107081
0.000107089
0.000107053
0.000107067
0.000107047
0.00010705
0.000107034
0.000107051
0.000107029
0.000107041
0.000107032
0.000106996
0.000107036
0.000107002
0.00010699
0.000107018
1.23759
0.851555
0.588947
0.405859
0.274703
0.178269
0.105708
0.0502199
0.0122255
0.00104663
0.000145445
0.000108632
0.000107266
0.000107214
0.000107227
0.000107189
0.000107189
0.000107213
0.000107172
0.000107196
0.000107165
0.000107164
0.000107185
0.000107123
0.000107165
0.000107145
0.000107104
0.000107158
0.000107122
1.18323
0.815513
0.565045
0.390183
0.26467
0.17214
0.102293
0.0486215
0.0119589
0.0010926
0.000153058
0.000109393
0.000107453
0.000107374
0.000107343
0.000107389
0.000107387
0.000107333
0.000107376
0.000107311
0.000107309
0.000107361
0.000107282
0.000107307
0.000107308
0.00010725
0.000107302
0.000107272
0.000107244
1.12675
0.778091
0.540253
0.373947
0.254303
0.165833
0.0988023
0.0470584
0.0117116
0.00114807
0.00016281
0.00011026
0.000107711
0.000107559
0.000107628
0.000107563
0.000107523
0.000107591
0.000107524
0.000107496
0.000107561
0.000107474
0.000107481
0.000107525
0.000107434
0.000107485
0.000107461
0.000107401
0.000107477
1.06835
0.739409
0.514632
0.357178
0.243613
0.159359
0.095266
0.0454735
0.0115211
0.00121655
0.000174263
0.000111661
0.000107981
0.000107863
0.000107794
0.000107765
0.00010788
0.000107781
0.000107711
0.000107815
0.000107719
0.000107718
0.000107785
0.000107662
0.000107708
0.000107734
0.000107613
0.000107697
0.000107627
1.00837
0.699655
0.488296
0.339944
0.232635
0.152716
0.0916313
0.0439337
0.0113388
0.00128905
0.000189074
0.000113223
0.000108518
0.0001081
0.000108104
0.000108206
0.000108083
0.000108017
0.000108176
0.000108035
0.000107968
0.000108074
0.000107943
0.000108018
0.000108063
0.000107895
0.000107953
0.000107901
0.000107898
0.947054
0.658994
0.461337
0.322288
0.221384
0.145927
0.0879752
0.042354
0.0111888
0.00138128
0.000206381
0.000115763
0.000108956
0.000108485
0.000108519
0.000108443
0.000108437
0.00010858
0.000108404
0.000108317
0.000108506
0.000108322
0.000108372
0.000108334
0.000108227
0.000108331
0.000108258
0.000108171
0.000108136
0.884845
0.617664
0.433885
0.304274
0.209884
0.13896
0.0841586
0.0407711
0.0110558
0.00147124
0.000227544
0.000118574
0.00010978
0.000109068
0.000108872
0.000108918
0.000109009
0.00010884
0.000108845
0.000108963
0.000108791
0.000108811
0.000108719
0.000108728
0.000108758
0.000108625
0.000108598
0.000108594
0.000108644
0.822149
0.575937
0.406112
0.286006
0.198192
0.131879
0.0803508
0.0391614
0.0109069
0.00157835
0.000253061
0.000122888
0.000110688
0.000109527
0.000109509
0.000109422
0.000109378
0.000109503
0.000109365
0.000109287
0.000109359
0.000109264
0.000109315
0.000109158
0.000109171
0.000109156
0.000109037
0.0001091
0.000108953
0.759375
0.534036
0.378133
0.267532
0.186318
0.124638
0.0763492
0.0374852
0.0107564
0.00167898
0.000280753
0.000127668
0.000111881
0.000110415
0.00011014
0.000110241
0.000110199
0.00010996
0.000110062
0.000110007
0.000109882
0.000109994
0.000109789
0.000109885
0.000109756
0.000109581
0.000109714
0.000109503
0.000109539
0.697073
0.492301
0.350149
0.248962
0.174304
0.117258
0.0722995
0.0357511
0.0105572
0.00178439
0.000315108
0.000134549
0.000113882
0.000111098
0.000111037
0.000110851
0.000110794
0.000111008
0.000110683
0.000110667
0.00011078
0.000110572
0.000110695
0.000110473
0.000110466
0.000110538
0.000110216
0.000110274
0.000110144
0.635676
0.451008
0.322334
0.230407
0.162235
0.109797
0.0681
0.0339135
0.010326
0.00188308
0.000349878
0.000142375
0.000115549
0.000112472
0.000111743
0.00011177
0.00011198
0.000111665
0.000111813
0.000111638
0.00011138
0.000111648
0.000111392
0.000111464
0.000111362
0.000111101
0.000111182
0.00011095
0.000110964
0.575677
0.41045
0.294854
0.211939
0.1501
0.102186
0.0637751
0.031993
0.0100256
0.0019649
0.00038923
0.000151897
0.000118371
0.000113751
0.000113217
0.000112921
0.000112695
0.000113026
0.000112678
0.000112637
0.00011269
0.000112444
0.000112592
0.000112295
0.000112402
0.000112287
0.000111955
0.000112061
0.000111724
0.517544
0.370934
0.267906
0.193688
0.138007
0.0945347
0.0593356
0.0298778
0.00962836
0.00203474
0.000427414
0.000163043
0.00012231
0.00011554
0.000114201
0.000114211
0.000114429
0.000113987
0.000114272
0.00011408
0.00011373
0.00011382
0.000113606
0.00011377
0.00011337
0.000113438
0.000113357
0.000112921
0.000113187
0.461702
0.332732
0.241661
0.175754
0.125982
0.0867871
0.05472
0.0277476
0.00918825
0.00206351
0.000467521
0.000176137
0.000125679
0.0001172
0.000116515
0.000115704
0.000115434
0.000115929
0.000115631
0.00011575
0.000115374
0.000114923
0.000115102
0.000114962
0.000115311
0.000114875
0.000114653
0.00011455
0.000114055
0.408536
0.296104
0.216292
0.158247
0.114109
0.0790536
0.050061
0.0253358
0.0085775
0.00205712
0.000497906
0.000188388
0.00013079
0.000120664
0.000117901
0.000117663
0.00011789
0.000117262
0.00011739
0.000117232
0.000117607
0.000117281
0.000116512
0.000116684
0.000116461
0.00011678
0.000116341
0.000115983
0.00011587
0.358373
0.261277
0.191955
0.141272
0.10244
0.071281
0.0451551
0.0229038
0.0079507
0.00202577
0.000525343
0.000204133
0.00013673
0.000122473
0.000120795
0.000120087
0.000119396
0.000119776
0.000119522
0.000119596
0.000119139
0.000119553
0.000119297
0.000118371
0.000118474
0.000118206
0.000118596
0.000118174
0.000117323
0.311481
0.228448
0.168792
0.124931
0.0910515
0.0636021
0.0403303
0.0202981
0.00715603
0.00195564
0.000543619
0.000215507
0.000141989
0.000127344
0.000122688
0.0001227
0.000122481
0.000121807
0.000121933
0.000121769
0.000122151
0.000121545
0.000121851
0.000121488
0.000120411
0.00012048
0.000120235
0.000120951
0.000120452
0.26806
0.197779
0.146935
0.109334
0.0800427
0.0560241
0.0352936
0.0176558
0.00635135
0.00183264
0.00054566
0.000227426
0.000150882
0.000130492
0.000126655
0.000124882
0.000125211
0.00012536
0.000124898
0.000124857
0.00012455
0.000125102
0.000124219
0.000124578
0.000124265
0.000123254
0.00012287
0.000122453
0.000123309
0.228232
0.169384
0.126484
0.0945539
0.0694329
0.0485868
0.0304012
0.0149537
0.0054513
0.00168199
0.000540652
0.00023568
0.000155204
0.000136429
0.000129648
0.000129264
0.000128277
0.000128238
0.000128467
0.000128345
0.000128332
0.00012778
0.000128364
0.000127312
0.000127402
0.000126975
0.000126297
0.000125793
0.000125141
0.192059
0.143342
0.107522
0.0806846
0.0593707
0.0414227
0.0254766
0.0123758
0.00460135
0.00149732
0.000523394
0.000242143
0.000164018
0.000139869
0.000135015
0.000132005
0.000132679
0.000132281
0.000132299
0.000132148
0.000131435
0.000131438
0.000131276
0.00013226
0.0001313
0.000131418
0.00013109
0.000130044
0.000129065
0.159538
0.119696
0.0901186
0.067805
0.0498575
0.034523
0.0208427
0.00987751
0.00373898
0.00130541
0.000495807
0.000244979
0.000167826
0.000146261
0.000139761
0.000138233
0.000135852
0.000136674
0.000136185
0.000136353
0.0001368
0.000136749
0.000136789
0.000136076
0.000136737
0.000135271
0.000135351
0.000134986
0.000133777
0.130604
0.0984474
0.0743087
0.0559591
0.0410469
0.0280526
0.0164026
0.00767642
0.00298585
0.00110496
0.000458525
0.000243736
0.000173359
0.000150367
0.000143243
0.000141928
0.000142521
0.000141518
0.000142751
0.000141948
0.000141936
0.00014181
0.000141404
0.000141342
0.000141215
0.000142101
0.000140298
0.000140185
0.000139482
0.105148
0.0795695
0.0601223
0.0452394
0.0329267
0.0220193
0.012508
0.00573433
0.00230491
0.000926426
0.00041917
0.000240207
0.00017799
0.0001576
0.000150314
0.000147722
0.000147061
0.000147782
0.00014685
0.000148282
0.000147511
0.000147881
0.000148095
0.00014787
0.000147225
0.000146809
0.000147885
0.000146271
0.000146415
0.0830218
0.0630105
0.0475642
0.0356352
0.0256431
0.0166823
0.00908167
0.00417065
0.00175486
0.000759654
0.000377667
0.000233997
0.000182418
0.000162558
0.000155202
0.000152223
0.000152167
0.000152545
0.000154248
0.00015432
0.000156371
0.000154735
0.000154967
0.000155218
0.000155158
0.000154944
0.000154389
0.000154888
0.000153558
0.0640523
0.0486983
0.0366234
0.0272543
0.0192063
0.0120117
0.00638142
0.00294572
0.00131444
0.000620503
0.000339778
0.000227885
0.000184868
0.000168181
0.000161213
0.000160323
0.000159191
0.000159256
0.00015953
0.000160249
0.000160998
0.000165323
0.000163996
0.000164693
0.000164369
0.000164267
0.000164056
0.00016251
0.000162492
0.0480544
0.036549
0.0272978
0.0200443
0.0137548
0.0082792
0.00428825
0.00205773
0.000981122
0.000508455
0.000304739
0.000222485
0.000186819
0.000172871
0.000166681
0.000165973
0.000166542
0.000166671
0.000167579
0.000169652
0.000169505
0.000170435
0.000175473
0.000174417
0.000175606
0.000174864
0.000175035
0.000174702
0.000172471
0.0348368
0.0264675
0.019542
0.0141004
0.00933425
0.00542924
0.0028489
0.0014202
0.000735161
0.000420384
0.000281418
0.000217291
0.000188551
0.000175844
0.000173023
0.000172704
0.00017313
0.000174665
0.000175208
0.000177048
0.000181348
0.000180931
0.000181821
0.000187164
0.000186375
0.00018835
0.000186962
0.000187635
0.000186893
0.0242024
0.0183417
0.0133337
0.00939959
0.0060193
0.00346045
0.00185398
0.000998781
0.000566741
0.000358734
0.000259168
0.000212617
0.000191456
0.00018175
0.000180647
0.000180553
0.000180722
0.000181208
0.000182923
0.000184292
0.000187315
0.000193943
0.000194409
0.000195838
0.000202477
0.000202382
0.000204872
0.000203568
0.000204361
0.0159499
0.0120501
0.00861559
0.00593541
0.0037341
0.00217209
0.00123557
0.000716949
0.00045146
0.000313647
0.000244947
0.000210116
0.000194907
0.000187663
0.000186831
0.000186332
0.000186715
0.000188055
0.000190853
0.000195209
0.000197559
0.000200927
0.000208229
0.00021038
0.000212825
0.000222897
0.0002226
0.00022534
0.000223271
0.00986156
0.00745252
0.00526976
0.00360669
0.00227704
0.00138317
0.000843869
0.000543532
0.000372608
0.000285824
0.000235161
0.000211148
0.00019756
0.000194732
0.000193424
0.000194535
0.00019481
0.000197495
0.000200332
0.000203755
0.000208339
0.000213703
0.000217941
0.000227923
0.000231613
0.000236399
0.0002518
0.000250745
0.00025395
0.00568721
0.0043478
0.00310887
0.00214572
0.00141216
0.000913508
0.000609279
0.000428038
0.000326978
0.000263316
0.000231217
0.000213755
0.000203921
0.00020132
0.00020006
0.000200585
0.000202436
0.000204057
0.000209416
0.00021206
0.000217415
0.000222045
0.000230963
0.000237601
0.000252695
0.00025829
0.000266491
0.000287155
0.00028371
0.0030887
0.00244525
0.00180866
0.00130202
0.00090537
0.000635165
0.000466003
0.000354876
0.000291876
0.000251824
0.000231575
0.000216495
0.00021023
0.000207612
0.000207571
0.000208078
0.000209922
0.000214975
0.000218026
0.00022491
0.000228619
0.000236842
0.000242742
0.000254677
0.000264652
0.000286393
0.000297958
0.000311159
0.000341183
0.00163182
0.00137001
0.00107465
0.000818001
0.000612259
0.000473296
0.000372131
0.000310025
0.000271616
0.000243521
0.000231787
0.000217744
0.000216212
0.000213215
0.00021587
0.000216356
0.000219228
0.000221909
0.000227676
0.00023139
0.000239969
0.000246068
0.00025763
0.000266572
0.000281194
0.000296305
0.000326189
0.000339768
0.00036872
0.000876921
0.00079083
0.000664521
0.000542255
0.000442468
0.000364866
0.000312063
0.000279649
0.000257364
0.000239465
0.000228903
0.000223564
0.000222722
0.000222513
0.000223059
0.000223479
0.000225587
0.000227963
0.000234153
0.000238375
0.000248629
0.000256972
0.000275579
0.000290318
0.000321232
0.00034009
0.000385187
0.000409928
0.000432969
0.000500336
0.000481882
0.000435694
0.000378506
0.000341614
0.000295138
0.000278195
0.000253811
0.000245846
0.000231808
0.000226777
0.000223949
0.000224811
0.000225383
0.000228707
0.000235683
0.000257488
0.000290337
0.000383494
0.000517463
0.000826501
0.00124562
0.00189022
0.00278965
0.00370721
0.0048389
0.0056647
0.00567791
0.00504397
0.000310621
0.000313575
0.000306333
0.0002832
0.000274673
0.000250582
0.000241919
0.000231952
0.000231654
0.000230853
0.000235108
0.000250491
0.000310316
0.000434128
0.00080228
0.0014225
0.00290184
0.00462492
0.00819554
0.0118355
0.0181191
0.0248684
0.0334366
0.044193
0.0536691
0.0688083
0.0759619
0.0911723
0.0853063
0.000216468
0.000225647
0.00022632
0.000226583
0.000227999
0.000230224
0.000240633
0.000258137
0.000314956
0.000484033
0.00104076
0.00205982
0.00445711
0.00732782
0.0133011
0.0200328
0.0307117
0.0423545
0.0583415
0.0757359
0.0984593
0.123978
0.154046
0.191648
0.228761
0.286478
0.327063
0.424021
0.431109
0.000168732
0.000179913
0.000199519
0.000230489
0.000359813
0.000461873
0.000921057
0.00151039
0.00301426
0.00599662
0.0120169
0.0191526
0.0300901
0.0426595
0.0602636
0.0801942
0.105427
0.134071
0.168828
0.208791
0.256967
0.313215
0.379702
0.461493
0.553898
0.682636
0.808692
1.05369
1.17086
0.00015873
0.000204933
0.000332771
0.00064474
0.00188275
0.00301001
0.00652492
0.0100775
0.0175627
0.0286399
0.0438947
0.061956
0.0851059
0.112107
0.14606
0.184634
0.231103
0.284275
0.347369
0.420402
0.507819
0.609554
0.733099
0.880969
1.0633
1.29608
1.5852
2.00247
2.36358
0.000990139
0.00099014
0.00099014
0.00099014
0.00099014
0.00099014
0.00099014
0.00099014
0.00099014
0.000990141
0.000990141
0.000990141
0.000990141
0.000990141
0.000990141
0.000990142
0.000990142
0.000990142
0.000990142
0.000990142
0.000990142
0.000990143
0.000990143
0.000990143
0.000990143
0.000990144
0.000990144
0.000990144
0.000990144
0.000990145
0.000990145
0.000990145
0.000990145
0.000990146
0.000990146
0.000990146
0.000990147
0.000990147
0.000990147
0.000990148
0.000990148
0.000990148
0.000990149
0.000990149
0.000990149
0.000990149
0.00099015
0.00099015
0.00099015
0.000990151
0.000990151
0.000990151
0.000990152
0.000990152
0.000990152
0.000990153
0.000990153
0.000990153
0.000990153
0.000990154
0.000990154
0.000990154
0.000990154
0.000990155
0.000990155
0.000990155
0.000990155
0.000990155
0.000990156
0.000990156
0.000990156
0.000990156
0.000990156
0.000990156
0.000990156
0.000990156
0.000990157
0.000990157
0.000990157
0.000990157
0.000990157
0.000990157
0.000990157
0.000990157
0.000990157
0.000990157
0.000990157
0.000990157
0.000990157
0.000990157
0.000990157
0.000990157
0.000990157
0.000990157
0.000990157
0.000990156
0.000990156
0.000990156
0.000990156
0.000990155
0.000990155
0.000990155
0.000990154
0.000990154
0.000990154
0.000990154
0.000990153
0.000990153
0.000990153
0.000990152
0.000990152
0.000990152
0.000990152
0.000990152
0.000990152
0.000990152
0.000990152
0.000990152
0.000990152
0.000990152
0.000990152
0.000990153
0.000990153
0.000990154
0.000990154
0.000990154
0.000990155
0.000990155
0.000990156
0.000990155
0.000990156
0.000990157
0.000990157
0.00099016
0.000990159
0.000990164
0.000990161
0.000990198
0.00100821
4.09878e-005
4.09883e-005
4.09886e-005
4.09889e-005
4.09891e-005
4.09894e-005
4.09897e-005
4.099e-005
4.09903e-005
4.09905e-005
4.09908e-005
4.09911e-005
4.09914e-005
4.09918e-005
4.09921e-005
4.09924e-005
4.09927e-005
4.09931e-005
4.09935e-005
4.09938e-005
4.09942e-005
4.09946e-005
4.0995e-005
4.09954e-005
4.09958e-005
4.09962e-005
4.09966e-005
4.0997e-005
4.09975e-005
4.09979e-005
4.09984e-005
4.09988e-005
4.09992e-005
4.09997e-005
4.10002e-005
4.10007e-005
4.10012e-005
4.10017e-005
4.10022e-005
4.10027e-005
4.10031e-005
4.10036e-005
4.10041e-005
4.10046e-005
4.10051e-005
4.10056e-005
4.10061e-005
4.10066e-005
4.10071e-005
4.10076e-005
4.10081e-005
4.10086e-005
4.10091e-005
4.10096e-005
4.10101e-005
4.10106e-005
4.10111e-005
4.10116e-005
4.1012e-005
4.10125e-005
4.10128e-005
4.10132e-005
4.10135e-005
4.10139e-005
4.10142e-005
4.10145e-005
4.10149e-005
4.10152e-005
4.10154e-005
4.10157e-005
4.1016e-005
4.10162e-005
4.10165e-005
4.10167e-005
4.10169e-005
4.10171e-005
4.10173e-005
4.10174e-005
4.10176e-005
4.10177e-005
4.10178e-005
4.1018e-005
4.10181e-005
4.10181e-005
4.10182e-005
4.10183e-005
4.10183e-005
4.10183e-005
4.10183e-005
4.10183e-005
4.10183e-005
4.10182e-005
4.10181e-005
4.10179e-005
4.10177e-005
4.10175e-005
4.10172e-005
4.10169e-005
4.10165e-005
4.10161e-005
4.10156e-005
4.10151e-005
4.10146e-005
4.10141e-005
4.10137e-005
4.10132e-005
4.10128e-005
4.10124e-005
4.1012e-005
4.10116e-005
4.10112e-005
4.10107e-005
4.10105e-005
4.10104e-005
4.10103e-005
4.10103e-005
4.10102e-005
4.10102e-005
4.10104e-005
4.10107e-005
4.10111e-005
4.10117e-005
4.10123e-005
4.10129e-005
4.10135e-005
4.1014e-005
4.10146e-005
4.10148e-005
4.10154e-005
4.10155e-005
4.10163e-005
4.10172e-005
4.10176e-005
4.10215e-005
4.10191e-005
4.10272e-005
4.10517e-005
4.02873e-005
4.21011e-005
3.3858e-006
3.38603e-006
3.38623e-006
3.38642e-006
3.3866e-006
3.38678e-006
3.38695e-006
3.38711e-006
3.38727e-006
3.38742e-006
3.38757e-006
3.38772e-006
3.38786e-006
3.388e-006
3.38814e-006
3.38828e-006
3.38842e-006
3.38855e-006
3.38869e-006
3.38882e-006
3.38895e-006
3.38908e-006
3.38921e-006
3.38935e-006
3.38948e-006
3.38961e-006
3.38974e-006
3.38987e-006
3.39e-006
3.39013e-006
3.39026e-006
3.39039e-006
3.39052e-006
3.39066e-006
3.39078e-006
3.39091e-006
3.39104e-006
3.39117e-006
3.3913e-006
3.39143e-006
3.39156e-006
3.39169e-006
3.39182e-006
3.39195e-006
3.39208e-006
3.39222e-006
3.39235e-006
3.39248e-006
3.3926e-006
3.39273e-006
3.39286e-006
3.39299e-006
3.39311e-006
3.39323e-006
3.39335e-006
3.39347e-006
3.39358e-006
3.39369e-006
3.3938e-006
3.39391e-006
3.39401e-006
3.39411e-006
3.3942e-006
3.3943e-006
3.3944e-006
3.3945e-006
3.39459e-006
3.39468e-006
3.39477e-006
3.39486e-006
3.39495e-006
3.39503e-006
3.39511e-006
3.39519e-006
3.39527e-006
3.39534e-006
3.39541e-006
3.39548e-006
3.39554e-006
3.3956e-006
3.39566e-006
3.39571e-006
3.39576e-006
3.39581e-006
3.39586e-006
3.3959e-006
3.39594e-006
3.39597e-006
3.39601e-006
3.39604e-006
3.39608e-006
3.39612e-006
3.39615e-006
3.39617e-006
3.39619e-006
3.39621e-006
3.39621e-006
3.39621e-006
3.3962e-006
3.39618e-006
3.39616e-006
3.39612e-006
3.39608e-006
3.39604e-006
3.39599e-006
3.39594e-006
3.39588e-006
3.39581e-006
3.39574e-006
3.39567e-006
3.39559e-006
3.39552e-006
3.39546e-006
3.39543e-006
3.3954e-006
3.39537e-006
3.39535e-006
3.39533e-006
3.39531e-006
3.3953e-006
3.39528e-006
3.39526e-006
3.39524e-006
3.3952e-006
3.39516e-006
3.39508e-006
3.39498e-006
3.39491e-006
3.3947e-006
3.39478e-006
3.39439e-006
3.39464e-006
3.39407e-006
3.39482e-006
3.39963e-006
3.39288e-006
3.03941e-006
1.18349e-005
0.00196294
5.08341e-007
5.08423e-007
5.08495e-007
5.08563e-007
5.08627e-007
5.08691e-007
5.08752e-007
5.08812e-007
5.08871e-007
5.0893e-007
5.08989e-007
5.09049e-007
5.09108e-007
5.09167e-007
5.09228e-007
5.09289e-007
5.0935e-007
5.09412e-007
5.09475e-007
5.09539e-007
5.09604e-007
5.09669e-007
5.09735e-007
5.09801e-007
5.09868e-007
5.09935e-007
5.10003e-007
5.10072e-007
5.10141e-007
5.1021e-007
5.1028e-007
5.1035e-007
5.10421e-007
5.10492e-007
5.10564e-007
5.10636e-007
5.10707e-007
5.10779e-007
5.10851e-007
5.10922e-007
5.10993e-007
5.11063e-007
5.11133e-007
5.11203e-007
5.11273e-007
5.11342e-007
5.11411e-007
5.11479e-007
5.11548e-007
5.11615e-007
5.11682e-007
5.11748e-007
5.11813e-007
5.11878e-007
5.11942e-007
5.12006e-007
5.12069e-007
5.12131e-007
5.12193e-007
5.12255e-007
5.12317e-007
5.12378e-007
5.12437e-007
5.12496e-007
5.12555e-007
5.12612e-007
5.12669e-007
5.12724e-007
5.12778e-007
5.12832e-007
5.12884e-007
5.12936e-007
5.12987e-007
5.13036e-007
5.13085e-007
5.13132e-007
5.13179e-007
5.13224e-007
5.13269e-007
5.13312e-007
5.13354e-007
5.13395e-007
5.13435e-007
5.13475e-007
5.13512e-007
5.13547e-007
5.13581e-007
5.13613e-007
5.13644e-007
5.13674e-007
5.13704e-007
5.13733e-007
5.13762e-007
5.13789e-007
5.13816e-007
5.13841e-007
5.13866e-007
5.13889e-007
5.1391e-007
5.1393e-007
5.13947e-007
5.13963e-007
5.13977e-007
5.13989e-007
5.14e-007
5.14008e-007
5.14014e-007
5.14018e-007
5.14018e-007
5.14016e-007
5.14012e-007
5.14006e-007
5.13999e-007
5.13988e-007
5.13974e-007
5.13958e-007
5.13938e-007
5.13918e-007
5.13894e-007
5.13867e-007
5.13837e-007
5.13802e-007
5.13763e-007
5.13716e-007
5.13656e-007
5.13596e-007
5.13495e-007
5.13445e-007
5.13301e-007
5.13252e-007
5.13194e-007
5.12956e-007
5.13214e-007
5.11456e-007
4.70966e-007
5.00601e-007
7.8963e-006
0.00128248
0.0470023
1.60156e-007
1.6011e-007
1.60105e-007
1.60101e-007
1.60096e-007
1.6009e-007
1.60082e-007
1.60073e-007
1.60062e-007
1.6005e-007
1.60037e-007
1.60024e-007
1.60009e-007
1.59994e-007
1.59977e-007
1.5996e-007
1.59943e-007
1.59925e-007
1.59907e-007
1.59887e-007
1.59865e-007
1.59845e-007
1.59825e-007
1.59804e-007
1.59782e-007
1.59761e-007
1.5974e-007
1.59718e-007
1.59697e-007
1.59675e-007
1.59653e-007
1.59631e-007
1.59609e-007
1.59587e-007
1.59563e-007
1.59541e-007
1.59519e-007
1.59496e-007
1.59475e-007
1.59452e-007
1.5943e-007
1.59409e-007
1.59387e-007
1.59365e-007
1.59344e-007
1.59324e-007
1.59302e-007
1.59281e-007
1.59259e-007
1.59238e-007
1.59218e-007
1.59198e-007
1.59178e-007
1.59159e-007
1.5914e-007
1.59121e-007
1.59102e-007
1.59084e-007
1.59066e-007
1.59049e-007
1.59031e-007
1.59014e-007
1.58999e-007
1.58982e-007
1.58963e-007
1.58948e-007
1.58932e-007
1.58916e-007
1.589e-007
1.58885e-007
1.5887e-007
1.58855e-007
1.5884e-007
1.58826e-007
1.58812e-007
1.58798e-007
1.58785e-007
1.58772e-007
1.58759e-007
1.58747e-007
1.58734e-007
1.58722e-007
1.58709e-007
1.58696e-007
1.58684e-007
1.58673e-007
1.58662e-007
1.58651e-007
1.5864e-007
1.58629e-007
1.58619e-007
1.58608e-007
1.58598e-007
1.58588e-007
1.58579e-007
1.58569e-007
1.58559e-007
1.5855e-007
1.58541e-007
1.58532e-007
1.58524e-007
1.58515e-007
1.58507e-007
1.58498e-007
1.5849e-007
1.58482e-007
1.58473e-007
1.58465e-007
1.58456e-007
1.58448e-007
1.58439e-007
1.5843e-007
1.58421e-007
1.58411e-007
1.584e-007
1.58388e-007
1.58376e-007
1.58362e-007
1.58348e-007
1.58334e-007
1.5832e-007
1.58305e-007
1.58287e-007
1.58272e-007
1.58252e-007
1.58243e-007
1.58214e-007
1.5821e-007
1.58172e-007
1.58172e-007
1.58136e-007
1.58109e-007
1.58192e-007
1.63508e-007
3.36843e-007
1.09393e-005
0.000931857
0.0292923
0.240263
1.82769e-007
1.82609e-007
1.82551e-007
1.82503e-007
1.82454e-007
1.82398e-007
1.82338e-007
1.82274e-007
1.82205e-007
1.82133e-007
1.82055e-007
1.81975e-007
1.81891e-007
1.81804e-007
1.81713e-007
1.8162e-007
1.81523e-007
1.81426e-007
1.81325e-007
1.8122e-007
1.81112e-007
1.81005e-007
1.80895e-007
1.80784e-007
1.80672e-007
1.8056e-007
1.80445e-007
1.80332e-007
1.80217e-007
1.801e-007
1.79983e-007
1.79867e-007
1.79749e-007
1.79631e-007
1.79511e-007
1.79392e-007
1.79276e-007
1.79157e-007
1.79041e-007
1.78924e-007
1.78806e-007
1.78691e-007
1.78576e-007
1.78462e-007
1.78349e-007
1.78238e-007
1.78126e-007
1.78015e-007
1.77902e-007
1.77794e-007
1.77686e-007
1.77579e-007
1.77474e-007
1.7737e-007
1.77267e-007
1.77167e-007
1.77067e-007