/*--------------------------------*- C++ -*----------------------------------*\
| =========                 |                                                 |
| \\      /  F ield         | OpenFOAM: The Open Source CFD Toolbox           |
|  \\    /   O peration     | Version:  5.x                                   |
|   \\  /    A nd           | Web:      www.OpenFOAM.org                      |
|    \\/     M anipulation  |                                                 |
\*---------------------------------------------------------------------------*/
/*   Windows 32 and 64 bit porting by blueCAPE: http://www.bluecape.com.pt   *\
|  Based on Windows porting (2.0.x v4) by Symscape: http://www.symscape.com   |
\*---------------------------------------------------------------------------*/
FoamFile
{
    version     2.0;
    format      ascii;
    class       volScalarField;
    location    "100";
    object      nut;
}
// * * * * * * * * * * * * * * * * * * * * * * * * * * * * * * * * * * * * * //

dimensions      [0 2 -1 0 0 0 0];

internalField   nonuniform List<scalar> 
43900
(
5.90235e-005
5.8045e-005
5.8067e-005
5.80632e-005
5.80586e-005
5.80589e-005
5.80585e-005
5.80595e-005
5.80595e-005
5.80598e-005
5.80599e-005
5.80599e-005
5.806e-005
5.80601e-005
5.80602e-005
5.80602e-005
5.80603e-005
5.80603e-005
5.80603e-005
5.80603e-005
5.80604e-005
5.80604e-005
5.80604e-005
5.80604e-005
5.80604e-005
5.80604e-005
5.80604e-005
5.80604e-005
5.80604e-005
0.000126802
5.21e-006
4.28463e-006
4.24692e-006
4.60275e-006
4.60839e-006
4.60314e-006
4.60455e-006
4.60471e-006
4.6054e-006
4.60569e-006
4.60597e-006
4.60622e-006
4.60643e-006
4.60661e-006
4.60677e-006
4.6069e-006
4.60701e-006
4.6071e-006
4.60717e-006
4.60722e-006
4.60725e-006
4.60729e-006
4.60733e-006
4.60736e-006
4.6074e-006
4.60743e-006
4.60746e-006
4.60746e-006
0.129126
0.0309618
0.00193059
2.10076e-005
7.26652e-007
6.0749e-007
7.1495e-007
7.25245e-007
7.2393e-007
7.23821e-007
7.24015e-007
7.24215e-007
7.24394e-007
7.24548e-007
7.24684e-007
7.24802e-007
7.24907e-007
7.24998e-007
7.25079e-007
7.25152e-007
7.25217e-007
7.25277e-007
7.25332e-007
7.25383e-007
7.25431e-007
7.25477e-007
7.25517e-007
7.25557e-007
7.25588e-007
0.411565
0.228434
0.085079
0.0143387
0.000641645
9.75329e-006
2.88378e-007
1.69878e-007
1.92554e-007
1.97984e-007
1.98279e-007
1.98348e-007
1.98418e-007
1.9848e-007
1.98536e-007
1.98588e-007
1.98637e-007
1.98679e-007
1.98721e-007
1.9875e-007
1.9879e-007
1.98827e-007
1.98861e-007
1.98888e-007
1.98921e-007
1.98945e-007
1.9899e-007
1.99017e-007
1.99043e-007
0.682162
0.50411
0.329837
0.160573
0.0465146
0.004798
0.000158106
2.7316e-006
1.82376e-007
1.2216e-007
1.1945e-007
1.19396e-007
1.1938e-007
1.19377e-007
1.19399e-007
1.19421e-007
1.19439e-007
1.19464e-007
1.19488e-007
1.19539e-007
1.19553e-007
1.19561e-007
1.19572e-007
1.19606e-007
1.19606e-007
1.19617e-007
1.19553e-007
1.19548e-007
1.19542e-007
0.881739
0.711472
0.552105
0.396927
0.235867
0.0880436
0.0135399
0.000539621
1.13129e-005
4.31748e-007
2.95502e-007
2.9347e-007
2.93471e-007
2.93473e-007
2.93497e-007
2.93571e-007
2.93633e-007
2.93706e-007
2.93784e-007
2.93946e-007
2.94315e-007
2.9419e-007
2.94273e-007
2.94221e-007
2.94209e-007
2.94328e-007
2.93867e-007
2.93866e-007
2.93859e-007
1.01139
0.846381
0.694568
0.549197
0.404629
0.257888
0.102681
0.0145823
0.000453467
9.4707e-006
2.09925e-006
1.99239e-006
1.99196e-006
1.99212e-006
1.99312e-006
1.99438e-006
1.9952e-006
1.99568e-006
1.99652e-006
1.9983e-006
2.00011e-006
1.99962e-006
2.00501e-006
2.00091e-006
2.00081e-006
2.0037e-006
1.99488e-006
1.99483e-006
1.99474e-006
1.09803
0.935435
0.787034
0.646728
0.509539
0.371777
0.231272
0.08075
0.00712918
0.000142344
1.80005e-005
1.65491e-005
1.65417e-005
1.65443e-005
1.65566e-005
1.65809e-005
1.65761e-005
1.65799e-005
1.65897e-005
1.6596e-005
1.65959e-005
1.65896e-005
1.6653e-005
1.6591e-005
1.65904e-005
1.66214e-005
1.65466e-005
1.65219e-005
1.65209e-005
1.11928
0.962448
0.81982
0.685719
0.555504
0.425343
0.29224
0.151871
0.0291296
0.000964317
9.25502e-005
8.41511e-005
8.41104e-005
8.41183e-005
8.41663e-005
8.42817e-005
8.4291e-005
8.44829e-005
8.43965e-005
8.43904e-005
8.4378e-005
8.43408e-005
8.46112e-005
8.41778e-005
8.41382e-005
8.42593e-005
8.41186e-005
8.38559e-005
8.39581e-005
1.13238
0.974787
0.833631
0.702292
0.575288
0.448758
0.319691
0.185427
0.0513017
0.00291002
0.000332265
0.000305273
0.000305108
0.000305109
0.000305143
0.00030528
0.000305505
0.000305708
0.000305659
0.000305617
0.000305747
0.000305468
0.000306331
0.000305026
0.000304816
0.000304557
0.000304355
0.000304604
0.000304894
1.13526
0.980464
0.839108
0.707155
0.581079
0.45632
0.329575
0.197981
0.0614659
0.00427089
0.000595991
0.000555511
0.000555182
0.000555182
0.000555186
0.000555147
0.000555721
0.00055485
0.000554729
0.000554785
0.000554646
0.000554973
0.000555454
0.000554126
0.000553606
0.000553311
0.000553437
0.000553691
0.000553698
1.12875
0.976117
0.838151
0.708528
0.58258
0.457762
0.331427
0.200963
0.0647035
0.00487107
0.000761886
0.00071401
0.00071357
0.000713214
0.000713149
0.000713167
0.000713207
0.000713207
0.000712795
0.000712795
0.000713069
0.000713413
0.000712682
0.000711788
0.00071201
0.000711402
0.000712017
0.000711669
0.000711671
1.11793
0.966959
0.830454
0.703125
0.580227
0.457363
0.331551
0.201405
0.0655568
0.00517896
0.000859564
0.000804666
0.000804018
0.000803424
0.000803503
0.000803501
0.000804069
0.000803501
0.000803281
0.00080328
0.000803516
0.000803549
0.00080303
0.000802921
0.000802958
0.000802754
0.00080291
0.000802457
0.000802454
1.10493
0.955877
0.820982
0.694937
0.57332
0.452515
0.329275
0.200788
0.065602
0.00538552
0.000915508
0.000852573
0.000851621
0.000851418
0.000851744
0.00085155
0.000851526
0.000851268
0.000851363
0.000851363
0.00085166
0.000851146
0.000851021
0.000851021
0.000851004
0.000850952
0.000851229
0.000850696
0.000850562
1.09063
0.943645
0.810531
0.686017
0.565729
0.44606
0.324047
0.197722
0.0647721
0.00541254
0.000946579
0.000876817
0.00087569
0.000875686
0.000875548
0.000875425
0.00087548
0.000875145
0.000875169
0.00087522
0.000875904
0.000875179
0.000875253
0.000875033
0.000875122
0.000875102
0.000875197
0.000874816
0.000875109
1.0753
0.930558
0.799383
0.676564
0.557768
0.439435
0.318625
0.193164
0.0623395
0.00532191
0.000963792
0.000888665
0.000887446
0.000887192
0.000886995
0.000886957
0.000887147
0.000886977
0.000887173
0.000886856
0.000886983
0.000886796
0.000886951
0.000886574
0.000886572
0.000886546
0.000887121
0.000886853
0.000886698
1.05896
0.916648
0.787584
0.666623
0.549484
0.432658
0.313243
0.18896
0.0601095
0.00522312
0.000976317
0.000894319
0.00089245
0.000892371
0.000892514
0.000892143
0.000892341
0.00089246
0.000892412
0.000892364
0.000892735
0.000892358
0.000892507
0.000892493
0.000892164
0.000892358
0.000891944
0.000891954
0.000892292
1.04154
0.901855
0.775087
0.656152
0.540832
0.425678
0.307833
0.184927
0.0582415
0.00521989
0.000989581
0.000897717
0.000895626
0.000895598
0.000895351
0.000895295
0.000895737
0.000895531
0.00089558
0.000894901
0.000894908
0.000895015
0.000895033
0.000895045
0.000895205
0.000894743
0.000895064
0.000895554
0.000895215
1.02294
0.886111
0.761832
0.645099
0.53176
0.418436
0.302327
0.180963
0.0566011
0.00527176
0.00100458
0.000899277
0.000896596
0.000896435
0.000896406
0.000896535
0.000896642
0.000896801
0.000896834
0.000896581
0.000896802
0.000896429
0.000896599
0.000896615
0.000896796
0.000896423
0.000896414
0.000896608
0.000896547
1.0031
0.869358
0.747768
0.633418
0.522231
0.410901
0.296691
0.177023
0.0551539
0.00536653
0.00102309
0.000901646
0.00089798
0.00089786
0.000898124
0.000897514
0.00089779
0.000897742
0.000897786
0.000897561
0.000897889
0.000897518
0.000897651
0.000897689
0.000897427
0.000897839
0.000897581
0.000897501
0.000897703
0.981972
0.851545
0.732852
0.621074
0.512211
0.40304
0.290899
0.1731
0.053851
0.00550754
0.0010469
0.000903296
0.000898879
0.00089883
0.000899094
0.000898622
0.000898583
0.000898684
0.000898441
0.000898475
0.000898515
0.000898508
0.000898496
0.000898193
0.00089853
0.000898588
0.000898206
0.000898837
0.000898549
0.959493
0.832629
0.717049
0.608035
0.501679
0.394847
0.284951
0.16917
0.0527589
0.00569689
0.00107603
0.000906038
0.00090006
0.000900107
0.000899719
0.000899856
0.000900142
0.000899476
0.000899774
0.000899257
0.000899262
0.000899868
0.000899142
0.000899186
0.000899557
0.000899208
0.000899465
0.000899597
0.000899353
0.93563
0.812578
0.700327
0.594275
0.490607
0.386282
0.278807
0.165267
0.0517415
0.00592972
0.00111485
0.00090887
0.000901302
0.000900841
0.000901302
0.000900955
0.000900874
0.000901156
0.000900779
0.000900502
0.000900936
0.000900526
0.000900398
0.00090071
0.000900294
0.000900538
0.000900577
0.000900257
0.000900722
0.910349
0.791356
0.682652
0.579758
0.478965
0.37734
0.272477
0.161289
0.0509547
0.006227
0.00116136
0.000913647
0.000902758
0.000902738
0.000902252
0.000902032
0.000902756
0.00090239
0.000901869
0.000902376
0.000901905
0.000901833
0.000902322
0.000901602
0.000901832
0.000902153
0.000901441
0.000901826
0.000901637
0.883646
0.768953
0.664011
0.564471
0.466736
0.367971
0.265889
0.15735
0.0501936
0.00654205
0.00122332
0.000918223
0.000905615
0.000904101
0.000904007
0.000904525
0.000903945
0.000903632
0.000904452
0.000903706
0.000903248
0.000903836
0.000903267
0.000903672
0.000904088
0.00090312
0.000903285
0.000903146
0.000903183
0.855498
0.745347
0.644374
0.548377
0.453884
0.35819
0.2591
0.153269
0.0495832
0.00695048
0.00129731
0.000926698
0.000907441
0.000905668
0.000905799
0.000905806
0.000905794
0.000906517
0.000905697
0.00090518
0.00090616
0.000905269
0.000905636
0.000905588
0.000905047
0.000905534
0.000905271
0.000904761
0.000904564
0.825928
0.720532
0.623724
0.531449
0.440364
0.347868
0.251896
0.149113
0.049044
0.00735305
0.00139043
0.000934991
0.00091081
0.000909243
0.000908216
0.00090851
0.000908994
0.000907964
0.000907979
0.000908635
0.000907784
0.000908011
0.000907599
0.000907704
0.000907945
0.000907321
0.000907103
0.000907057
0.000907443
0.79496
0.694529
0.602066
0.513682
0.426179
0.3371
0.244492
0.144795
0.048464
0.00783604
0.00150357
0.000949416
0.000914324
0.000911665
0.000911915
0.000911418
0.000910947
0.000911565
0.00091104
0.000910499
0.000910943
0.000910517
0.000910693
0.000909881
0.00090993
0.000910181
0.000909799
0.000910151
0.00090929
0.762617
0.66733
0.579371
0.49503
0.411253
0.325693
0.236515
0.140225
0.0478852
0.00829092
0.00162955
0.000964998
0.000919031
0.000916322
0.000915016
0.000915552
0.000915492
0.000914169
0.000914753
0.000914689
0.00091372
0.000914247
0.000913325
0.000913869
0.000913387
0.000912427
0.000913175
0.00091228
0.000912516
0.728975
0.638979
0.555655
0.475478
0.395552
0.313684
0.228174
0.135367
0.0471122
0.00876994
0.00178618
0.000989008
0.000927062
0.000919685
0.000919958
0.000919037
0.000918712
0.000919767
0.000918105
0.000917954
0.000918563
0.00091747
0.000918026
0.000916972
0.000916937
0.000917362
0.000915826
0.000916191
0.00091567
0.694095
0.609512
0.530936
0.45504
0.379097
0.301025
0.219219
0.130097
0.0462325
0.00922316
0.0019463
0.00101744
0.000932077
0.000926344
0.000923532
0.000923596
0.000924562
0.000923072
0.000923815
0.000923237
0.000921753
0.000923004
0.000921793
0.000922061
0.000921644
0.000920312
0.000920744
0.000919698
0.00091978
0.658066
0.578974
0.505213
0.433661
0.361763
0.287587
0.20966
0.124405
0.045055
0.00960097
0.00212992
0.001053
0.000942072
0.000931675
0.000930823
0.000929751
0.000928258
0.000929872
0.000928291
0.000928026
0.000928452
0.000927308
0.000927881
0.000926441
0.000927014
0.00092651
0.000924886
0.000925386
0.000923844
0.621001
0.547439
0.478534
0.411384
0.343617
0.273426
0.1994
0.117977
0.0435039
0.0099249
0.00230766
0.00109712
0.000956203
0.000939755
0.000935592
0.000935744
0.000937029
0.000934849
0.000936312
0.000935746
0.000933742
0.000934238
0.000933336
0.000934061
0.000932029
0.000932305
0.000932069
0.000930013
0.000931327
0.583026
0.51499
0.45094
0.3882
0.324572
0.258389
0.188331
0.111224
0.041733
0.0100683
0.00249627
0.0011503
0.000966809
0.000946434
0.000946451
0.000944168
0.000942274
0.00094466
0.000943293
0.00094386
0.000942335
0.000939868
0.000940654
0.000940106
0.000941862
0.000940145
0.000939039
0.000938491
0.000935827
0.544288
0.481731
0.422498
0.364153
0.304693
0.242592
0.176549
0.103382
0.0392517
0.0100411
0.00264032
0.00120187
0.000984763
0.000960709
0.000953035
0.000953015
0.00095445
0.000951429
0.000951999
0.000951323
0.000953203
0.000951823
0.000947937
0.000948643
0.000947635
0.000949104
0.000947305
0.000945759
0.000945133
0.504955
0.447784
0.393292
0.339285
0.283934
0.225825
0.163623
0.0950955
0.0366368
0.00990351
0.00276819
0.00126877
0.00100588
0.000967235
0.000966419
0.000965498
0.000962072
0.000963901
0.000962785
0.000963089
0.000960867
0.000962731
0.000961776
0.000957396
0.000957769
0.000956521
0.000958224
0.000956489
0.000952386
0.465219
0.413298
0.363428
0.313673
0.262394
0.208335
0.15016
0.0859609
0.0332842
0.00958536
0.00285578
0.00131863
0.001025
0.000987294
0.00097515
0.000977249
0.000977097
0.000974406
0.00097463
0.000973837
0.000975637
0.000972943
0.000974291
0.000972829
0.000967546
0.000967417
0.0009663
0.00096976
0.000967817
0.425292
0.378444
0.333055
0.287451
0.240158
0.190014
0.135454
0.0762432
0.029794
0.00902333
0.00286266
0.00136921
0.00105929
0.000999037
0.000992487
0.000987669
0.000989668
0.000991036
0.000989381
0.000989107
0.000987547
0.000989864
0.000986051
0.00098781
0.000986541
0.000982222
0.000979769
0.000977343
0.000981277
0.385405
0.343419
0.302324
0.26071
0.217266
0.170964
0.120248
0.0659792
0.0258262
0.00830354
0.00283731
0.00140441
0.00107508
0.00102225
0.00100678
0.001008
0.00100596
0.00100544
0.00100633
0.00100585
0.0010058
0.00100354
0.00100597
0.00100099
0.00100129
0.000999473
0.000996923
0.000994231
0.000990396
0.345817
0.308446
0.271442
0.233678
0.193996
0.151409
0.104155
0.0556885
0.0220032
0.00743913
0.00275347
0.00143198
0.00110944
0.00103486
0.00102831
0.00102063
0.00102478
0.00102386
0.0010241
0.00102373
0.00102078
0.00102051
0.0010196
0.00102391
0.00101987
0.0010204
0.00101917
0.00101519
0.0010102
0.306806
0.273785
0.240651
0.206544
0.170427
0.131362
0.0879716
0.0454254
0.0180521
0.00650746
0.00261626
0.00144134
0.00112297
0.00105934
0.00104925
0.00104968
0.00104028
0.00104471
0.001043
0.001044
0.00104583
0.00104543
0.00104534
0.00104197
0.00104447
0.00103814
0.00103838
0.00103702
0.00103229
0.268671
0.239714
0.210208
0.179583
0.14695
0.111237
0.0716202
0.0359098
0.0145403
0.00555553
0.00243443
0.00143323
0.0011452
0.0010757
0.00106328
0.0010636
0.00106939
0.00106631
0.00107213
0.0010692
0.00106903
0.00106863
0.0010673
0.00106669
0.00106557
0.00106898
0.00106156
0.00106083
0.00105776
0.231732
0.20655
0.180444
0.153124
0.123717
0.0911376
0.0562507
0.0273359
0.0113271
0.00467975
0.00224065
0.00141461
0.00116391
0.00110366
0.00109345
0.0010923
0.00109359
0.0010969
0.00109183
0.00109754
0.00109473
0.00109645
0.00109709
0.00109635
0.00109429
0.00109179
0.00109585
0.0010892
0.00108966
0.196329
0.174634
0.151681
0.127467
0.101208
0.0719525
0.042105
0.0201481
0.00869445
0.00387611
0.00204029
0.0013848
0.00118124
0.00112492
0.00111311
0.00111088
0.00111202
0.00111469
0.0011253
0.00112553
0.00113309
0.00112688
0.00112819
0.00112921
0.00112905
0.0011281
0.00112506
0.0011264
0.00112084
0.162816
0.144332
0.12432
0.103108
0.0797298
0.0539587
0.0302639
0.0144405
0.00657462
0.00320231
0.0018593
0.00135607
0.00119206
0.00114654
0.0011384
0.00114354
0.00114539
0.0011463
0.00114809
0.00115253
0.00115579
0.00117264
0.00116777
0.00117015
0.00116873
0.00116758
0.0011661
0.00115891
0.00115805
0.131568
0.116045
0.098785
0.0803529
0.0599577
0.0385244
0.0208139
0.0101926
0.00496603
0.00266408
0.00169649
0.00133319
0.00120299
0.00116433
0.00116214
0.00116885
0.00117577
0.00117823
0.00118448
0.00119435
0.00119358
0.00119652
0.00121436
0.00121111
0.00121586
0.00121324
0.00121348
0.00121182
0.00120319
0.102977
0.0901927
0.0755246
0.0598585
0.0426219
0.026067
0.0140498
0.0071507
0.00378248
0.00224597
0.00158819
0.00131378
0.00120916
0.00118161
0.00118774
0.00119686
0.00120105
0.0012126
0.00121688
0.00122667
0.00124518
0.00124359
0.00124516
0.00126172
0.00125933
0.00126667
0.00126194
0.00126422
0.00126153
0.0774511
0.0672183
0.0550792
0.0421803
0.0286396
0.0170514
0.00933395
0.00510829
0.00297271
0.00195739
0.0014952
0.00130021
0.00122753
0.00121016
0.00122086
0.00123233
0.00123508
0.00123947
0.00124886
0.00125772
0.00127159
0.00129687
0.00130022
0.00130506
0.00132575
0.00132585
0.00133417
0.00132934
0.00133085
0.0554236
0.0475894
0.0380065
0.0280471
0.0184117
0.01098
0.00634381
0.00375534
0.00242907
0.00175772
0.00144114
0.0012996
0.00124682
0.00123676
0.00124971
0.00125771
0.00126095
0.00126873
0.00128635
0.00130101
0.00131634
0.00132871
0.00135235
0.00136648
0.00137229
0.00140084
0.00140091
0.00140978
0.00140336
0.0373327
0.0317634
0.0247677
0.0178357
0.0116143
0.00718096
0.00445309
0.00292416
0.00206988
0.00164231
0.00141461
0.00131225
0.00126975
0.00127257
0.00128283
0.00129164
0.00129506
0.00131004
0.00132314
0.00134441
0.0013549
0.00138389
0.00139928
0.00142836
0.00145188
0.00146618
0.0015107
0.00150788
0.00151882
0.0235307
0.020011
0.0154904
0.01109
0.00744544
0.00489531
0.0033204
0.00238545
0.00186949
0.00156469
0.00141511
0.0013425
0.00131406
0.0013131
0.00131726
0.00132095
0.00133086
0.00133872
0.0013622
0.00137396
0.00140218
0.00140859
0.00144842
0.0014711
0.00151697
0.00154936
0.00157237
0.00162985
0.00161504
0.0140063
0.0121408
0.00953118
0.00702198
0.0049624
0.00353301
0.00263378
0.0020601
0.00173048
0.00153419
0.00143656
0.00137564
0.00135483
0.00135228
0.00135499
0.00135868
0.0013678
0.00139011
0.00140284
0.0014305
0.00144479
0.00147672
0.00149062
0.00153365
0.00156471
0.00162496
0.00168162
0.00172237
0.00182097
0.00812622
0.00732957
0.00598023
0.00462282
0.00350274
0.00273988
0.00220014
0.00186616
0.00166169
0.00152182
0.00145982
0.00139974
0.00139579
0.00138851
0.00139881
0.00140128
0.00141303
0.00142376
0.00144617
0.00146149
0.0014986
0.00151907
0.00157683
0.00159397
0.00164055
0.00167386
0.00176666
0.00180769
0.00185921
0.00480104
0.00455328
0.00390939
0.00322445
0.00264539
0.0022193
0.00191956
0.00174064
0.00161946
0.00151971
0.00147033
0.00145074
0.00144238
0.00144114
0.00144577
0.00144377
0.00144638
0.00145321
0.00147215
0.00148119
0.00150536
0.00150817
0.0015355
0.00151607
0.00151847
0.00147968
0.0014948
0.00155249
0.00163711
0.00300591
0.00297557
0.00271274
0.00237729
0.00212525
0.00187526
0.00176574
0.00163625
0.00158677
0.00151084
0.00147949
0.00145687
0.00145561
0.00144818
0.0014363
0.00140845
0.00135014
0.00122414
0.00117466
0.00123424
0.00157596
0.00199529
0.00274034
0.00348814
0.00440906
0.0049826
0.00562314
0.00479273
0.00412003
0.00203721
0.00206978
0.00201513
0.00186602
0.00179278
0.00164821
0.00158953
0.00152032
0.00150735
0.00148404
0.00144422
0.00135528
0.00123934
0.00126154
0.00175217
0.00253731
0.00453194
0.00641455
0.0102685
0.0137452
0.0189236
0.0240201
0.0295095
0.0357587
0.0401688
0.0465435
0.0477614
0.0499657
0.0438188
0.00152465
0.0015733
0.00156558
0.00154685
0.00153859
0.00151914
0.00150184
0.00143452
0.00134238
0.00144391
0.00228257
0.00369553
0.00701976
0.0100403
0.0162837
0.0223057
0.0306292
0.0387407
0.0484234
0.05808
0.0687585
0.0803775
0.0910525
0.105268
0.114352
0.132141
0.137684
0.160732
0.14354
0.0012564
0.00131375
0.00140552
0.00148774
0.00195804
0.00188689
0.0026685
0.00335951
0.00540779
0.00909832
0.0157329
0.0219318
0.0301649
0.0385137
0.0486937
0.0592277
0.0708315
0.0829865
0.0957753
0.10976
0.123888
0.140568
0.155716
0.176495
0.19166
0.220115
0.232039
0.278907
0.268285
0.00118836
0.0013653
0.00172488
0.00239521
0.0057492
0.00659361
0.0109233
0.0136302
0.0200163
0.0282363
0.0369626
0.0465185
0.0569809
0.0683243
0.080706
0.0938978
0.107799
0.122829
0.138422
0.15584
0.173426
0.194292
0.213972
0.240251
0.261757
0.29833
0.320334
0.377868
0.378071
5.80604e-005
5.80604e-005
5.80604e-005
5.80604e-005
5.80605e-005
5.80605e-005
5.80605e-005
5.80605e-005
5.80605e-005
5.80605e-005
5.80605e-005
5.80605e-005
5.80605e-005
5.80605e-005
5.80606e-005
5.80606e-005
5.80606e-005
5.80606e-005
5.80606e-005
5.80606e-005
5.80606e-005
5.80607e-005
5.80607e-005
5.80607e-005
5.80607e-005
5.80607e-005
5.80608e-005
5.80608e-005
5.80608e-005
5.80608e-005
5.80608e-005
5.80609e-005
5.80609e-005
5.80609e-005
5.80609e-005
5.80609e-005
5.8061e-005
5.8061e-005
5.8061e-005
5.8061e-005
5.80611e-005
5.80611e-005
5.80611e-005
5.80611e-005
5.80612e-005
5.80612e-005
5.80612e-005
5.80612e-005
5.80612e-005
5.80613e-005
5.80613e-005
5.80613e-005
5.80613e-005
5.80614e-005
5.80614e-005
5.80614e-005
5.80614e-005
5.80615e-005
5.80615e-005
5.80615e-005
5.80615e-005
5.80615e-005
5.80616e-005
5.80616e-005
5.80616e-005
5.80616e-005
5.80616e-005
5.80616e-005
5.80616e-005
5.80617e-005
5.80617e-005
5.80617e-005
5.80617e-005
5.80617e-005
5.80617e-005
5.80617e-005
5.80617e-005
5.80617e-005
5.80617e-005
5.80617e-005
5.80618e-005
5.80618e-005
5.80618e-005
5.80618e-005
5.80618e-005
5.80618e-005
5.80618e-005
5.80618e-005
5.80618e-005
5.80618e-005
5.80618e-005
5.80618e-005
5.80618e-005
5.80617e-005
5.80617e-005
5.80617e-005
5.80617e-005
5.80617e-005
5.80617e-005
5.80616e-005
5.80616e-005
5.80616e-005
5.80616e-005
5.80615e-005
5.80615e-005
5.80615e-005
5.80615e-005
5.80615e-005
5.80614e-005
5.80614e-005
5.80614e-005
5.80614e-005
5.80614e-005
5.80614e-005
5.80614e-005
5.80613e-005
5.80613e-005
5.80613e-005
5.80614e-005
5.80614e-005
5.80614e-005
5.80614e-005
5.80615e-005
5.80615e-005
5.80615e-005
5.80616e-005
5.80616e-005
5.80616e-005
5.80616e-005
5.80616e-005
5.80617e-005
5.80617e-005
5.80618e-005
5.8062e-005
5.80619e-005
5.80623e-005
5.8062e-005
5.80652e-005
5.93277e-005
4.6075e-006
4.60756e-006
4.6076e-006
4.60764e-006
4.60767e-006
4.60771e-006
4.60774e-006
4.60778e-006
4.60781e-006
4.60785e-006
4.60789e-006
4.60792e-006
4.60796e-006
4.608e-006
4.60804e-006
4.60808e-006
4.60812e-006
4.60816e-006
4.6082e-006
4.60825e-006
4.60829e-006
4.60834e-006
4.60838e-006
4.60843e-006
4.60848e-006
4.60852e-006
4.60857e-006
4.60862e-006
4.60867e-006
4.60872e-006
4.60878e-006
4.60883e-006
4.60888e-006
4.60893e-006
4.60898e-006
4.60904e-006
4.6091e-006
4.60915e-006
4.60921e-006
4.60927e-006
4.60932e-006
4.60938e-006
4.60944e-006
4.60949e-006
4.60955e-006
4.60961e-006
4.60966e-006
4.60972e-006
4.60978e-006
4.60983e-006
4.60989e-006
4.60995e-006
4.61e-006
4.61006e-006
4.61012e-006
4.61017e-006
4.61023e-006
4.61028e-006
4.61034e-006
4.61039e-006
4.61043e-006
4.61047e-006
4.61051e-006
4.61055e-006
4.61059e-006
4.61063e-006
4.61066e-006
4.6107e-006
4.61073e-006
4.61076e-006
4.61079e-006
4.61082e-006
4.61085e-006
4.61087e-006
4.6109e-006
4.61092e-006
4.61094e-006
4.61096e-006
4.61097e-006
4.61099e-006
4.611e-006
4.61102e-006
4.61103e-006
4.61104e-006
4.61105e-006
4.61105e-006
4.61106e-006
4.61106e-006
4.61106e-006
4.61106e-006
4.61106e-006
4.61105e-006
4.61104e-006
4.61102e-006
4.611e-006
4.61097e-006
4.61094e-006
4.6109e-006
4.61086e-006
4.61081e-006
4.61076e-006
4.61071e-006
4.61065e-006
4.6106e-006
4.61055e-006
4.6105e-006
4.61045e-006
4.61041e-006
4.61036e-006
4.61031e-006
4.61026e-006
4.61021e-006
4.61019e-006
4.61018e-006
4.61017e-006
4.61016e-006
4.61016e-006
4.61016e-006
4.61018e-006
4.61021e-006
4.61026e-006
4.61032e-006
4.61039e-006
4.61046e-006
4.61053e-006
4.61058e-006
4.61064e-006
4.61067e-006
4.61073e-006
4.61075e-006
4.61082e-006
4.61093e-006
4.61095e-006
4.61139e-006
4.61109e-006
4.61203e-006
4.61621e-006
4.49049e-006
4.72783e-006
7.25632e-007
7.25683e-007
7.25727e-007
7.25767e-007
7.25807e-007
7.25845e-007
7.25881e-007
7.25917e-007
7.25951e-007
7.25984e-007
7.26017e-007
7.26049e-007
7.2608e-007
7.2611e-007
7.2614e-007
7.2617e-007
7.26199e-007
7.26228e-007
7.26257e-007
7.26286e-007
7.26314e-007
7.26343e-007
7.26371e-007
7.264e-007
7.26428e-007
7.26457e-007
7.26485e-007
7.26513e-007
7.26542e-007
7.2657e-007
7.26598e-007
7.26627e-007
7.26655e-007
7.26683e-007
7.26711e-007
7.26739e-007
7.26766e-007
7.26794e-007
7.26822e-007
7.2685e-007
7.26879e-007
7.26907e-007
7.26935e-007
7.26963e-007
7.26991e-007
7.27019e-007
7.27047e-007
7.27075e-007
7.27103e-007
7.2713e-007
7.27157e-007
7.27184e-007
7.2721e-007
7.27236e-007
7.27262e-007
7.27287e-007
7.27311e-007
7.27335e-007
7.27358e-007
7.27381e-007
7.27403e-007
7.27424e-007
7.27445e-007
7.27467e-007
7.27488e-007
7.27509e-007
7.27529e-007
7.27549e-007
7.27569e-007
7.27588e-007
7.27606e-007
7.27625e-007
7.27642e-007
7.27659e-007
7.27676e-007
7.27692e-007
7.27707e-007
7.27721e-007
7.27735e-007
7.27748e-007
7.27761e-007
7.27773e-007
7.27784e-007
7.27795e-007
7.27805e-007
7.27814e-007
7.27822e-007
7.2783e-007
7.27837e-007
7.27845e-007
7.27853e-007
7.2786e-007
7.27867e-007
7.27873e-007
7.27878e-007
7.27881e-007
7.27884e-007
7.27885e-007
7.27884e-007
7.27881e-007
7.27877e-007
7.27871e-007
7.27863e-007
7.27855e-007
7.27846e-007
7.27836e-007
7.27824e-007
7.27812e-007
7.27798e-007
7.27783e-007
7.27767e-007
7.27752e-007
7.27741e-007
7.27734e-007
7.27727e-007
7.27721e-007
7.27716e-007
7.27711e-007
7.27706e-007
7.27702e-007
7.27698e-007
7.27694e-007
7.27688e-007
7.27679e-007
7.27667e-007
7.2765e-007
7.27626e-007
7.27611e-007
7.27561e-007
7.27577e-007
7.27495e-007
7.27537e-007
7.27433e-007
7.27578e-007
7.29185e-007
7.26946e-007
6.22553e-007
4.49648e-006
0.00129267
1.99066e-007
1.99102e-007
1.99132e-007
1.99161e-007
1.99188e-007
1.99215e-007
1.9924e-007
1.99266e-007
1.99292e-007
1.99317e-007
1.99342e-007
1.99368e-007
1.99394e-007
1.9942e-007
1.99446e-007
1.99472e-007
1.99499e-007
1.99526e-007
1.99554e-007
1.99582e-007
1.9961e-007
1.99639e-007
1.99667e-007
1.99697e-007
1.99726e-007
1.99755e-007
1.99785e-007
1.99815e-007
1.99845e-007
1.99876e-007
1.99907e-007
1.99937e-007
1.99968e-007
1.99999e-007
2.00031e-007
2.00063e-007
2.00094e-007
2.00126e-007
2.00157e-007
2.00188e-007
2.00219e-007
2.0025e-007
2.00281e-007
2.00312e-007
2.00343e-007
2.00373e-007
2.00403e-007
2.00433e-007
2.00464e-007
2.00494e-007
2.00523e-007
2.00552e-007
2.00581e-007
2.0061e-007
2.00638e-007
2.00666e-007
2.00694e-007
2.00722e-007
2.00749e-007
2.00776e-007
2.00804e-007
2.00831e-007
2.00857e-007
2.00883e-007
2.00909e-007
2.00934e-007
2.00959e-007
2.00984e-007
2.01008e-007
2.01032e-007
2.01055e-007
2.01078e-007
2.01101e-007
2.01123e-007
2.01145e-007
2.01166e-007
2.01187e-007
2.01207e-007
2.01227e-007
2.01246e-007
2.01265e-007
2.01284e-007
2.01302e-007
2.0132e-007
2.01337e-007
2.01353e-007
2.01369e-007
2.01384e-007
2.01398e-007
2.01412e-007
2.01426e-007
2.01439e-007
2.01452e-007
2.01464e-007
2.01476e-007
2.01488e-007
2.01499e-007
2.0151e-007
2.01521e-007
2.0153e-007
2.01539e-007
2.01547e-007
2.01554e-007
2.01561e-007
2.01567e-007
2.01571e-007
2.01576e-007
2.01579e-007
2.0158e-007
2.01581e-007
2.01581e-007
2.0158e-007
2.01578e-007
2.01574e-007
2.01569e-007
2.01563e-007
2.01556e-007
2.01548e-007
2.01539e-007
2.01529e-007
2.01517e-007
2.01504e-007
2.01489e-007
2.01471e-007
2.01447e-007
2.01424e-007
2.01385e-007
2.01363e-007
2.01309e-007
2.01283e-007
2.01267e-007
2.0116e-007
2.01273e-007
2.00263e-007
1.77031e-007
1.9949e-007
7.48743e-006
0.00142552
0.0328329
1.19556e-007
1.19487e-007
1.19471e-007
1.19454e-007
1.19438e-007
1.19419e-007
1.19398e-007
1.19377e-007
1.19353e-007
1.19329e-007
1.19302e-007
1.19275e-007
1.19247e-007
1.19218e-007
1.19188e-007
1.19156e-007
1.19124e-007
1.19092e-007
1.19058e-007
1.19022e-007
1.18985e-007
1.18949e-007
1.18913e-007
1.18875e-007
1.18838e-007
1.188e-007
1.18762e-007
1.18724e-007
1.18685e-007
1.18646e-007
1.18607e-007
1.18568e-007
1.18529e-007
1.18489e-007
1.18448e-007
1.18408e-007
1.18369e-007
1.18328e-007
1.18289e-007
1.18249e-007
1.18209e-007
1.1817e-007
1.18131e-007
1.18092e-007
1.18053e-007
1.18015e-007
1.17977e-007
1.17939e-007
1.17899e-007
1.17862e-007
1.17825e-007
1.17788e-007
1.17752e-007
1.17716e-007
1.1768e-007
1.17646e-007
1.17611e-007
1.17577e-007
1.17543e-007
1.17511e-007
1.17478e-007
1.17446e-007
1.17416e-007
1.17384e-007
1.17351e-007
1.17322e-007
1.17292e-007
1.17262e-007
1.17233e-007
1.17205e-007
1.17177e-007
1.17148e-007
1.17121e-007
1.17095e-007
1.17069e-007
1.17043e-007
1.17018e-007
1.16994e-007
1.16971e-007
1.16947e-007
1.16924e-007
1.16901e-007
1.16878e-007
1.16855e-007
1.16834e-007
1.16813e-007
1.16793e-007
1.16773e-007
1.16754e-007
1.16735e-007
1.16717e-007
1.16698e-007
1.16681e-007
1.16664e-007
1.16648e-007
1.16631e-007
1.16615e-007
1.166e-007
1.16585e-007
1.1657e-007
1.16557e-007
1.16543e-007
1.16531e-007
1.16519e-007
1.16507e-007
1.16495e-007
1.16484e-007
1.16473e-007
1.16463e-007
1.16453e-007
1.16444e-007
1.16435e-007
1.16426e-007
1.16418e-007
1.16409e-007
1.164e-007
1.16391e-007
1.16382e-007
1.16372e-007
1.16362e-007
1.16354e-007
1.16346e-007
1.16336e-007
1.16329e-007
1.16322e-007
1.16324e-007
1.16312e-007
1.16324e-007
1.16297e-007
1.16332e-007
1.16267e-007
1.16345e-007
1.16402e-007
1.27631e-007
3.66942e-007
2.00332e-005
0.00153499
0.0328241
0.168624
2.94035e-007
2.93682e-007
2.93564e-007
2.93467e-007
2.93372e-007
2.93263e-007
2.93146e-007
2.93022e-007
2.92889e-007
2.92749e-007
2.92602e-007
2.92448e-007
2.92287e-007
2.92122e-007
2.9195e-007
2.91773e-007
2.91588e-007
2.91406e-007
2.91216e-007
2.91018e-007
2.90813e-007
2.90612e-007
2.90405e-007
2.90196e-007
2.89985e-007
2.89773e-007
2.89558e-007
2.89345e-007
2.8913e-007
2.88911e-007
2.88691e-007
2.88473e-007
2.88252e-007
2.88029e-007
2.87804e-007
2.87581e-007
2.87365e-007
2.87143e-007
2.86925e-007
2.86706e-007
2.86486e-007
2.86271e-007
2.86055e-007
2.8584e-007
2.85629e-007
2.85421e-007
2.85212e-007
2.85005e-007
2.84793e-007
2.8459e-007
2.84388e-007
2.84188e-007
2.83991e-007
2.83796e-007
2.83603e-007
2.83417e-007
2.83229e-007
2.83045e-007
2.82863e-007
2.82685e-007
2.82509e-007
2.82335e-007
2.82168e-007
2.81998e-007
2.81826e-007
2.81667e-007
2.81506e-007
2.81347e-007
2.81191e-007
2.81038e-007
2.80888e-007
2.80738e-007
2.80592e-007
2.8045e-007
2.80311e-007
2.80173e-007
2.80039e-007
2.79907e-007
2.79782e-007
2.79656e-007
2.79532e-007
2.79409e-007
2.79289e-007
2.79167e-007
2.79052e-007
2.78941e-007
2.78833e-007
2.78727e-007
2.78623e-007
2.78522e-007
2.78422e-007
2.78325e-007
2.78232e-007