/*--------------------------------*- C++ -*----------------------------------*\
| =========                 |                                                 |
| \\      /  F ield         | OpenFOAM: The Open Source CFD Toolbox           |
|  \\    /   O peration     | Version:  5.x                                   |
|   \\  /    A nd           | Web:      www.OpenFOAM.org                      |
|    \\/     M anipulation  |                                                 |
\*---------------------------------------------------------------------------*/
/*   Windows 32 and 64 bit porting by blueCAPE: http://www.bluecape.com.pt   *\
|  Based on Windows porting (2.0.x v4) by Symscape: http://www.symscape.com   |
\*---------------------------------------------------------------------------*/
FoamFile
{
    version     2.0;
    format      ascii;
    class       volScalarField;
    location    "100";
    object      p;
}
// * * * * * * * * * * * * * * * * * * * * * * * * * * * * * * * * * * * * * //

dimensions      [0 2 -2 0 0 0 0];

internalField   nonuniform List<scalar> 
43900
(
0.440093
0.439928
0.439782
0.439644
0.439493
0.439231
0.43908
0.438781
0.438527
0.438248
0.437943
0.437639
0.437322
0.436995
0.436659
0.436315
0.435963
0.435605
0.43524
0.434868
0.434491
0.434108
0.43372
0.433327
0.43293
0.432528
0.432121
0.431711
0.431296
0.438703
0.445405
0.440389
0.44301
0.441063
0.441636
0.440934
0.440729
0.440391
0.439987
0.439643
0.439269
0.438892
0.438512
0.438129
0.437743
0.437353
0.43696
0.436564
0.436164
0.435761
0.435354
0.434945
0.434532
0.434116
0.433697
0.433276
0.432851
0.432423
0.433556
0.452533
0.441848
0.448325
0.442915
0.445606
0.443157
0.443561
0.442623
0.442201
0.441695
0.441188
0.440702
0.440225
0.439755
0.439291
0.438831
0.438374
0.43792
0.437467
0.437015
0.436564
0.436112
0.435661
0.435208
0.434754
0.434299
0.433842
0.433383
0.427115
0.452273
0.446037
0.446249
0.445488
0.445313
0.444054
0.444096
0.443193
0.442893
0.442326
0.441824
0.441328
0.440834
0.440343
0.439854
0.439368
0.438884
0.438401
0.437919
0.437439
0.436959
0.436478
0.435998
0.435516
0.435034
0.434551
0.434066
0.433579
0.42751
0.450504
0.4456
0.444805
0.444917
0.444592
0.444284
0.444067
0.443599
0.443319
0.442918
0.442537
0.442148
0.441748
0.44134
0.440924
0.440501
0.440071
0.439635
0.439194
0.438746
0.438294
0.437837
0.437375
0.436908
0.436437
0.435961
0.435481
0.434996
0.433116
0.449504
0.446557
0.446358
0.446329
0.445922
0.445731
0.445501
0.445237
0.445048
0.4448
0.444552
0.44429
0.444011
0.443716
0.443405
0.44308
0.44274
0.442386
0.442019
0.441638
0.441245
0.44084
0.440424
0.439997
0.439559
0.43911
0.438651
0.438183
0.439425
0.450484
0.448829
0.448499
0.448499
0.448374
0.448263
0.447983
0.447768
0.447612
0.447395
0.447177
0.446946
0.446697
0.446432
0.446152
0.445856
0.445545
0.445218
0.444876
0.444519
0.444147
0.443759
0.443358
0.442941
0.442511
0.442067
0.44161
0.44114
0.447037
0.452924
0.452213
0.451837
0.451681
0.45153
0.451331
0.451036
0.450777
0.45054
0.450296
0.450047
0.449784
0.449505
0.44921
0.448898
0.448571
0.448228
0.447868
0.447493
0.447102
0.446695
0.446272
0.445833
0.44538
0.44491
0.444426
0.443928
0.443414
0.455215
0.457654
0.457349
0.456974
0.456689
0.456414
0.45611
0.45578
0.455446
0.455139
0.454865
0.454584
0.454287
0.453969
0.453631
0.453274
0.452898
0.452503
0.45209
0.451658
0.451209
0.450741
0.450257
0.449754
0.449235
0.448699
0.448146
0.447577
0.446991
0.463233
0.464778
0.464529
0.464153
0.463824
0.463497
0.46314
0.46276
0.462398
0.462067
0.461793
0.461516
0.461211
0.460877
0.460517
0.460131
0.459719
0.459283
0.458822
0.458338
0.457831
0.457301
0.456749
0.456176
0.455581
0.454966
0.45433
0.453675
0.453001
0.472344
0.472941
0.472703
0.472353
0.472013
0.471656
0.471262
0.470837
0.470433
0.470084
0.469798
0.469505
0.469179
0.468821
0.46843
0.468008
0.467555
0.467071
0.466558
0.466016
0.465445
0.464846
0.464221
0.463569
0.462891
0.462187
0.461459
0.460707
0.459932
0.482124
0.482094
0.48178
0.481413
0.481033
0.480619
0.480153
0.479638
0.479134
0.478698
0.47833
0.477957
0.47755
0.47711
0.476635
0.476127
0.475585
0.475011
0.474404
0.473765
0.473094
0.472393
0.471662
0.4709
0.47011
0.469291
0.468444
0.46757
0.46667
0.492786
0.492507
0.492098
0.491674
0.491227
0.490737
0.490186
0.489575
0.488964
0.488427
0.487962
0.487491
0.486983
0.486436
0.485851
0.485228
0.484568
0.483871
0.483138
0.482369
0.481564
0.480725
0.479852
0.478946
0.478007
0.477036
0.476034
0.475001
0.473939
0.504587
0.504184
0.503708
0.503227
0.502714
0.502146
0.501509
0.500806
0.500101
0.499478
0.498929
0.49837
0.497766
0.497115
0.496419
0.495678
0.494893
0.494064
0.493193
0.49228
0.491326
0.490331
0.489297
0.488225
0.487116
0.485969
0.484788
0.483571
0.482321
0.517528
0.517055
0.516515
0.515972
0.51539
0.51474
0.51401
0.513203
0.512392
0.511674
0.511035
0.51038
0.509673
0.508911
0.508094
0.507225
0.506303
0.505331
0.504308
0.503236
0.502116
0.500949
0.499737
0.49848
0.497179
0.495836
0.494451
0.493027
0.491564
0.531606
0.531084
0.530474
0.529855
0.529188
0.528442
0.527601
0.526669
0.525728
0.524891
0.524137
0.523364
0.522529
0.521629
0.520668
0.519644
0.518561
0.517419
0.516217
0.514961
0.513647
0.51228
0.51086
0.509388
0.507868
0.506297
0.504682
0.50302
0.501314
0.546848
0.54628
0.545591
0.544883
0.544117
0.543259
0.542289
0.541212
0.540123
0.539143
0.538254
0.537339
0.53635
0.535291
0.534155
0.532952
0.531677
0.530333
0.528927
0.527447
0.525913
0.52431
0.522648
0.520933
0.519152
0.517325
0.51544
0.513504
0.511523
0.563256
0.562639
0.561864
0.561056
0.56018
0.559195
0.55808
0.556841
0.555582
0.554448
0.553403
0.552326
0.551168
0.549917
0.548592
0.547174
0.545682
0.544112
0.542456
0.54074
0.538932
0.537065
0.535131
0.533113
0.531054
0.528914
0.526719
0.524476
0.52216
0.580806
0.580137
0.579266
0.578349
0.57735
0.576224
0.574947
0.573524
0.572087
0.570759
0.569549
0.568292
0.566931
0.565481
0.563918
0.562277
0.560533
0.558697
0.556789
0.554754
0.552671
0.550498
0.548225
0.545921
0.543496
0.541021
0.5385
0.535873
0.533219
0.599451
0.598724
0.597748
0.59671
0.595575
0.594292
0.592835
0.591212
0.589546
0.588051
0.586627
0.585161
0.583589
0.581899
0.580106
0.578165
0.576138
0.574026
0.571763
0.569456
0.567041
0.564499
0.561919
0.559184
0.556412
0.553591
0.550619
0.54764
0.544571
0.619132
0.618345
0.617256
0.616087
0.614803
0.613349
0.61169
0.609837
0.60797
0.60619
0.604573
0.602891
0.601064
0.599108
0.596979
0.594764
0.592465
0.589965
0.587399
0.584706
0.581879
0.57903
0.575962
0.572866
0.569723
0.566368
0.563029
0.559592
0.556023
0.639771
0.638919
0.637708
0.636398
0.634951
0.633306
0.631432
0.629337
0.627159
0.625218
0.623331
0.621354
0.619271
0.61698
0.614571
0.612049
0.609315
0.606514
0.603522
0.600402
0.597273
0.593855
0.590416
0.586942
0.583172
0.579456
0.57564
0.571604
0.567629
0.66127
0.66035
0.659012
0.657551
0.655931
0.654085
0.651971
0.649607
0.647208
0.644896
0.642733
0.640571
0.638123
0.635498
0.63276
0.629807
0.626775
0.623488
0.620061
0.616643
0.612875
0.609068
0.605252
0.601031
0.596909
0.592706
0.58815
0.583734
0.579152
0.683516
0.682525
0.681053
0.679435
0.677631
0.675569
0.673207
0.670547
0.667784
0.665243
0.662851
0.660259
0.657481
0.654569
0.651394
0.648109
0.644539
0.640796
0.637141
0.632996
0.628757
0.624606
0.619929
0.615376
0.610804
0.605689
0.600786
0.595745
0.590393
0.706375
0.705308
0.7037
0.701918
0.699922
0.697631
0.694998
0.692049
0.689023
0.686085
0.683309
0.68046
0.67732
0.673958
0.670478
0.666648
0.66261
0.658689
0.654146
0.649446
0.645024
0.639896
0.634842
0.629866
0.624176
0.618787
0.613272
0.607289
0.601608
0.729677
0.728532
0.726787
0.72484
0.722652
0.720135
0.71724
0.713974
0.710531
0.707365
0.704232
0.700956
0.697472
0.693758
0.689668
0.685382
0.681096
0.676217
0.671208
0.666509
0.660885
0.655287
0.649856
0.643675
0.637781
0.631671
0.625038
0.618766
0.612238
0.753278
0.752049
0.75017
0.748062
0.745677
0.742918
0.739726
0.736114
0.732463
0.728778
0.725344
0.721752
0.717843
0.713569
0.709119
0.704518
0.699251
0.693993
0.688824
0.682759
0.676741
0.670828
0.66425
0.657681
0.650876
0.643733
0.636855
0.629626
0.622033
0.776946
0.775632
0.773619
0.771349
0.768767
0.765777
0.76233
0.75845
0.754255
0.750425
0.746615
0.742566
0.738153
0.733594
0.728668
0.723171
0.717729
0.711989
0.705632
0.699268
0.692603
0.685631
0.678573
0.671084
0.663491
0.655831
0.647883
0.639562
0.631507
0.80053
0.799124
0.79699
0.794573
0.791813
0.788598
0.784853
0.780588
0.77621
0.771923
0.767611
0.763136
0.758489
0.753322
0.747836
0.742058
0.735789
0.729314
0.722588
0.71539
0.707965
0.700256
0.692315
0.684159
0.675692
0.667014
0.658063
0.649222
0.640216
0.823805
0.822302
0.820057
0.817502
0.814564
0.81113
0.80715
0.802629
0.7979
0.793138
0.788663
0.784005
0.778532
0.77287
0.766919
0.760408
0.753727
0.746525
0.738951
0.731221
0.72286
0.714373
0.705673
0.696422
0.687142
0.677554
0.66772
0.657879
0.647536
0.846575
0.84497
0.842626
0.839951
0.83686
0.833233
0.828996
0.824194
0.818998
0.814174
0.809364
0.803887
0.798306
0.792439
0.785718
0.778624
0.771099
0.763279
0.755237
0.746371
0.737342
0.727959
0.718048
0.708275
0.697864
0.687113
0.676423
0.665219
0.654016
0.868664
0.866951
0.864525
0.861751
0.858519
0.854711
0.850264
0.845146
0.839947
0.834643
0.829073
0.82373
0.817828
0.811008
0.803872
0.796233
0.788388
0.779712
0.770392
0.761195
0.751148
0.740751
0.730233
0.718978
0.707573
0.695978
0.683908
0.671656
0.659481
0.889892
0.888064
0.885577
0.882731
0.879394
0.875448
0.870833
0.865603
0.85986
0.854249
0.84902
0.843029
0.836244
0.829301
0.821766
0.813611
0.804502
0.795175
0.785724
0.775165
0.764238
0.752911
0.741079
0.728966
0.716488
0.703561
0.690249
0.677046
0.663283
0.910106
0.908159
0.905632
0.902736
0.899315
0.895245
0.890445
0.884894
0.879254
0.873613
0.867571
0.861088
0.854536
0.847188
0.83867
0.829741
0.820656
0.810504
0.799582
0.788541
0.776567
0.7642
0.751274
0.737922
0.724155
0.71
0.69563
0.680681
0.665503
0.929178
0.927105
0.92456
0.921643
0.918166
0.914024
0.909162
0.903672
0.89769
0.891597
0.885581
0.879265
0.871933
0.86365
0.855048
0.845987
0.835496
0.824442
0.813411
0.8011
0.788036
0.774482
0.760471
0.745921
0.730811
0.715324
0.699303
0.683057
0.666643
0.947008
0.944805
0.94227
0.939364
0.935877
0.931703
0.926782
0.920991
0.915109
0.909203
0.902999
0.895905
0.888192
0.88008
0.870988
0.860461
0.849901
0.838416
0.825791
0.812544
0.798668
0.784217
0.768737
0.752621
0.736169
0.719172
0.701832
0.683971
0.665773
0.963521
0.961186
0.958685
0.955814
0.952329
0.948142
0.94318
0.937675
0.931647
0.925546
0.919069
0.91204
0.904285
0.895261
0.885239
0.875094
0.863551
0.850848
0.837514
0.823461
0.80845
0.792417
0.775797
0.758415
0.740447
0.721718
0.702478
0.683096
0.663153
0.978674
0.976206
0.973767
0.970955
0.967517
0.963381
0.958511
0.952828
0.947033
0.940993
0.934606
0.927322
0.918842
0.909635
0.899719
0.888568
0.876083
0.862665
0.848359
0.833216
0.817045
0.799849
0.78185
0.763009
0.743026
0.722611
0.701876
0.680471
0.658634
0.992454
0.989855
0.987509
0.984781
0.981407
0.977339
0.972502
0.967198
0.961427
0.955471
0.948769
0.941283
0.932978
0.923388
0.912621
0.900775
0.887681
0.873913
0.858763
0.842069
0.824526
0.806289
0.786757
0.765978
0.74461
0.722395
0.699444
0.675807
0.651907
1.00487
1.00215
0.999922
0.997295
0.994021
0.990078
0.985449
0.980149
0.974741
0.968702
0.962108
0.954666
0.945752
0.935625
0.924663
0.912325
0.898842
0.883832
0.867611
0.850143
0.831434
0.811519
0.79032
0.768098
0.744627
0.720327
0.69505
0.669318
0.643284
1.01595
1.01312
1.01105
1.00854
1.00539
1.00158
0.997086
0.99223
0.986863
0.981086
0.974369
0.966544
0.9576
0.947413
0.935777
0.922786
0.908546
0.893017
0.875785
0.857247
0.837252
0.815545
0.792607
0.768702
0.743445
0.716593
0.689052
0.66096
0.632009
1.02574
1.02283
1.02094
1.01856
1.01555
1.01192
1.00775
1.00306
0.998024
0.992253
0.985557
0.977603
0.968327
0.957692
0.945752
0.932508
0.917521
0.901098
0.883153
0.863257
0.841809
0.818945
0.794372
0.768011
0.740315
0.711557
0.681165
0.650113
0.618224
1.03432
1.03135
1.02966
1.02743
1.02458
1.02119
1.01721
1.01301
1.00812
1.00229
0.995479
0.987436
0.978099
0.967333
0.954883
0.9409
0.925503
0.908355
0.88935
0.868784
0.845925
0.821207
0.794724
0.766265
0.735994
0.7045
0.671575
0.637051
0.602196
1.04173
1.03876
1.03729
1.03521
1.03254
1.02937
1.02585
1.02176
1.017
1.01135
1.00451
0.996359
0.986712
0.975573
0.962982
0.948721
0.932725
0.914779
0.894997
0.872947
0.849033
0.822704
0.794023
0.763566
0.73073
0.695941
0.6595
0.622001
0.583421
1.04807
1.04514
1.04391
1.04198
1.03951
1.03666
1.03335
1.02964
1.02503
1.01925
1.01227
1.00397
0.994375
0.983046
0.970182
0.955463
0.938877
0.920335
0.899759
0.876538
0.851123
0.823428
0.792866
0.759583
0.723987
0.685977
0.645814
0.60423
0.56173
1.05341
1.0506
1.0496
1.0478
1.04557
1.04301
1.04011
1.03645
1.03179
1.02609
1.01914
1.01086
1.00091
0.989479
0.97622
0.961301
0.944325
0.925234
0.903642
0.879602
0.852848
0.823057
0.790641
0.754775
0.716094
0.674462
0.630274
0.584312
0.536643
1.05783
1.05522
1.05443
1.05278
1.05079
1.0486
1.0458
1.04226
1.03777
1.03203
1.02497
1.01656
1.00656
0.995014
0.981634
0.966408
0.94904
0.92929
0.90704
0.882022
0.854013
0.822318
0.787389
0.749211
0.707192
0.661744
0.612804
0.561596
0.508531
1.06142
1.05909
1.05846
1.05695
1.0553
1.05329
1.05074
1.04726
1.0427
1.03698
1.02998
1.02144
1.01146
0.999763
0.986244
0.970742
0.95294
0.932789
0.90998
0.883737
0.854606
0.821396
0.784166
0.742787
0.697314
0.647498
0.593627
0.53615
0.476735
1.06426
1.06228
1.06176
1.06047
1.05904
1.05731
1.0548
1.05136
1.04691
1.0412
1.03411
1.02556
1.01558
1.00371
0.990144
0.974348
0.956241
0.935655
0.912191
0.885227
0.854963
0.820132
0.78074
0.736241
0.686619
0.632153
0.572423
0.508389
0.440896
1.06645
1.06485
1.06444
1.06334
1.0622
1.06057
1.05815
1.05483
1.05033
1.04465
1.03754
1.02908
1.01895
1.00708
0.993296
0.977376
0.958889
0.93811
0.913963
0.886387
0.855032
0.818612
0.777198
0.729768
0.675929
0.615837
0.549748
0.477412
0.40118
1.06811
1.06688
1.06657
1.0657
1.06476
1.06323
1.0609
1.05758
1.05317
1.0475
1.04037
1.03197
1.02165
1.0099
0.99585
0.979831
0.961219
0.94
0.915409
0.88725
0.854734
0.817095
0.773799
0.723508
0.665552
0.599263
0.525254
0.443802
0.355935
1.06934
1.06843
1.06825
1.06759
1.06682
1.06536
1.06309
1.0598
1.05548
1.04969
1.04277
1.03421
1.02396
1.01205
0.997974
0.981824
0.963023
0.94153
0.916462
0.887819
0.854409
0.815621
0.770592
0.717498
0.655459
0.58301
0.499797
0.406618
0.305694
1.07023
1.0696
1.06957
1.06905
1.06846
1.06701
1.06481
1.06159
1.05727
1.05149
1.04464
1.0359
1.02584
1.01369
0.999702
0.983352
0.964428
0.942614
0.917354
0.888054
0.853991
0.814239
0.767564
0.711872
0.645975
0.567084
0.47421
0.366941
0.248366
1.07086
1.07049
1.07057
1.07019
1.06973
1.06825
1.06618
1.06297
1.0586
1.05297
1.046
1.03732
1.02721
1.01501
1.00104
0.98446
0.965544
0.94335
0.917985
0.888125
0.853479
0.812809
0.76463
0.706648
0.637194
0.551781
0.448653
0.325422
0.184012
1.07132
1.07114
1.07132
1.07105
1.07066
1.0692
1.0672
1.06395
1.05963
1.05402
1.04702
1.03837
1.02816
1.01604
1.00188
0.985238
0.966306
0.943819
0.918294
0.887986
0.852866
0.811131
0.761781
0.70163
0.628897
0.537094
0.423204
0.280494
0.111386
1.07164
1.07161
1.07182
1.07171
1.07125
1.0699
1.06793
1.06465
1.06039
1.05482
1.04773
1.03917
1.0288
1.01672
1.00227
0.985688
0.966357
0.943762
0.917562
0.887086
0.850809
0.808513
0.757129
0.695506
0.61843
0.521702
0.395399
0.229831
0.0174231
1.07185
1.07193
1.07215
1.0722
1.07155
1.07047
1.06831
1.06518
1.06073
1.05528
1.04797
1.03953
1.02883
1.01678
1.00197
0.98526
0.965316
0.942473
0.915435
0.884488
0.847005
0.803784
0.750337
0.686673
0.605512
0.503202
0.365337
0.173572
-0.103198
1.07197
1.07212
1.07232
1.07256
1.07165
1.0709
1.06841
1.06553
1.06086
1.05539
1.04781
1.0391
1.02811
1.01571
1.00053
0.983391
0.962976
0.939648
0.911992
0.880297
0.841922
0.797475
0.742457
0.676376
0.59203
0.48376
0.338137
0.127142
-0.215453
1.07204
1.07221
1.0724
1.07259
1.07157
1.07078
1.06804
1.06491
1.05961
1.05376
1.04583
1.03678
1.02541
1.01262
0.997035
0.979569
0.958724
0.93502
0.906745
0.874591
0.835236
0.790285
0.733543
0.667066
0.578891
0.470344
0.317017
0.114648
-0.125556
0.430804
0.43023
0.429649
0.429063
0.428471
0.427873
0.427271
0.426663
0.426051
0.425434
0.424812
0.424187
0.423558
0.422925
0.422289
0.421649
0.421006
0.420361
0.419712
0.419061
0.418408
0.417753
0.417095
0.416436
0.415775
0.415113
0.414449
0.413785
0.413119
0.412453
0.411786
0.411119
0.410453
0.409786
0.409119
0.408453
0.407788
0.407123
0.40646
0.405798
0.405138
0.404479
0.403822
0.403168
0.402516
0.401866
0.401219
0.400575
0.399934
0.399297
0.398663
0.398033
0.397407
0.396786
0.396168
0.395556
0.394948
0.394345
0.393747
0.393155
0.392568
0.391987
0.391411
0.390842
0.390279
0.389722
0.389172
0.388629
0.388092
0.387563
0.387041
0.386526
0.386019
0.385519
0.385028
0.384544
0.384069
0.383602
0.383143
0.382693
0.382252
0.381819
0.381396
0.380981
0.380576
0.38018
0.379793
0.379416
0.379049
0.378692
0.378344
0.378007
0.377679
0.377362
0.377055
0.376758
0.376471
0.376195
0.375929
0.375673
0.375428
0.375193
0.374969
0.374756
0.374553
0.37436
0.374177
0.374005
0.373844
0.373692
0.37355
0.373419
0.373297
0.373185
0.373083
0.37299
0.372907
0.372836
0.372775
0.372725
0.372684
0.372652
0.372628
0.372611
0.372601
0.372599
0.372601
0.372611
0.372625
0.372646
0.372673
0.372705
0.372744
0.372786
0.372839
0.372879
0.372968
0.372983
0.373162
0.431917
0.431328
0.430734
0.430135
0.429531
0.428923
0.428309
0.427691
0.427068
0.42644
0.425808
0.425171
0.424531
0.423886
0.423237
0.422584
0.421927
0.421267
0.420604
0.419938
0.419268
0.418596
0.417921
0.417244
0.416565
0.415884
0.415201
0.414517
0.413832
0.413145
0.412458
0.41177
0.411081
0.410393
0.409705
0.409017
0.408329
0.407643
0.406957
0.406273
0.405591
0.40491
0.404231
0.403554
0.40288
0.402208
0.401539
0.400873
0.400211
0.399551
0.398896
0.398244
0.397596
0.396953
0.396313
0.395679
0.395049
0.394425
0.393805
0.393191
0.392583
0.39198
0.391384
0.390794
0.39021
0.389633
0.389063
0.3885
0.387944
0.387395
0.386854
0.386321
0.385795
0.385277
0.384767
0.384266
0.383773
0.383288
0.382812
0.382345
0.381887
0.381438
0.380998
0.380568
0.380147
0.379735
0.379333
0.378941
0.378558
0.378186
0.377823
0.377471
0.377129
0.376798
0.376477
0.376167
0.375867
0.375578
0.3753
0.375033
0.374776
0.374531
0.374296
0.374073
0.373861
0.37366
0.37347
0.373291
0.373124
0.372967
0.372823
0.372689
0.372569
0.372461
0.372366
0.372282
0.37221
0.372147
0.372093
0.372048
0.372012
0.371986
0.371968
0.371958
0.371958
0.371964
0.371981
0.371998
0.372027
0.372055
0.372088
0.372126
0.372168
0.372198
0.372254
0.372265
0.3723
0.372293
0.372249
0.432841
0.432213
0.431581
0.430946
0.430306
0.429661
0.429013
0.42836
0.427704
0.427043
0.426377
0.425708
0.425035
0.424358
0.423677
0.422992
0.422303
0.421612
0.420916
0.420218
0.419517
0.418812
0.418105
0.417396
0.416684
0.41597
0.415254
0.414537
0.413818
0.413098
0.412376
0.411654
0.410932
0.410209
0.409486
0.408763
0.40804
0.407318
0.406597
0.405876
0.405157
0.40444
0.403724
0.40301
0.402299
0.40159
0.400884
0.40018
0.399481
0.398784
0.398092
0.397403
0.396719
0.396039
0.395364
0.394694
0.394029
0.39337
0.392716
0.392069
0.391427
0.390792
0.390163
0.389541
0.388926
0.388318
0.387718
0.387125
0.386539
0.385962
0.385393
0.384832
0.384279
0.383735
0.383201
0.382675
0.382158
0.38165
0.381153
0.380664
0.380186
0.379717
0.379258
0.378809
0.378371
0.377943
0.377525
0.377118
0.376722
0.37634
0.375971
0.375613
0.375267
0.374932
0.374609
0.374297
0.373997
0.373708
0.373432
0.373168
0.372916
0.372676
0.372448
0.372233
0.37203
0.371841
0.371663
0.371499
0.371348
0.371209
0.371084
0.37097
0.370869
0.370778
0.370699
0.370632
0.370576
0.370532
0.3705
0.37048
0.370473
0.370477
0.370495
0.370525
0.370566
0.370629
0.370687
0.370779
0.370859
0.370961
0.371068
0.371178
0.371296
0.371467
0.371426
0.371927
0.37147
0.372707
0.371281
0.433004
0.432337
0.431665
0.430989
0.430308
0.429623
0.428931
0.428235
0.427534
0.426827
0.426114
0.425397
0.424675
0.423948
0.423216
0.42248
0.421739
0.420994
0.420245
0.419493
0.418736
0.417977
0.417215
0.41645
0.415682
0.414912
0.41414
0.413366
0.41259
0.411813
0.411035
0.410257
0.409477
0.408698
0.407918
0.407139
0.406361
0.405583
0.404807
0.404033
0.40326
0.402489
0.401721
0.400955
0.400192
0.399433
0.398677
0.397924
0.397176
0.396431
0.395692
0.394957
0.394227
0.393502
0.392783
0.39207
0.391362
0.390661
0.389966
0.389278
0.388597
0.387923
0.387256
0.386597
0.385946
0.385302
0.384667
0.384041
0.383423
0.382814
0.382214
0.381623
0.381042
0.38047
0.379908
0.379356
0.378814
0.378282
0.377761
0.377251
0.376752
0.376264
0.375788
0.375323
0.374871
0.37443
0.374002
0.373587
0.373183
0.37279
0.372408
0.372039
0.371681
0.371337
0.371006
0.370688
0.370384
0.370093
0.369815
0.369552
0.369302
0.369066
0.368843
0.368636
0.368442
0.368262
0.368097
0.367947
0.367811
0.367691
0.367585
0.367495
0.36742
0.36736
0.367316
0.367289
0.367277
0.367282
0.367305
0.367345
0.367403
0.36748
0.367576
0.367694
0.367831
0.367988
0.368186
0.368371
0.368632
0.368875
0.369098
0.369596
0.369347
0.370681
0.369303
0.372411
0.368793
0.375384
0.366959
0.434419
0.433746
0.433064
0.432375
0.431678
0.430973
0.430259
0.429538
0.428808
0.428071
0.427327
0.426575
0.425816
0.42505
0.424277
0.423498
0.422713
0.421921
0.421124
0.420322
0.419514
0.418701
0.417884
0.417062
0.416237
0.415408
0.414576
0.413741
0.412904
0.412064
0.411223
0.410381
0.409537
0.408693
0.407849
0.407004
0.406159
0.405315
0.404472
0.403631
0.402791
0.401953
0.401117
0.400284
0.399453
0.398626
0.397803
0.396983
0.396168
0.395357
0.394551
0.393749
0.392953
0.392163
0.391379
0.3906
0.389829
0.389064
0.388306
0.387556
0.386813
0.386078
0.385351
0.384632
0.383922
0.383221
0.382528
0.381845
0.381171
0.380507
0.379853
0.379208
0.378574
0.37795
0.377337
0.376735
0.376143
0.375563
0.374994
0.374436
0.37389
0.373356
0.372834
0.372324
0.371826
0.37134
0.370866
0.370406
0.369957
0.369522
0.3691
0.36869
0.368295
0.367913
0.367544
0.36719
0.36685
0.366524
0.366213
0.365917
0.365635
0.365368
0.365117
0.364882
0.364662
0.364458
0.36427
0.364099
0.363945
0.363808
0.363689
0.363588
0.363505
0.363442
0.363399
0.363375
0.363374
0.363393
0.363436
0.363501
0.363589
0.363702
0.363841
0.364005
0.364206
0.364415
0.364679
0.364961
0.365218
0.365833
0.365644
0.367298
0.365826
0.36968
0.365375
0.373221
0.363386
0.378277
0.353964
0.43762
0.436956
0.436278
0.435584
0.434875
0.434153
0.433417
0.432669
0.431909
0.431137
0.430354
0.429561
0.428757
0.427944
0.427122
0.42629
0.42545
0.424603
0.423747
0.422884
0.422015
0.421138
0.420256
0.419368
0.418475
0.417578
0.416675
0.415769
0.414859
0.413946
0.413031
0.412112
0.411192
0.41027
0.409347
0.408423
0.407498
0.406574
0.40565
0.404726
0.403804
0.402883
0.401965
0.401049
0.400136
0.399226
0.398319
0.397417
0.396519
0.395625
0.394737
0.393854
0.392977
0.392106
0.391242
0.390384
0.389533
0.388689
0.387853
0.387025
0.386206
0.385394
0.384592
0.383798
0.383013
0.382238
0.381473
0.380718
0.379973
0.379239
0.378515
0.377803
0.377101
0.376411
0.375733
0.375066
0.374412
0.373769
0.373139
0.372522
0.371917
0.371324
0.370744
0.370178
0.369624
0.369084
0.368557
0.368044
0.367544
0.367058
0.366586
0.366128
0.365684
0.365255
0.364841
0.364441
0.364056
0.363687
0.363333
0.362994
0.362672
0.362365
0.362075
0.361801
0.361543
0.361303
0.36108
0.360874
0.360685
0.360515
0.360363
0.36023
0.360115
0.36002
0.359945
0.359891
0.359857
0.359845
0.359855
0.359888
0.359945
0.36001
0.36012
0.360241
0.360394
0.360589
0.360721
0.361113
0.361036
0.36188
0.361292
0.362919
0.361502
0.364163
0.361866
0.365384
0.361406
0.372307
0.340187
0.440572
0.439896
0.439198
0.438478
0.437739
0.43698
0.436202
0.435406
0.434592
0.433762
0.432916
0.432054
0.431178
0.430289
0.429386
0.428471
0.427544
0.426606
0.425658
0.424701
0.423734
0.422759
0.421777
0.420787
0.419791
0.418789
0.417782
0.41677
0.415753
0.414734
0.413711
0.412685
0.411658
0.410629
0.4096
0.40857
0.407541
0.406513
0.405486
0.404461
0.403438
0.402418
0.401401
0.400388
0.399379
0.398374
0.397374
0.39638
0.395391
0.394409
0.393433
0.392464
0.391502
0.390548
0.389602
0.388663
0.387733
0.386812
0.3859
0.384997
0.384104
0.383221
0.382348
0.381485
0.380633
0.379792
0.378962
0.378143
0.377336
0.376541
0.375757
0.374986
0.374227
0.37348
0.372747
0.372026
0.371318
0.370623
0.369941
0.369273
0.368619
0.367978
0.367352
0.36674
0.366142
0.365558
0.364989
0.364434
0.363894
0.363369
0.362859
0.362363
0.361883
0.361418
0.360968
0.360534
0.360115
0.359712
0.359324
0.358952
0.358597
0.358257
0.357933
0.357626
0.357335
0.35706
0.356803
0.356561
0.356337
0.35613
0.355939
0.355766
0.35561
0.355471
0.355349
0.355245
0.355157
0.355086
0.355032
0.354995
0.354975
0.354972
0.354976
0.355019
0.355049
0.355168
0.355105
0.355421
0.355174
0.355755
0.355277
0.356106
0.3555
0.356296
0.356231
0.355873
0.356483
0.362391
0.333257
0.442793
0.442052
0.441285
0.440494
0.43968
0.438843
0.437984
0.437104
0.436202
0.435282
0.434341
0.433383
0.432407
0.431414
0.430406
0.429382
0.428344
0.427293
0.426229
0.425154
0.424068
0.422971
0.421866
0.420752
0.41963
0.418502
0.417368
0.416228
0.415085
0.413937
0.412787
0.411635
0.410481
0.409327
0.408172
0.407019
0.405866
0.404716
0.403567
0.402422
0.40128
0.400142
0.399009
0.397881
0.396758
0.395641
0.394531
0.393428
0.392333
0.391245
0.390165
0.389094
0.388032
0.386979
0.385937
0.384904
0.383882
0.382871
0.381871
0.380882
0.379905
0.37894
0.377987
0.377046
0.376118
0.375202
0.374299
0.37341
0.372533
0.37167
0.37082
0.369984
0.369162
0.368354
0.367561
0.366781
0.366016
0.365265
0.364529
0.363808
0.363102
0.362411
0.361735
0.361074
0.360429
0.359798
0.359183
0.358583
0.357999
0.357431
0.356878
0.356341
0.355819
0.355313
0.354823
0.354349
0.353891
0.353448
0.353021
0.35261
0.352215
0.351835
0.351472
0.351124
0.350792
0.350476
0.350175
0.34989
0.349621
0.349368
0.34913
0.348907
0.348699
0.348506
0.348328
0.348165
0.348016
0.347881
0.347759
0.347651
0.347556
0.347486
0.347364
0.34741
0.347209
0.347379
0.347207
0.347392
0.347138
0.347463
0.347165
0.347516
0.347375
0.347284
0.348174
0.347343
0.346676
0.351882
0.331125
0.446283
0.445437
0.444564
0.443664
0.442738
0.441787
0.440811
0.439812
0.43879
0.437746
0.436681
0.435597
0.434493
0.433371
0.432232
0.431077
0.429906
0.428721
0.427522
0.426311
0.425088
0.423854
0.42261
0.421357
0.420097
0.418829
0.417555
0.416276
0.414993
0.413706
0.412416
0.411124
0.409831
0.408538
0.407245
0.405953
0.404662
0.403375
0.40209
0.400809
0.399533
0.398262
0.396997
0.395738
0.394486
0.393242
0.392005
0.390777
0.389559
0.388349
0.38715
0.385961
0.384783
0.383616
0.38246
0.381317
0.380186
0.379067
0.377961
0.376869
0.37579
0.374725
0.373673
0.372636
0.371614
0.370606
0.369613
0.368636
0.367673
0.366726
0.365795
0.364879
0.36398
0.363096
0.362228
0.361376
0.360541
0.359722
0.35892
0.358134
0.357364
0.356611
0.355874
0.355154
0.35445
0.353763
0.353092
0.352438
0.3518
0.351179
0.350574
0.349986
0.349414
0.348859
0.34832
0.347798
0.347291
0.346802
0.346328
0.345871
0.345429
0.345004
0.344595
0.344201
0.343824
0.343462
0.343115
0.342784
0.342469
0.342168
0.341883
0.341612
0.341357
0.341116
0.340889
0.340677
0.340479
0.340295
0.340125
0.339969
0.339826
0.339703
0.339565
0.339526
0.339322
0.339434
0.339118
0.339354
0.339141
0.339304
0.339138
0.339254
0.339366
0.338983
0.339648
0.338725
0.337941
0.341547
0.328521
0.452185
0.451211
0.450205
0.449168
0.4481
0.447004
0.445879
0.444727
0.443549
0.442347
0.441122
0.439875
0.438606
0.437318
0.43601
0.434685
0.433344
0.431987
0.430616
0.429232
0.427835
0.426428
0.425011
0.423585
0.422151
0.420711
0.419265
0.417815
0.41636
0.414904
0.413445
0.411986
0.410527
0.409068
0.407612
0.406158
0.404708
0.403262
0.401822
0.400387
0.398959
0.397538
0.396125
0.394721
0.393327
0.391942
0.390568
0.389204
0.387853
0.386513
0.385186
0.383872
0.382571
0.381284
0.380011
0.378753
0.377509
0.376281
0.375068
0.37387
0.372689
0.371524
0.370375
0.369243
0.368128
0.36703
0.36595
0.364886
0.363841
0.362813
0.361803
0.360811
0.359838
0.358882
0.357944
0.357024
0.356122
0.355239
0.354373
0.353526
0.352696
0.351885
0.351091
0.350316
0.349558
0.348818
0.348097
0.347393
0.346706
0.346038
0.345387
0.344753
0.344137
0.343539
0.342957
0.342393
0.341846
0.341315
0.340802
0.340305
0.339825
0.339362
0.338915
0.338484
0.338069
0.33767
0.337287
0.33692
0.336568
0.336232
0.335911
0.335605
0.335314
0.335037
0.334776
0.334529
0.334296
0.334078
0.333874
0.333684
0.333507
0.333346
0.333189
0.333072
0.332908
0.332863
0.332668
0.332688
0.332502
0.332533
0.332398
0.332329
0.332472
0.332025
0.33231
0.331692
0.330892
0.333278
0.325542
0.458993
0.457872
0.456712
0.455514
0.45428
0.453012
0.451711
0.450379
0.449017
0.447626
0.446209
0.444766
0.4433
0.441811
0.440301
0.438771
0.437224
0.43566
0.434081
0.432489
0.430884
0.429268
0.427643
0.42601
0.424369
0.422723
0.421073
0.419419
0.417764
0.416107
0.414451
0.412797
0.411145
0.409496
0.407853
0.406215
0.404583
0.402959
0.401344
0.399737
0.398141
0.396556
0.394982
0.39342
0.391871
0.390335
0.388814
0.387307
0.385815
0.384339
0.382879
0.381435
0.380009
0.378599
0.377208
0.375834
0.374479
0.373142
0.371825
0.370526
0.369247
0.367986
0.366746
0.365525
0.364325
0.363144
0.361983
0.360843
0.359722
0.358622
0.357542
0.356482
0.355442
0.354422
0.353423
0.352443
0.351483
0.350544
0.349624
0.348724
0.347843
0.346983
0.346141
0.34532
0.344517
0.343734
0.342971
0.342226
0.3415
0.340793
0.340105
0.339435
0.338784
0.338151
0.337537
0.33694
0.336361
0.335799
0.335255
0.334729
0.33422
0.333727
0.333252
0.332793
0.33235
0.331924
0.331514
0.33112
0.330741
0.330378
0.330031
0.329698
0.329381
0.329078
0.328789
0.328515
0.328254
0.328007
0.327773
0.327553
0.327344
0.327149
0.326961
0.326794
0.326618
0.326486
0.326307
0.326213
0.326038
0.325954
0.325821
0.325643
0.325789
0.325226
0.325342
0.324846
0.324506
0.325545
0.321288
0.465579
0.464278
0.462932
0.461544
0.460116
0.458648
0.457144
0.455604
0.454031
0.452426
0.45079
0.449126
0.447436
0.445721
0.443983
0.442224
0.440446
0.438649
0.436837
0.435011
0.433173
0.431324
0.429467
0.427602
0.425733
0.423859
0.421984
0.420107
0.418232
0.416358
0.414488
0.412623
0.410764
0.408911
0.407067