/*--------------------------------*- C++ -*----------------------------------*\
| =========                 |                                                 |
| \\      /  F ield         | OpenFOAM: The Open Source CFD Toolbox           |
|  \\    /   O peration     | Version:  5.x                                   |
|   \\  /    A nd           | Web:      www.OpenFOAM.org                      |
|    \\/     M anipulation  |                                                 |
\*---------------------------------------------------------------------------*/
/*   Windows 32 and 64 bit porting by blueCAPE: http://www.bluecape.com.pt   *\
|  Based on Windows porting (2.0.x v4) by Symscape: http://www.symscape.com   |
\*---------------------------------------------------------------------------*/
FoamFile
{
    version     2.0;
    format      ascii;
    class       surfaceScalarField;
    location    "100";
    object      phi;
}
// * * * * * * * * * * * * * * * * * * * * * * * * * * * * * * * * * * * * * //

dimensions      [0 3 -1 0 0 0 0];

internalField   nonuniform List<scalar> 
87341
(
0.344975
39.5781
0.466198
39.8018
0.484696
39.9045
0.565939
39.8418
0.609828
39.8791
0.646411
39.8865
0.692635
39.8768
0.719509
39.8962
0.747553
39.895
0.769549
39.901
0.789948
39.9026
0.808633
39.9044
0.825741
39.9059
0.841535
39.9072
0.856178
39.9084
0.869822
39.9094
0.88261
39.9102
0.894687
39.911
0.906187
39.9115
0.917282
39.9119
0.928161
39.9122
0.938938
39.9123
0.949584
39.9124
0.960091
39.9125
0.970451
39.9127
0.98067
39.9128
0.990757
39.9129
1.00072
39.9131
39.913
1.01079
0.846533
38.7315
1.19233
39.456
1.24978
39.8471
1.42456
39.667
1.46548
39.8382
1.62763
39.7243
1.71044
39.794
1.83989
39.7667
1.9453
39.7896
2.04884
39.7975
2.1434
39.8081
2.22926
39.8185
2.30782
39.8274
2.38015
39.8349
2.44715
39.8414
2.50956
39.847
2.568
39.8518
2.62297
39.856
2.67493
39.8596
2.72409
39.8628
2.77049
39.8658
2.81421
39.8685
2.85553
39.8711
2.8947
39.8734
2.93186
39.8755
2.96716
39.8775
3.00069
39.8794
3.03253
39.8812
39.8826
3.06288
1.86883
36.8627
2.95784
38.367
3.49246
39.3125
3.43662
39.7229
3.54757
39.7273
3.4974
39.7745
3.51053
39.7809
3.51327
39.764
3.52778
39.7751
3.55243
39.7729
3.58396
39.7765
3.62387
39.7786
3.66782
39.7834
3.71404
39.7887
3.76152
39.7939
3.80953
39.799
3.85746
39.8039
3.90481
39.8086
3.95091
39.8135
3.99559
39.8181
4.03885
39.8225
4.08075
39.8266
4.12138
39.8304
4.16075
39.834
4.199
39.8373
4.23624
39.8403
4.2726
39.8431
4.30821
39.8456
39.8489
4.34197
1.71248
35.1502
3.43322
36.6463
4.66675
38.0789
5.27159
39.118
5.39591
39.6029
5.4129
39.7575
5.42678
39.767
5.41128
39.7795
5.40847
39.7779
5.40065
39.7807
5.39902
39.7782
5.40132
39.7763
5.40931
39.7754
5.42287
39.7751
5.4413
39.7755
5.46392
39.7764
5.49007
39.7777
5.51927
39.7794
5.55156
39.7812
5.58665
39.783
5.62419
39.785
5.66395
39.7869
5.70547
39.7889
5.74837
39.7911
5.7924
39.7932
5.83709
39.7956
5.88211
39.798
5.92727
39.8004
39.8033
5.97278
1.09571
34.0545
2.47963
35.2623
4.03516
36.5234
5.34421
37.809
6.11143
38.8357
6.39342
39.4755
6.47467
39.6857
6.53694
39.7172
6.59361
39.7212
6.64714
39.7271
6.68838
39.7369
6.71793
39.7467
6.74576
39.7476
6.77311
39.7478
6.80103
39.7476
6.83025
39.7471
6.86143
39.7465
6.89512
39.7457
6.93218
39.7441
6.97249
39.7427
7.01592
39.7415
7.06183
39.741
7.11012
39.7406
7.16059
39.7406
7.21296
39.7409
7.26713
39.7414
7.32294
39.7422
7.38011
39.7433
39.743
7.44041
0.811339
33.2432
1.79034
34.2833
2.9324
35.3814
4.21564
36.5257
5.37265
37.6787
6.14503
38.7031
6.44193
39.3888
6.52397
39.6352
6.57782
39.6674
6.63447
39.6705
6.6929
39.6785
6.75409
39.6855
6.81781
39.6839
6.88388
39.6817
6.95222
39.6792
7.02278
39.6766
7.09544
39.6739
7.17003
39.6712
7.2454
39.6688
7.32139
39.6667
7.39807
39.6649
7.47535
39.6637
7.5533
39.6627
7.63201
39.6619
7.71149
39.6614
7.79176
39.6612
7.87279
39.6612
7.95446
39.6616
39.6608
8.03669
0.607089
32.6361
1.30196
33.5885
2.09051
34.5928
2.97344
35.6428
3.93741
36.7147
4.86801
37.7725
5.50745
38.7494
5.7431
39.3995
5.83149
39.579
5.9179
39.5841
6.01863
39.5778
6.1341
39.5701
6.2531
39.5649
6.37448
39.5603
6.49747
39.5562
6.62153
39.5525
6.74618
39.5492
6.87092
39.5464
6.99528
39.5444
7.11918
39.5428
7.24256
39.5415
7.36551
39.5407
7.48796
39.5402
7.60986
39.54
7.73119
39.5401
7.85187
39.5405
7.97182
39.5413
8.09104
39.5424
39.5441
8.20777
0.466606
32.1695
0.985074
33.07
1.5556
34.0223
2.18029
35.0181
2.85494
36.0401
3.56397
37.0635
4.26466
38.0487
4.73366
38.9305
4.94747
39.3652
5.11787
39.4137
5.29168
39.404
5.46917
39.3926
5.64844
39.3856
5.82895
39.3798
6.01014
39.375
6.19151
39.3711
6.37261
39.3681
6.5531
39.3659
6.7329
39.3646
6.91183
39.3639
7.08963
39.3637
7.2662
39.3642
7.44134
39.3651
7.61485
39.3665
7.7866
39.3683
7.95649
39.3706
8.12442
39.3733
8.29035
39.3765
39.3811
8.45329
0.4116
31.7579
0.856256
32.6254
1.32982
33.5487
1.83342
34.5145
2.36619
35.5073
2.92295
36.5067
3.48819
37.4835
4.0245
38.3942
4.35063
39.039
4.58921
39.1751
4.82133
39.1718
5.04988
39.164
5.2774
39.1581
5.50396
39.1533
5.72943
39.1496
5.95369
39.1469
6.17667
39.1451
6.39832
39.1443
6.61867
39.1442
6.83763
39.1449
7.05489
39.1464
7.27069
39.1484
7.48476
39.151
7.69686
39.1544
7.9068
39.1584
8.11446
39.1629
8.31972
39.1681
8.52247
39.1737
39.1793
8.72434
0.377603
31.3803
0.772659
32.2303
1.18742
33.1339
1.62086
34.0811
2.07107
35.0571
2.53477
36.043
3.00511
37.0131
3.46831
37.931
3.84463
38.6627
4.14475
38.875
4.43364
38.883
4.7173
38.8804
4.99676
38.8786
5.27231
38.8777
5.54415
38.8777
5.81246
38.8786
6.0774
38.8802
6.33906
38.8826
6.59754
38.8858
6.8529
38.8896
7.10488
38.8944
7.35407
38.8992
7.60029
38.9048
7.84333
38.9113
8.08313
38.9186
8.31961
38.9265
8.55274
38.9349
8.78252
38.9439
38.9517
9.01008
0.339457
31.0408
0.692766
31.877
1.05938
32.7673
1.43909
33.7014
1.83035
34.6659
2.23018
35.6432
2.6342
36.6091
3.0372
37.528
3.41293
38.287
3.75542
38.5325
4.0892
38.5492
4.41746
38.5521
4.74057
38.5555
5.05869
38.5596
5.37197
38.5644
5.68057
38.57
5.98455
38.5762
6.28401
38.5832
6.57899
38.5908
6.86953
38.599
7.15556
38.6084
7.43736
38.6174
7.7149
38.6273
7.98814
38.6381
8.25692
38.6498
8.52132
38.6621
8.78132
38.6749
9.03681
38.6884
38.7007
9.28778
0.33297
30.7078
0.675589
31.5344
1.02704
32.4159
1.38726
33.3411
1.75616
34.297
2.1327
35.2667
2.5142
36.2276
2.89682
37.1454
3.27034
37.9135
3.63002
38.1728
3.98437
38.1948
4.3347
38.2018
4.68098
38.2092
5.02308
38.2175
5.36101
38.2265
5.69456
38.2364
6.02382
38.247
6.34859
38.2584
6.66879
38.2706
6.98454
38.2833
7.29547
38.2975
7.60173
38.3111
7.90331
38.3257
8.19984
38.3416
8.49169
38.3579
8.77854
38.3752
9.06018
38.3933
9.33698
38.4116
38.4296
9.60815
0.35076
30.3571
0.709317
31.1758
1.07485
32.0503
1.44625
32.9697
1.82284
33.9204
2.2044
34.8851
2.59046
35.8416
2.97895
36.7569
3.36284
37.5296
3.73725
37.7984
4.10712
37.825
4.47375
37.8351
4.83705
37.8459
5.19692
37.8576
5.55293
37.8705
5.90536
37.884
6.25355
37.8988
6.59761
37.9143
6.93763
37.9306
7.27266
37.9482
7.60368
37.9665
7.92972
37.9851
8.25038
38.005
8.5669
38.0251
8.87781
38.047
9.18345
38.0696
9.48461
38.0921
9.77965
38.1166
38.1395
10.0697
0.375088
29.982
0.757824
30.7931
1.14707
31.6611
1.54155
32.5753
1.9398
33.5221
2.34046
34.4845
2.74259
35.4394
3.14513
36.3543
3.54706
37.1276
3.94434
37.4011
4.33711
37.4322
4.72655
37.4457
5.11253
37.4599
5.49449
37.4757
5.87322
37.4918
6.24701
37.5102
6.61718
37.5286
6.98299
37.5485
7.34309
37.5705
7.70004
37.5913
8.05084
37.6157
8.39612
37.6398
8.73778
37.6634
9.07164
37.6912
9.40094
37.7177
9.72553
37.745
10.0417
37.7759
10.3537
37.8046
37.8332
10.66
0.40209
29.5799
0.8119
30.3833
1.22807
31.2449
1.64918
32.1541
2.07373
33.0976
2.5001
34.0581
2.92646
35.0131
3.35056
35.9302
3.77536
36.7028
4.19981
36.9767
4.62057
37.0114
5.03746
37.0288
5.45017
37.0472
5.85996
37.0659
6.26331
37.0884
6.66455
37.109
7.05957
37.1336
7.44864
37.1594
7.83607
37.183
8.21369
37.2137
8.58814
37.2412
8.95862
37.2693
9.31768
37.3043
9.67579
37.3331
10.0268
37.3667
10.3672
37.4046
10.7072
37.4359
11.0375
37.4743
37.5112
11.3596
0.432995
29.1469
0.874042
29.9422
1.3216
30.7974
1.77405
31.7017
2.22974
32.6419
2.68696
33.6009
3.14386
34.5562
3.59764
35.4765
4.05122
36.2493
4.50577
36.5221
4.95541
36.5618
5.40149
36.5827
5.84455
36.6042
6.27947
36.631
6.71541
36.6525
7.14049
36.6839
7.56238
36.7117
7.98293
36.7389
8.38831
36.7777
8.79662
36.8054
9.19658
36.8412
9.58251
36.8834
9.97395
36.9129
10.3504
36.9567
10.717
37.0001
11.0877
37.0338
11.4399
37.0837
11.7865
37.1277
37.1646
12.1331
0.467695
28.6792
0.944013
29.4659
1.42722
30.3142
1.91551
31.2134
2.40702
32.1504
2.89987
33.108
3.39201
34.064
3.88057
34.9879
4.36858
35.7612
4.85352
36.0372
5.33605
36.0793
5.81355
36.1052
6.28238
36.1353
6.75583
36.1575
7.21078
36.1976
7.67065
36.224
8.12405
36.2583
8.55846
36.3045
9.00514
36.331
9.43218
36.3783
9.84856
36.4249
10.2758
36.4562
10.6756
36.513
11.0728
36.5594
11.4751
36.5979
11.8479
36.661
12.2239
36.7077
12.597
36.7546
36.8175
12.944
0.505151
28.1741
1.01961
28.9514
1.54145
29.7923
2.06865
30.6862
2.59916
31.6199
3.13088
32.5763
3.66159
33.5333
4.18781
34.4617
4.71064
35.2384
5.23434
35.5135
5.74738
35.5662
6.2551
35.5975
6.76848
35.622
7.25532
35.6707
7.75891
35.694
8.24321
35.7397
8.71234
35.7892
9.20073
35.8161
9.65597
35.8757
10.1097
35.9246
10.5738
35.9607
11.0003
36.0297
11.4333
36.08
11.8689
36.1239
12.2673
36.1995
12.6779
36.2505
13.0812
36.3043
13.4533
36.3825
36.4323
13.8386
0.544638
27.6294
1.09933
28.3968
1.6619
29.2298
2.23012
30.118
2.80168
31.0483
3.37416
32.0038
3.945
32.9625
4.51103
33.8957
5.07676
34.6727
5.62841
34.9618
6.18226
35.0124
6.73488
35.0449
7.2571
35.0997
7.80645
35.1213
8.32405
35.1764
8.83575
35.228
9.36603
35.2589
9.85263
35.3295
10.3442
35.3842
10.8461
35.4228
11.3026
35.5041
11.7711
35.5613
12.2447
35.6064
12.6686
35.7
13.111
35.7571
13.5474
35.814
13.9412
35.9106
14.3541
35.9696
36.038
14.7485
0.58589
27.0435
1.18259
27.8001
1.78772
28.6246
2.39882
29.5069
3.0134
30.4337
3.62895
31.3883
4.24283
32.3486
4.85037
33.2881
5.44723
34.0758
6.05282
34.3562
6.6398
34.4254
7.20442
34.4803
7.80193
34.5022
8.35877
34.5645
8.9107
34.6244
9.4828
34.6559
10.0053
34.7364
10.5351
34.7996
11.0842
34.835
11.5691
34.9379
12.0737
34.9995
12.5879
35.0471
13.0343
35.1599
13.5145
35.2199
13.9859
35.2857
14.4009
35.399
14.8476
35.4638
15.2731
35.544
35.6556
15.6555
0.628467
26.4151
1.26852
27.16
1.91756
27.9756
2.57285
28.8516
3.23151
29.7751
3.89042
30.7294
4.54605
31.693
5.19508
32.6391
5.84899
33.4219
6.47255
33.7327
7.0928
33.8051
7.73863
33.8344
8.33216
33.9087
8.92437
33.9723
9.55348
33.9953
10.1091
34.1003
10.6779
34.1676
11.2749
34.2026
11.7889
34.321
12.3411
34.3857
12.8996
34.441
13.3747
34.572
13.8977
34.6369
14.4077
34.7099
14.8515
34.8419
15.3353
34.9152
15.7985
35.0006
16.2066
35.1359
35.207
16.6553
0.672017
25.7431
1.35643
26.4756
2.05039
27.2816
2.75097
28.151
3.45521
29.0708
4.16026
30.0243
4.8636
30.9896
5.56002
31.9427
6.23379
32.7481
6.91562
33.0508
7.60105
33.1197
8.23205
33.2034
8.87761
33.2631
9.56068
33.2892
10.1387
33.4174
10.7591
33.4799
11.416
33.5106
11.9642
33.6545
12.5552
33.7299
13.1531
33.7878
13.6613
33.9328
14.225
34.0084
14.7788
34.0831
15.2525
34.2362
15.7665
34.3279
16.2652
34.4166
16.6966
34.5691
17.1744
34.6581
34.7696
17.6117
0.716174
25.0269
1.44554
25.7462
2.18511
26.5421
2.9317
27.4044
3.6819
28.3206
4.4318
29.2744
5.17614
30.2453
5.90888
31.2099
6.64951
32.0075
7.37613
32.3242
8.04683
32.449
8.75589
32.4944
9.47911
32.5399
10.0908
32.6775
10.7791
32.729
11.49
32.769
12.0584
32.9422
12.6819
33.031
13.3449
33.0669
13.9032
33.2295
14.5006
33.3355
15.0911
33.4178
15.5898
33.5844
16.1408
33.6852
16.6915
33.7772
17.1548
33.9532
17.6605
34.0634
18.1336
34.1851
34.3636
18.5396
0.759762
24.2671
1.53347
24.9725
2.31785
25.7577
3.1094
26.6129
3.90455
27.5255
4.69986
28.4791
5.49346
29.4517
6.28409
30.4193
7.05523
31.2364
7.77937
31.6001
8.56403
31.6644
9.31364
31.7448
9.96914
31.8844
10.7214
31.9253
11.4648
31.9856
12.0658
32.168
12.7494
32.2586
13.4908
32.2896
14.0784
32.4794
14.6879
32.62
15.332
32.6914
15.8813
32.8685
16.485
32.9807
17.074
33.0962
17.5616
33.2896
18.0973
33.4175
18.6063
33.5544
19.0601
33.7313
33.8707
19.5531
0.802662
23.4645
1.6202
24.155
2.44918
24.9287
3.28613
25.7759
4.12743
26.6842
4.96911
27.6374
5.80491
28.6159
6.62267
29.6016
7.4229
30.4362
8.27276
30.7502
9.04112
30.896
9.75418
31.0317
10.5851
31.0535
11.3505
31.1599
11.9942
31.3418
12.7432
31.419
13.5324
31.4694
14.1409
31.6811
14.789
31.8312
15.507
31.902
16.1155
32.083
16.7612
32.2228
17.3518
32.3901
17.8856
32.5624
18.4745
32.7007
19.0129
32.8791
19.5155
33.0518
20.0294
33.2174
33.4277
20.4723
0.844422
22.62
1.70421
23.2952
2.57591
24.057
3.45555
24.8963
4.33871
25.801
5.22044
26.7557
6.09686
27.7395
6.96846
28.73
7.85717
29.5474
8.64926
29.9581
9.44614
30.0991
10.3511
30.1268
11.1153
30.2893
11.8158
30.4594
12.654
30.5036
13.4678
30.6053
14.1114
30.8258
14.8213
30.9712
15.5797
31.0728
16.2436
31.2381
16.9297
31.3969
17.5439
31.6086
18.1524
31.7815
18.7799
31.9349
19.3155
32.1651
19.8873
32.3073
20.4217
32.5174
20.9058
32.7333
32.9474
21.3862
0.882297
21.7377
1.78097
22.3965
2.69211
23.1458
3.61185
23.9766
4.53639
24.8765
5.46251
25.8296
6.38695
26.815
7.3033
27.8136
8.16356
28.6872
9.0544
29.0673
9.99606
29.1575
10.7612
29.3617
11.5568
29.4937
12.4819
29.5343
13.2757
29.7098
13.9742
29.9068
14.7764
30.0235
15.5516
30.1961
16.2917
30.3327
16.996
30.5337
17.6286
30.7644
18.3172
30.9199
18.9807
31.1181
19.5841
31.3315
20.2192
31.53
20.7347
31.7918
21.2582
31.9939
21.7807
32.2108
32.4469
22.2811
0.9191
20.8186
1.85497
21.4607
2.80415
22.1967
3.76266
23.0181
4.72594
23.9132
5.68817
24.8673
6.64129
25.8619
7.57203
26.8829
8.53791
27.7213
9.49665
28.1086
10.2896
28.3645
11.1977
28.4536
12.1637
28.5277
12.9575
28.7404
13.7619
28.9053
14.6249
29.0438
15.4071
29.2414
16.2172
29.3859
16.9408
29.6092
17.6414
29.8331
18.4279
29.9779
19.0929
30.2548
19.7605
30.4506
20.3954
30.6966
20.9522
30.9733
21.5437
31.2002
22.1191
31.4185
22.6328
31.6971
31.9728
23.1069
0.95009
19.8685
1.91759
20.4932
2.89857
21.2157
3.88876
22.0279
4.88363
22.9183
5.87913
23.8718
6.87356
24.8674
7.87602
25.8804
8.83346
26.7639
9.7093
27.2327
10.7268
27.347
11.695
27.4854
12.5122
27.7106
13.4053
27.8472
14.3006
28.0101
15.1543
28.1902
16.035
28.3606
16.7746
28.6463
17.5468
28.8371
18.3638
29.0161
19.0598
29.2819
19.8091
29.5055
20.4587
29.8009
21.0828
30.0725
21.7506
30.3055
22.3398
30.611
22.876
30.8823
23.4035
31.1695
31.5022
23.8742
0.97687
18.8917
1.97167
19.4984
2.98071
20.2066
3.99999
21.0086
5.02539
21.8929
6.05215
22.8451
7.07356
23.846
8.06895
24.885
9.07047
25.7623
10.1249
26.1783
11.057
26.4149
11.9513
26.5911
12.9497
26.7122
13.875
26.9219
14.7837
27.1014
15.6718
27.3021
16.4733
27.5591
17.3591
27.7605
18.1814
28.0148
18.931
28.2665
19.7351
28.4778
20.4179
28.8228
21.125
29.0938
21.8394
29.3581
22.4456
29.6993
23.0665
29.9901
23.6095
30.3393
24.1352
30.6438
30.9993
24.6381
0.998946
17.8927
2.01599
18.4813
3.04761
19.175
4.0896
19.9666
5.1371
20.8454
6.18506
21.7971
7.22977
22.8013
8.28834
23.8265
9.32135
24.7293
10.32
25.1796
11.3146
25.4203
12.3473
25.5584
13.2841
25.7753
14.2403
25.9657
15.179
26.1627
16.0561
26.425
17.0248
26.5905
17.8546
26.9306
18.6983
27.1711
19.5304
27.4344
20.2335
27.7747
21.0509
28.0054
21.7752
28.3694
22.4395
28.6938
23.1211
29.0177
23.7001
29.4112
24.2995
29.7399
24.8031
30.1402
30.4933
25.3092
1.0142
16.8785
2.04684
17.4487
3.09442
18.1274
4.15307
18.9079
5.21884
19.7796
6.28781
20.7281
7.35637
21.7328
8.39981
22.783
9.4654
23.6637
10.4938
24.1513
11.5375
24.3765
12.5204
24.5755
13.5557
24.74
14.5568
24.9646
15.5056
25.2139
16.5054
25.4251
17.3502
25.7458
18.3136
25.9672
19.1697
26.315
19.971
26.633
20.8344
26.9113
21.5472
27.2926
22.339
27.5777
23.0311
28.0017
23.6794
28.3694
24.3177
28.7729
24.8674
29.1902
25.4642
29.5433
30.041
25.9165
1.02363
15.8549
2.06564
16.4067
3.12284
17.0702
4.19123
17.8396
5.26606
18.7048
6.34172
19.6525
7.40871
20.6658
8.4883
21.7034
9.58792
22.5641
10.6758
23.0634
11.6837
23.3686
12.7816
23.4776
13.7863
23.7353
14.8108
23.9401
15.7963
24.2285
16.7471
24.4743
17.7603
24.7327
18.6148
25.1127
19.5538
25.3759
20.4437
25.7432
21.2424
26.1125
22.0817
26.4533
22.7817
26.8777
23.5413
27.2421
24.2042
27.7065
24.8422
28.1349
25.456
28.5764
25.9513
29.048
29.5166
26.4756
1.02626
14.8286
2.07076
15.3622
3.13048
16.0105
4.20165
16.7684
5.28039
17.6261
6.3641
18.5688
7.46031
19.5696
8.56275
20.601
9.5913
21.5356
10.6931
21.9616
11.8667
22.195
12.8404
22.504
13.927
22.6487
14.9448
22.9222
16.0133
23.16
17.033
23.4545
17.9175
23.8482
18.9561
24.074
19.8822
24.4499
20.8053
24.8201
21.6619
25.2559
22.41
25.7053
23.2123
26.0753
23.9369
26.5175
24.6916
26.9517
25.3376
27.4889
25.9113
28.0028
26.4966
28.4627
29.0715
26.9418
1.02234
13.8063
2.06267
14.3218
3.11846
14.9547
4.18635
15.7005
5.26302
16.5494
6.34561
17.4862
7.41666
18.4985
8.45094
19.5667
9.63992
20.3466
10.7637
20.8378
11.7806
21.1781
12.9362
21.3484
14.0011
21.5838
15.1004
21.8229
16.1477
22.1127
17.1314
22.4708
18.2484
22.7312
19.1659
23.1565
20.1295
23.4863
21.0018
23.9478
21.9239
24.3338
22.8219
24.8073
23.5667
25.3306
24.3368
25.7474
25.0062
26.2824
25.7409
26.7541
26.3685
27.3752
26.8331
27.998
28.5408
27.3638
1.01162
12.7947
2.04061
13.2928
3.08464
13.9107
4.1399
14.6452
5.20158
15.4877
6.2623
16.4255
7.33084
17.43
8.47988
18.4177
9.53898
19.2875
10.6147
19.7621
11.8211
19.9717
12.9252
20.2444
14.0391
20.4698
15.0664
20.7957
16.1727
21.0064
17.2701
21.3735
18.2416
21.7596
19.3228
22.0753
20.258
22.5511
21.2596
22.9463
22.1139
23.4795
22.9949
23.9262
23.8911
24.4344
24.622
25.0164
25.3804
25.5239
25.9656
26.169
26.6389
26.702
27.2532
27.3837
28.1142
27.6798
0.994348
11.8003
2.00535
12.2819
3.03094
12.8851
4.06745
13.6087
5.11197
14.4432
6.16984
15.3676
7.2386
16.3612
8.25188
17.4044
9.40122
18.1382
10.6057
18.5577
11.6859
18.8915
12.8287
19.1016
13.8995
19.399
15.1026
19.5926
16.1355
19.9735
17.2459
20.263
18.3682
20.6373
19.3281
21.1155
20.3527
21.5265
21.2918
22.0072
22.3346
22.4366
23.2032
23.0576
24.0494
23.5883
24.8689
24.197
25.535
24.8578
26.2654
25.4385
26.829
26.1384
27.4923
26.7204
27.56
28.0466
0.9713
10.829
1.9584
11.2948
2.95991
11.8836
3.97242
12.5962
4.99317
13.4224
6.01092
14.3498
7.02316
15.349
8.15312
16.2744
9.24865
17.0426
10.3217
17.4846
11.5192
17.6939
12.6728
17.948
13.8837
18.1881
14.9506
18.5256
16.0883
18.8358
17.1639
19.1874
18.2232
19.578
19.3466
19.9921
20.353
20.5201
21.3758
20.9844
22.274
21.5384
23.3061
22.0255
24.1448
22.7496
24.9643
23.3774
25.7785
24.0436
26.4343
24.7827
27.1112
25.4614
27.5653
26.2664
26.9432
28.182
0.942505
9.88653
1.89974
10.3375
2.87048
10.9129
3.85013
11.6166
4.83285
12.4397
5.82946
13.3532
6.85947
14.319
7.8375
15.2964
8.98965
15.8905
10.2182
16.2561
11.3465
16.5656
12.4919
16.8027
13.5742
17.1058
14.7767
17.3231
15.8905
17.722
17.0548
18.0231
18.1359
18.4969
19.1583
18.9697
20.2804
19.398
21.311
19.9538
22.3329
20.5164
23.1999
21.1586
24.1998
21.7497
25.0233
22.5539
25.7846
23.2824
26.5553
24.012
27.1844
24.8324
27.809
25.6417
26.5616
28.1906
0.908626
8.9779
1.83085
9.41529
2.76585
9.97786
3.70894
10.6735
4.66192
11.4868
5.61157
12.4036
6.55322
13.3773
7.68071
14.1689
8.78196
14.7892
9.86524
15.1728
11.0284
15.4024
12.1755
15.6556
13.4081
15.8731
14.5065
16.2248
15.7025
16.526
16.7431
16.9825
17.919
17.321
19.0576
17.8312
20.0936
18.362
21.1679
18.8796
22.1698
19.5145
23.1802
20.1482
24.0168
20.913
25.021
21.5497
25.8391
22.4642
26.5549
23.2962
27.2583
24.1289
27.8119
25.0881
26.0303
28.3433
0.870443
8.10746
1.75349
8.53224
2.64882
9.08253
3.55081
9.77146
4.44801
10.5896
5.36406
11.4875
6.35639
12.385
7.31257
13.2127
8.43268
13.6691
9.64991
13.9556
10.7846
14.2677
11.9417
14.4986
13.0171
14.7977
14.1729
15.069
15.3198
15.3791
16.5738
15.7285
17.5955
16.2993
18.7653
16.6613
19.8811
17.2462
20.8962
17.8644
21.9652
18.4456
22.9663
19.1471
23.9935
19.8858
24.7972
20.746
25.7693
21.4922
26.5331
22.5324
27.193
23.469
27.848
24.4331
25.6064
28.2718
0.828432
7.27903
1.66861
7.69207
2.52022
8.23092
3.37373
8.91795
4.24098
9.72231
5.11577
10.6127
5.99228
11.5085
7.09971
12.1053
8.20436
12.5645
9.24113
12.9188
10.4039
13.105
11.5685
13.3339
12.7445
13.6217
13.855
13.9585
14.9705
14.2636
16.0412
14.6578
17.2995
15.041
18.3391
15.6217
19.5403
16.045
20.681
16.7237
21.6937
17.4329
22.7183
18.1225
23.6962
18.908
24.6962
19.7459
25.4942
20.6942
26.4316
21.595
27.1135
22.7871
27.7403
23.8063
25.0594
28.2874
0.78335
6.49568
1.57849
6.89693
2.38459
7.42481
3.1957
8.10685
3.99305
8.92495
4.81508
9.79071
5.80011
10.5235
6.74982
11.1556
7.81213
11.5022
8.98289
11.7481
10.0977
11.9902
11.1878
12.2438
12.2601
12.5494
13.4174
12.8012
14.5628
13.1182
15.7085
13.5121
16.7958
13.9537
18.0125
14.405
19.0289
15.0286
20.2205
15.5321
21.3412
16.3122
22.4054
17.0583
23.431
17.8824
24.4008
18.7762
25.3519
19.7431
26.1266
20.8203
26.969
21.9447
27.5588
23.2165
24.4685
28.1497
0.735837
5.75984
1.48457
6.1482
2.24475
6.66463
2.99392
7.35768
3.76731
8.15156
4.59984
8.95818
5.43761
9.68568
6.48849
10.1047
7.54737
10.4433
8.58752
10.7079
9.657
10.9207
10.7471
11.1537
11.8877
11.4088
12.988
11.7009
14.0965
12.0097
15.1791
12.4295
16.3213
12.8116
17.4416
13.2847
18.6496
13.8206
19.6731
14.5085
20.8919
15.0933
21.9807
15.9695
23.0601
16.8029
24.0752
17.7612
25.0068
18.8115
25.9273
19.8998
26.6783
21.1938
27.3899
22.5049
23.9661
27.8922
0.686641
5.0732
1.38997
5.44487
2.09899
5.95561
2.81315
6.64352
3.52217
7.44255
4.29841
8.18194
5.25506
8.72903
6.17058
9.18917
7.18639
9.42748
8.24354
9.65078
9.29108
9.87315
10.3253
10.1195
11.3808
10.3533
12.4748
10.6068
13.535
10.9495
14.6839
11.2806
15.7714
11.7241
16.9155
12.1407
18.0398
12.6963
19.2074
13.3409
20.2729
14.0277
21.4791
14.7634
22.5731
15.7089
23.6606
16.6737
24.6847
17.7874
25.5451
19.0394
26.4283
20.3106
27.1081
21.8251
23.3642
27.71
0.637148
4.43605
1.29642
4.78559
1.9615
5.29054
2.60714
5.99787
3.31451
6.73518
4.10983
7.38663
4.9235
7.91536
5.92083
8.19184
6.89339
8.45492
7.85935
8.68483
8.82827
8.90423
9.86572
9.08204
10.8975
9.32149
11.9581
9.54627
13.0016
9.90603
14.0656
10.2166
15.1985
10.5912
16.2759
11.0633
17.4266
11.5455
18.5822
12.1854
19.7482
12.8617
20.8333
13.6783
22.053
14.4892
23.1171
15.6095
24.2317
16.6727
25.2077
18.0634
26.0321
19.4862
26.8286
21.0287
22.8194
27.3734
0.58933
3.84672
1.20869
4.16623
1.81777
4.68146
2.437
5.37864
3.10243
6.06975
3.85404
6.63502
4.75956
7.00984
5.60788
7.34351
6.51284
7.54996
7.4526
7.74506
8.44198
7.91486
9.40946
8.11457
10.4043
8.32665
11.3825
8.5681
12.4008
8.88767
13.4562
9.16118
14.5292
9.51822
15.6544
9.93803
16.7262
10.4738
17.8909
11.0207
19.0814
11.6712
20.2645
12.4952
21.4005
13.3532
22.5888
14.4212
23.6504
15.6112
24.739
16.9748
25.6703
18.5549
26.442
20.257
22.1524
27.1089
0.545715
3.301
1.1254
3.58654
1.68403
4.12283
2.26205
4.80063
2.91669
5.4151
3.67841
5.8733
4.44863
6.23962
5.32503
6.46711
6.20058
6.67441
7.08539
6.86025
7.9895
7.01075
8.90504
7.19902
9.86267
7.36902
10.7948
7.63598
11.825
7.8575
12.8335
8.15265
13.8813
8.47046
14.9293
8.88998
16.0431
9.35995
17.1478
9.91602
18.3432
10.4758
19.5277
11.3107
20.751
12.1298
21.9089
13.2632
23.0938
14.4263
24.1588
15.9097
25.2141
17.4996
26.0652
19.4059
21.4804
26.7372
0.507803
2.7932
1.04406
3.05028
1.55597
3.61092
2.09894
4.25766
2.74297
4.77108
3.44581
5.17046
4.23787
5.44756
5.0139
5.69109
5.83922
5.84908
6.69015
6.00932
7.54668
6.15422
8.42384
6.32187
9.32151
6.47135
10.2372
6.72025
11.1963
6.89845
12.1838
7.16512
13.1469
7.50735
14.2306
7.80631
15.2621
8.32844
16.4032
8.77497
17.5502
9.32879
18.7505
10.1104
19.9791
10.9013
21.2271
12.0152
22.4167
13.2367
23.6066
14.7199
24.6732
16.433
25.6363
18.4428
20.7496
26.3671
0.472758
2.32044
0.962339
2.5607
1.41677
3.15649
1.95903
3.7154
2.55922
4.17089
3.24569
4.48398
3.94868
4.74457
4.72855
4.91122
5.48976
5.08788
6.30351
5.19556
7.10242
5.35532
7.94939
5.4749
8.77838
5.64235
9.68338
5.81525
10.5709
6.01094
11.525
6.21105
12.4606
6.57175
13.4566
6.81029
14.5242
7.26079
15.5799
7.71933
16.7389
8.16971
17.9124
8.93689
19.1545
9.6593
20.4386
10.731
21.7261
11.9492
22.9467
13.4993
24.15
15.2298
25.1571
17.4357
19.9236
25.9831
0.436041
1.8844
0.863297
2.13345
1.30048
2.7193
1.79236
3.22352
2.3925
3.57075
3.02429
3.85219
3.70889
4.05997
4.4045
4.21561
5.16966
4.32272
5.88439
4.48083
6.67269
4.56701
7.45651
4.69108
8.257
4.84187
9.10945
4.96279
9.95313
5.16726
10.8476
5.31657
11.7587
5.66067
12.7228
5.84621
13.7088
6.27476
14.8049
6.62322
15.8483
7.12636
17.0472
7.73793
18.2533
8.45325
19.564
9.42033
20.925
10.5882
22.2727
12.1516
23.5303
13.9721
24.6922
16.2738
19.0578
25.558
0.389741
1.49466
0.764439
1.75875
1.16939
2.31435
1.65456
2.73836
2.21768
3.00763
2.81428
3.2556
3.46149
3.41275
4.11773
3.55937
4.80991
3.63054
5.50293
3.78781
6.25097
3.81897
6.97779
3.96427
7.75682
4.06283
8.53184
4.18777
9.35581
4.3433
10.1775
4.49492
11.0611
4.77702
11.9775
4.92983
12.9374
5.31483
13.9352
5.6254
15.022
6.03958
16.1202
6.63975
17.3683
7.20513
18.6215
8.16718
20.0403
9.1694
21.4873
10.7045
22.9063
12.5532
24.1733
15.0068
18.0239
25.2072
0.337084
1.15758
0.661614
1.43422
1.06027
1.91569
1.50892
2.28971
2.05863
2.45792
2.60859
2.70563
3.22035
2.801
3.82681
2.95292
4.48686
2.97049
5.12499
3.14967
5.84936
3.0946
6.48864
3.32499
7.26391
3.28755
7.94161
3.51007
8.7729
3.51201
9.51065
3.75717
10.3814
3.90627
11.2222
4.08901
12.1668
4.37024
13.1084
4.68383
14.1395
5.00848
15.2396
5.53964
16.4066
6.03813
17.6854
6.88833
19.0802
7.77468
20.5701
9.21453
22.1744
10.9489
23.6189
13.5623
16.7685
24.8743
0.282641
0.874936
0.573064
1.1438
0.958352
1.5304
1.37065
1.8774
1.91114
1.91744
2.4075
2.20928
2.98629
2.22221
3.5512
2.38801
4.17667
2.34502
4.77651
2.54983
5.42668
2.44443
6.05589
2.69577
6.76241
2.58104
7.43456
2.83791
8.17268
2.77389
8.90138
3.02847
9.70125
3.1064
10.4968
3.29344
11.3899
3.47719
12.2798
3.79388
13.281
4.00726
14.3049
4.51574
15.4884
4.85471
16.6796
5.6971
18.1468
6.30744
19.5748
7.78652
21.4333
9.09048
22.9633
12.0323
15.1823
24.5495
0.234335
0.640601
0.500971
0.87716
0.861866
1.16951
1.25596
1.48331
1.75699
1.4164
2.2078
1.75847
2.77867
1.65134
3.27707
1.8896
3.87356
1.74854
4.43618
1.9872
5.03993
1.84068
5.63334
2.10237
6.29149
1.92289
6.91732
2.21208
7.60261
2.0886
8.27318
2.3579
9.05192
2.32766
9.76748
2.57787
10.6414
2.60328
11.4538
2.98152
12.4531
3.00791
13.4006
3.56821
14.5838
3.6715
15.733
4.54792
17.2109
4.82961
18.7014
6.29601
20.6251
7.16673
22.4433
10.2141
13.2779
24.3476
0.194745
0.445856
0.441721
0.630184
0.778054
0.833175
1.14461
1.11675
1.62011
0.940904
2.04951
1.32907
2.55047
1.15038
3.04266
1.39742
3.58337
1.20783
4.1067
1.46387
4.65216
1.29523
5.2451
1.50942
5.81097
1.35702
6.44571
1.57735
7.04875
1.48556
7.73933
1.66733
8.41606
1.65094
9.16693
1.827
9.91602
1.85419
10.7774
2.12013
11.6283
2.15699
12.6414
2.55518
13.6584
2.65445
14.9171
3.28924
16.2177
3.52903
17.9028
4.61091
19.7073
5.36216
22.1884
7.73302
10.7681
24.6982
0.164596
0.28126
0.399608
0.395172
0.693052
0.539731
1.07764
0.732165
1.46165
0.556894
1.9205
0.870213
2.33574
0.735141
2.84133
0.891829
3.29145
0.757708
3.83284
0.922472
4.30964
0.818432
4.8929
0.92616
5.38676
0.86317
5.99113
0.972978
6.53325
0.94343
7.16167
1.03891
7.7647
1.0479
8.44274
1.14896
9.11737
1.17956
9.90013
1.33737
10.6816
1.37557
11.6179
1.6188
12.5741
1.6983
13.7659
2.0974
15.024
2.27095
16.6662
2.96871
18.5389
3.48944
21.4547
4.81724
7.47556
24.7472
0.146921
0.134339
0.357945
0.184148
0.631645
0.266031
1.01479
0.349018
1.31743
0.254262
1.7702
0.417435
2.15738
0.347961
2.62314
0.42607
3.03318
0.347675
3.5272
0.428443
3.96341
0.382224
4.45389
0.435679
4.91047
0.406595
5.42292
0.460525
5.92257
0.443781
6.46794
0.493546
7.0214
0.494432
7.62342
0.546938
8.24584
0.557144
8.94526
0.637949
9.67198
0.64885
10.5158
0.774949
11.4142
0.799972
12.5018
1.00978
13.7044
1.06837
15.2323
1.44075
17.0475
1.67424
19.999
1.86581
4.06611
23.4084
0.134339
0.318487
0.584519
0.933536
1.1878
1.60523
1.95319
2.37926
2.72694
3.15538
3.53761
3.97329
4.37988
4.84041
5.28419
5.77773
6.27216
6.8191
7.37625
8.0142
8.66305
9.438
10.238
11.2477
12.3161
13.7569
15.4311
17.2969
21.363
1.02415
54.1269
1.03705
54.1273
1.04976
54.1275
1.06226
54.1277
1.07457
54.1279
1.08667
54.1281
1.09857
54.1283
1.11025
54.1286
1.12171
54.1288
1.13293
54.129
1.14391
54.1293
1.15462
54.1295
1.16505
54.1298
1.17518
54.1301
1.185
54.1304
1.19449
54.1307
1.20364
54.1311
1.21243
54.1314
1.22085
54.1318
1.22887
54.1322
1.23649
54.1326
1.24368
54.133
1.25043
54.1335
1.25674
54.1339
1.26258
54.1344
1.26795
54.1349
1.27283
54.1354
1.27722
54.1359
1.2811
54.1364
1.28446
54.1369
1.28731
54.1374
1.28963
54.1379
1.29142
54.1384
1.29269
54.139
1.29337
54.1396
1.29344
54.1402
1.2929
54.1408
1.29173
54.1414
1.28995
54.142
1.28756
54.1426
1.28457
54.1432
1.28097
54.1438
1.27676
54.1444
1.27196
54.145
1.26656
54.1456
1.26055
54.1462
1.25394
54.1468
1.24673
54.1474
1.23892
54.148
1.23051
54.1487
1.22148
54.1493
1.21184
54.1499
1.20158
54.1505
1.1907
54.1511
1.17919
54.1517
1.16706
54.1524
1.15431
54.153
1.14096
54.1536
1.12701
54.1542
1.11252
54.1547
1.09754
54.1552
1.08211
54.1557
1.06625
54.1561
1.04996
54.1565
1.03327
54.1569
1.01617
54.1573
0.998698
54.1577
0.980863
54.1581
0.962676
54.1584
0.944161
54.1588
0.925331
54.1591
0.906203
54.1594
0.886792
54.1596
0.867121
54.1599
0.847202
54.1602
0.82705
54.1604
0.806687
54.1606
0.786125
54.1608
0.765388
54.161
0.744487
54.1611
0.723436
54.1613
0.70225
54.1614
0.68095
54.1615
0.65955
54.1616
0.63807
54.1617
0.616521
54.1618
0.594926
54.1618
0.573292
54.1619
0.551648
54.1619
0.530046
54.1618
0.508545
54.1617
0.487191
54.1616
0.466044
54.1614
0.445147
54.1611
0.424558
54.1608
0.404323
54.1605
0.3845
54.1601
0.365142
54.1596
0.34631
54.1591
0.328065
54.1585
0.310469
54.1578
0.293532
54.1572
0.277228
54.1565
0.261538
54.1559
0.246424
54.1553
0.231861
54.1548
0.217823
54.1543
0.204303
54.1538
0.191294
54.1532
0.178804
54.1527
0.166833
54.1522
0.155378
54.1517
0.14416
54.1515
0.133105
54.1513
0.122214
54.1511
0.111457
54.151
0.100759
54.1509
0.0900939
54.1509
0.0792458
54.1511
0.0679728
54.1515
0.0560753
54.1521
0.0434336
54.1529
0.0299764