/*--------------------------------*- C++ -*----------------------------------*\
| =========                 |                                                 |
| \\      /  F ield         | OpenFOAM: The Open Source CFD Toolbox           |
|  \\    /   O peration     | Version:  5.x                                   |
|   \\  /    A nd           | Web:      www.OpenFOAM.org                      |
|    \\/     M anipulation  |                                                 |
\*---------------------------------------------------------------------------*/
/*   Windows 32 and 64 bit porting by blueCAPE: http://www.bluecape.com.pt   *\
|  Based on Windows porting (2.0.x v4) by Symscape: http://www.symscape.com   |
\*---------------------------------------------------------------------------*/
FoamFile
{
    version     2.0;
    format      ascii;
    class       volVectorField;
    location    "100";
    object      U;
}
// * * * * * * * * * * * * * * * * * * * * * * * * * * * * * * * * * * * * * //

dimensions      [0 1 -1 0 0 0 0];

internalField   nonuniform List<vector> 
43900
(
(1.16062 -0.00013994 -2.09531e-027)
(1.16782 0.00158581 -5.6211e-027)
(1.16975 0.000508421 2.4213e-030)
(1.16921 0.00167224 2.465e-030)
(1.17006 0.000947158 3.5222e-030)
(1.1701 0.00163548 3.53548e-030)
(1.17023 0.00141095 7.50372e-027)
(1.17033 0.00154536 -1.49989e-026)
(1.17034 0.00174889 9.10861e-030)
(1.17041 0.00161046 -1.49689e-026)
(1.17045 0.00177817 1.49902e-026)
(1.17049 0.00178036 1.06266e-029)
(1.17053 0.00182327 -1.49376e-026)
(1.17057 0.00186091 2.26753e-029)
(1.1706 0.00189512 2.32489e-029)
(1.17063 0.00192676 2.37829e-029)
(1.17065 0.00195643 -2.9779e-026)
(1.17068 0.00198419 4.94962e-029)
(1.1707 0.00201056 2.98037e-026)
(1.17072 0.00203391 2.56025e-029)
(1.17072 0.00205992 2.59874e-029)
(1.17072 0.00208479 2.63497e-029)
(1.17072 0.00210895 2.66959e-029)
(1.17072 0.00213259 2.70267e-029)
(1.17072 0.00215596 2.73424e-029)
(1.17072 0.00217898 -2.9539e-026)
(1.17072 0.00220162 5.58665e-029)
(1.17072 0.00222404 5.6419e-029)
(1.17072 0.00224668 1.17984e-025)
(1.16013 0.008874 0)
(1.16577 -0.00326349 0)
(1.16918 0.0069111 0)
(1.16592 0.000582334 0)
(1.16785 0.00482936 0)
(1.16737 0.00304463 0)
(1.16755 0.00393168 0)
(1.16801 0.00455174 0)
(1.16819 0.00400845 0)
(1.16831 0.00495435 0)
(1.16835 0.00487859 0)
(1.16839 0.0051418 0)
(1.16841 0.00534983 0)
(1.16844 0.00552631 0)
(1.16846 0.00568973 0)
(1.16848 0.00584183 0)
(1.16849 0.00598383 0)
(1.1685 0.0061175 0)
(1.16851 0.00624416 0)
(1.16852 0.00636468 0)
(1.16853 0.00647585 0)
(1.16854 0.00658084 0)
(1.16855 0.00668051 0)
(1.16856 0.00677533 0)
(1.16857 0.00686511 0)
(1.16858 0.00695047 0)
(1.16859 0.00703182 0)
(1.1686 0.00710853 0)
(1.16862 0.00718155 0)
(1.11095 0.0289856 0)
(1.15072 -0.015687 0)
(1.16491 0.0254533 0)
(1.16378 -0.00386113 0)
(1.16641 0.0174576 0)
(1.16451 0.00306057 0)
(1.16583 0.0121109 0)
(1.16492 0.00695353 0)
(1.16523 0.00944576 0)
(1.16535 0.00869421 0)
(1.16559 0.00874779 0)
(1.16583 0.00898476 0)
(1.16603 0.00907781 0)
(1.16621 0.00918543 0)
(1.16636 0.00930067 0)
(1.1665 0.00941891 0)
(1.16661 0.00953759 0)
(1.16671 0.00965535 0)
(1.16679 0.00977085 0)
(1.16686 0.00988421 0)
(1.16694 0.00999198 0)
(1.16701 0.0100973 0)
(1.16708 0.0101989 0)
(1.16714 0.0102977 0)
(1.1672 0.0103937 0)
(1.16725 0.0104878 0)
(1.1673 0.0105786 0)
(1.16735 0.0106667 0)
(1.1674 0.0107528 2.06817e-027)
(1.04906 0.0217747 0)
(1.09853 -0.00860215 0)
(1.14187 0.0218333 0)
(1.16189 0.00506694 0)
(1.16436 0.0213962 0)
(1.16513 0.00817063 0)
(1.16578 0.0186869 0)
(1.16575 0.0112832 0)
(1.16615 0.0158556 0)
(1.16616 0.0134441 0)
(1.16621 0.0143184 0)
(1.16625 0.0141962 0)
(1.16631 0.0141791 0)
(1.16638 0.0142048 0)
(1.16645 0.0142465 0)
(1.16654 0.014301 0)
(1.16664 0.0143655 0)
(1.16675 0.014439 0)
(1.16688 0.0145191 0)
(1.16701 0.0146077 0)
(1.16714 0.0147027 0)
(1.16725 0.0148041 0)
(1.16736 0.014911 0)
(1.16746 0.0150213 0)
(1.16756 0.0151345 0)
(1.16765 0.0152496 0)
(1.16774 0.0153692 0)
(1.16782 0.01549 0)
(1.1679 0.0156092 2.19019e-027)
(1.01228 0.0108937 4.42522e-027)
(1.05052 -0.00161411 0)
(1.09073 0.0116524 0)
(1.13122 0.0119941 0)
(1.15575 0.018566 0)
(1.16419 0.0146584 0)
(1.16452 0.0203548 0)
(1.16484 0.0161461 0)
(1.16488 0.0192913 0)
(1.16499 0.0178118 0)
(1.16508 0.0185742 0)
(1.16522 0.01859 0)
(1.16538 0.0186355 0)
(1.16553 0.0187012 0)
(1.16567 0.0187773 0)
(1.16581 0.0188562 0)
(1.16595 0.0189392 0)
(1.16608 0.0190266 0)
(1.16615 0.0191253 0)
(1.16622 0.0192332 0)
(1.16629 0.0193498 0)
(1.16637 0.0194741 0)
(1.16644 0.0196059 0)
(1.16651 0.0197445 0)
(1.16659 0.0198899 0)
(1.16666 0.0200367 0)
(1.16673 0.0201856 0)
(1.16681 0.0203401 0)
(1.16688 0.0205003 -9.25122e-027)
(0.984888 0.00663569 -4.62051e-027)
(1.01712 0.000441252 0)
(1.05107 0.00746159 0)
(1.08633 0.0105662 0)
(1.12162 0.0144585 0)
(1.15001 0.0163647 0)
(1.16134 0.0199284 0)
(1.16275 0.0178134 0)
(1.16272 0.0199151 0)
(1.16289 0.0189192 0)
(1.16307 0.019551 0)
(1.16322 0.0196838 0)
(1.16318 0.019803 0)
(1.16312 0.0199931 0)
(1.16306 0.0201944 0)
(1.16299 0.0203984 0)
(1.16292 0.0206079 0)
(1.16285 0.0208242 0)
(1.16279 0.0210437 0)
(1.16274 0.0212647 0)
(1.1627 0.021488 0)
(1.16269 0.0217124 0)
(1.16268 0.0219382 0)
(1.16268 0.0221664 0)
(1.16269 0.0223983 0)
(1.16271 0.0226337 0)
(1.16273 0.0228682 0)
(1.16277 0.0231047 0)
(1.16282 0.0233443 4.89463e-027)
(0.964078 0.00443611 0)
(0.992976 0.000973463 0)
(1.02347 0.00534344 0)
(1.05531 0.00791816 0)
(1.08768 0.0106667 0)
(1.11925 0.0134639 0)
(1.14742 0.0168093 0)
(1.15973 0.0167646 0)
(1.16115 0.0185597 0)
(1.16094 0.0177624 0)
(1.16072 0.0184569 0)
(1.16045 0.0187431 0)
(1.16027 0.0190763 0)
(1.1601 0.019457 0)
(1.15995 0.0198364 0)
(1.1598 0.020217 0)
(1.15966 0.0206 0)
(1.15954 0.0209853 0)
(1.15944 0.0213691 0)
(1.15935 0.0217512 0)
(1.15927 0.0221328 0)
(1.15922 0.0225115 0)
(1.15917 0.0228894 0)
(1.15913 0.0232653 0)
(1.1591 0.0236382 0)
(1.15908 0.0240125 0)
(1.15907 0.0243846 0)
(1.15908 0.0247526 0)
(1.1591 0.025117 0)
(0.949264 0.00274649 0)
(0.976149 0.00134869 0)
(1.00458 0.00406181 0)
(1.03433 0.00611136 0)
(1.06482 0.00818807 0)
(1.09522 0.0104281 0)
(1.12416 0.0128432 0)
(1.14942 0.0146786 0)
(1.15796 0.0162512 0)
(1.1583 0.0161729 0)
(1.15799 0.0169881 0)
(1.15763 0.0175228 0)
(1.1574 0.0180794 0)
(1.15721 0.0186727 0)
(1.15704 0.0192616 0)
(1.15689 0.0198513 0)
(1.15677 0.020441 0)
(1.15667 0.0210297 0)
(1.15659 0.0216159 0)
(1.15654 0.0221988 0)
(1.1565 0.0227803 0)
(1.15648 0.0233557 0)
(1.15647 0.0239287 0)
(1.15648 0.0244964 0)
(1.15649 0.0250568 0)
(1.15652 0.0256124 0)
(1.15656 0.0261637 0)
(1.15662 0.0267077 0)
(1.15669 0.0272422 0)
(0.936656 0.00173141 0)
(0.962527 0.00171959 0)
(0.989928 0.0036459 0)
(1.01857 0.00542783 0)
(1.048 0.0072117 0)
(1.07758 0.00907605 0)
(1.10637 0.0110094 0)
(1.133 0.0128944 0)
(1.15025 0.0147471 0)
(1.15296 0.015322 0)
(1.15279 0.0162173 0)
(1.15255 0.0169607 0)
(1.15238 0.0177329 0)
(1.15224 0.0185193 0)
(1.15213 0.0192951 0)
(1.15205 0.0200677 0)
(1.15199 0.0208362 0)
(1.15195 0.0215999 0)
(1.15194 0.0223597 0)
(1.15194 0.0231138 0)
(1.15196 0.0238644 0)
(1.152 0.0246071 0)
(1.15205 0.0253465 0)
(1.15212 0.0260791 0)
(1.15221 0.0268039 0)
(1.1523 0.0275204 0)
(1.15241 0.0282305 0)
(1.15254 0.0289321 0)
(1.15268 0.0296277 0)
(0.924979 0.00143239 0)
(0.950118 0.00178115 0)
(0.976851 0.0034614 0)
(1.00484 0.00508724 0)
(1.03363 0.00669996 0)
(1.06267 0.00835025 0)
(1.09118 0.0100323 0)
(1.11794 0.0117119 0)
(1.13835 0.0134744 0)
(1.1436 0.0145589 0)
(1.14367 0.0156241 0)
(1.14354 0.0165973 0)
(1.14345 0.0176194 0)
(1.14338 0.0186289 0)
(1.14335 0.0196209 0)
(1.14334 0.0206007 0)
(1.14336 0.0215682 0)
(1.1434 0.0225232 0)
(1.14346 0.023467 0)
(1.14354 0.0243989 0)
(1.14365 0.0253197 0)
(1.14376 0.0262278 0)
(1.1439 0.0271274 0)
(1.14405 0.0280149 0)
(1.14423 0.0288912 0)
(1.14443 0.0297547 0)
(1.14464 0.0306068 0)
(1.14487 0.0314454 0)
(1.14511 0.0322763 -1.27185e-026)
(0.914607 0.00104663 0)
(0.939277 0.00182722 0)
(0.965524 0.00329539 0)
(0.993067 0.00477897 0)
(1.02149 0.00626607 0)
(1.05025 0.00777808 0)
(1.07858 0.00930374 0)
(1.10532 0.0108145 0)
(1.12686 0.0124649 0)
(1.13339 0.0138422 0)
(1.13368 0.0150871 0)
(1.13367 0.016299 0)
(1.13367 0.0175494 0)
(1.13371 0.0187783 0)
(1.13377 0.0199873 0)
(1.13386 0.0211786 0)
(1.13396 0.0223523 0)
(1.1341 0.0235081 0)
(1.13425 0.024647 0)
(1.13443 0.0257688 0)
(1.13464 0.0268733 0)
(1.13484 0.0279609 0)
(1.13507 0.0290329 0)
(1.13533 0.0300881 0)
(1.13561 0.0311271 0)
(1.13592 0.032148 0)
(1.13624 0.0331535 0)
(1.13658 0.0341398 0)
(1.13693 0.0351107 1.34338e-026)
(0.905007 0.000786596 0)
(0.92937 0.0019796 0)
(0.955309 0.00342081 0)
(0.982515 0.00488335 0)
(1.01062 0.00636336 0)
(1.03914 0.00787038 0)
(1.06737 0.0093893 0)
(1.09418 0.0108879 0)
(1.11627 0.0125426 0)
(1.12346 0.0140971 0)
(1.12397 0.015463 0)
(1.12411 0.0168404 0)
(1.12427 0.0182518 0)
(1.12444 0.0196448 0)
(1.12464 0.0210211 0)
(1.12486 0.0223801 0)
(1.12511 0.0237214 0)
(1.12537 0.0250455 0)
(1.12566 0.0263504 0)
(1.12597 0.0276378 0)
(1.12631 0.0289066 0)
(1.12665 0.0301548 0)
(1.12701 0.0313861 0)
(1.1274 0.0325965 0)
(1.12782 0.0337868 0)
(1.12825 0.0349593 0)
(1.12871 0.0361093 0)
(1.12918 0.0372397 0)
(1.12967 0.03835 1.46224e-026)
(0.895096 0.000711691 0)
(0.919213 0.00222494 0)
(0.944943 0.00380885 0)
(0.971968 0.00539448 0)
(0.999885 0.00699469 0)
(1.0282 0.00861408 0)
(1.05626 0.0102393 0)
(1.08303 0.0118401 0)
(1.10539 0.0136098 0)
(1.11298 0.0153366 0)
(1.11367 0.0168249 0)
(1.11394 0.0183533 0)
(1.11422 0.0199141 0)
(1.11454 0.0214614 0)
(1.11487 0.022992 0)
(1.11523 0.0245072 0)
(1.11561 0.0260065 0)
(1.11602 0.0274857 0)
(1.11646 0.0289499 0)
(1.11691 0.0303938 0)
(1.11741 0.0318165 0)
(1.11789 0.0332248 0)
(1.1184 0.034606 0)
(1.11896 0.0359679 0)
(1.11952 0.0373137 0)
(1.12011 0.0386277 0)
(1.12074 0.039928 0)
(1.12136 0.0412048 0)
(1.12203 0.0424529 -1.54508e-026)
(0.884486 0.000752093 0)
(0.908377 0.0025262 0)
(0.93391 0.00430643 0)
(0.960777 0.00608252 0)
(0.98858 0.00787339 0)
(1.01681 0.00967818 0)
(1.04479 0.0114755 0)
(1.07146 0.0132318 0)
(1.0938 0.0151706 0)
(1.10155 0.0171037 0)
(1.10237 0.0187683 0)
(1.10273 0.0204865 0)
(1.10312 0.0222402 0)
(1.10353 0.023974 0)
(1.10399 0.0256951 0)
(1.10445 0.0273963 0)
(1.10498 0.0290752 0)
(1.10551 0.0307429 0)
(1.10607 0.0323814 0)
(1.10669 0.0339999 0)
(1.1073 0.035607 0)
(1.10795 0.0371724 0)
(1.10865 0.0387282 0)
(1.10931 0.0402615 0)
(1.11008 0.0417466 0)
(1.11084 0.0432385 0)
(1.11159 0.0446821 0)
(1.11245 0.0460954 0)
(1.11327 0.0475071 -1.69079e-026)
(0.87313 0.00084238 0)
(0.896799 0.00286518 0)
(0.922145 0.00487723 0)
(0.948862 0.00688185 0)
(0.976558 0.00890161 0)
(1.00473 0.0109336 0)
(1.03269 0.0129514 0)
(1.05938 0.014914 0)
(1.08162 0.0170759 0)
(1.08937 0.0192433 0)
(1.09029 0.0211268 0)
(1.09075 0.0230782 0)
(1.09123 0.025054 0)
(1.09177 0.0270257 0)
(1.09229 0.0289645 0)
(1.09294 0.0308853 0)
(1.09354 0.0327955 0)
(1.09421 0.0346601 0)
(1.09498 0.0365171 0)
(1.09562 0.0383565 0)
(1.09649 0.0401322 0)
(1.0973 0.04193 0)
(1.09803 0.0436755 0)
(1.09905 0.045361 0)
(1.09989 0.0470966 0)
(1.10077 0.0487187 0)
(1.10189 0.0503448 0)
(1.10277 0.0519739 0)
(1.1038 0.0534987 1.78729e-026)
(0.860937 0.000966914 0)
(0.884377 0.00326055 0)
(0.909537 0.00554975 0)
(0.936112 0.00782904 0)
(0.963711 0.0101227 0)
(0.991831 0.0124276 0)
(1.0198 0.014714 0)
(1.04655 0.0169368 0)
(1.06876 0.0193818 0)
(1.07649 0.0218278 0)
(1.07751 0.0239577 0)
(1.07809 0.0261582 0)
(1.07871 0.0284151 0)
(1.07928 0.0306197 0)
(1.0801 0.0328267 0)
(1.08069 0.0350074 0)
(1.08157 0.0371318 0)
(1.08245 0.0392696 0)
(1.0831 0.0413697 0)
(1.08429 0.0433846 0)
(1.08508 0.0454737 0)
(1.08597 0.0474426 0)
(1.08732 0.0493648 0)
(1.08806 0.0513967 0)
(1.08924 0.0531778 0)
(1.09063 0.0550854 0)
(1.09142 0.0569436 0)
(1.09285 0.0586254 0)
(1.09419 0.0604579 0)
(0.847778 0.00111896 0)
(0.870975 0.0037215 0)
(0.89594 0.00633686 0)
(0.92237 0.00894055 0)
(0.949875 0.0115581 0)
(0.977954 0.0141862 0)
(1.00593 0.0167906 0)
(1.03277 0.0193228 0)
(1.05501 0.022119 0)
(1.0627 0.024867 0)
(1.06392 0.0272823 0)
(1.06459 0.0297916 0)
(1.06525 0.0322994 0)
(1.06627 0.0348371 0)
(1.06674 0.0373105 0)
(1.06802 0.0397439 0)
(1.06882 0.0421936 0)
(1.06957 0.0445889 0)
(1.07122 0.0468675 0)
(1.07172 0.0493035 0)
(1.07307 0.0514961 0)
(1.07469 0.0537002 0)
(1.07514 0.0560829 0)
(1.07702 0.0579871 0)
(1.07843 0.0602824 0)
(1.07912 0.062346 0)
(1.08128 0.0642094 0)
(1.08252 0.0663982 0)
(1.08358 0.0681968 0)
(0.833556 0.00129451 0)
(0.856491 0.00424868 0)
(0.881247 0.00723777 0)
(0.907525 0.0102136 0)
(0.934934 0.0132031 0)
(0.962977 0.0162024 0)
(0.990978 0.0191726 0)
(1.01792 0.0220701 0)
(1.04014 0.0252261 0)
(1.04806 0.0283831 0)
(1.04922 0.0310847 0)
(1.0501 0.0339138 0)
(1.05123 0.0368006 0)
(1.05155 0.0396281 0)
(1.05345 0.0424166 0)
(1.05377 0.0452049 0)
(1.05503 0.0479648 0)
(1.05701 0.0505028 0)
(1.05699 0.053403 0)
(1.05931 0.0557994 0)
(1.06072 0.0583559 0)
(1.06105 0.0611783 0)
(1.06394 0.063137 0)
(1.06486 0.0659967 0)
(1.06582 0.0682218 0)
(1.06882 0.0703207 0)
(1.06954 0.0729876 0)
(1.07114 0.0748494 0)
(1.07395 0.0771334 0)
(0.818203 0.00149299 5.13619e-026)
(0.840855 0.00484374 0)
(0.865389 0.00825446 0)
(0.891504 0.0116502 0)
(0.918816 0.0150592 0)
(0.946823 0.0184773 0)
(0.974855 0.0218588 0)
(1.00193 0.0251417 0)
(1.02435 0.0288223 0)
(1.03197 0.0322427 0)
(1.03381 0.0354382 0)
(1.03481 0.0385624 0)
(1.03514 0.0418857 0)
(1.03769 0.0449754 0)
(1.03723 0.0482296 0)
(1.03963 0.0513974 0)
(1.04129 0.0541799 0)
(1.04101 0.0577509 0)
(1.04453 0.0601831 0)
(1.04512 0.0632827 0)
(1.04598 0.0665774 0)
(1.04965 0.0684678 0)
(1.04984 0.0721898 0)
(1.05165 0.074407 0)
(1.05505 0.0768201 0)
(1.05528 0.0800921 0)
(1.05779 0.0818737 0)
(1.0608 0.0846801 0)
(1.06133 0.0870961 0)
(0.801667 0.00171633 1.76668e-027)
(0.824014 0.00551156 0)
(0.848309 0.00939523 0)
(0.874255 0.0132623 0)
(0.901469 0.0171421 0)
(0.929454 0.0210298 0)
(0.957545 0.024875 0)
(0.984759 0.0286572 0)
(1.00693 0.0326281 0)
(1.01572 0.0368464 0)
(1.01676 0.0400552 0)
(1.01769 0.0440003 0)
(1.02057 0.0472371 0)
(1.01941 0.0513282 0)
(1.02311 0.0546451 0)
(1.02374 0.0578709 0)
(1.02401 0.0621928 0)
(1.02842 0.064498 0)
(1.02818 0.068516 0)
(1.03004 0.0720831 0)
(1.03384 0.0740236 0)
(1.03375 0.0788031 0)
(1.03632 0.0807154 0)
(1.03986 0.0837496 0)
(1.04017 0.0876592 0)
(1.04327 0.0891918 0)
(1.04644 0.0928148 0)
(1.04721 0.0953745 0)
(1.05082 0.0976489 0)
(0.783901 0.00196564 -5.94714e-026)
(0.80592 0.00625578 0)
(0.829959 0.0106661 0)
(0.855726 0.0150575 0)
(0.882834 0.0194614 0)
(0.910788 0.023872 0)
(0.938913 0.0282266 0)
(0.966302 0.0324193 0)
(0.989441 0.03733 0)
(0.996455 0.0413236 0)
(0.999392 0.0459226 0)
(1.00171 0.0491747 0)
(1.00023 0.0543327 0)
(1.00501 0.0574941 0)
(1.00483 0.0616913 0)
(1.00621 0.0665328 0)
(1.01063 0.0688493 0)
(1.01009 0.0739263 0)
(1.01254 0.0775026 0)
(1.01646 0.0799112 0)
(1.01663 0.0856883 0)
(1.01959 0.0872899 0)
(1.02344 0.0912356 0)
(1.02393 0.0955728 0)
(1.02736 0.0971141 0)
(1.03096 0.101614 0)
(1.032 0.104284 0)
(1.03583 0.106907 0)
(1.03914 0.110284 0)
(0.764871 0.00224224 0)
(0.786538 0.00708061 0)
(0.810307 0.0120743 0)
(0.835887 0.0170473 0)
(0.862901 0.022032 0)
(0.890868 0.0270219 0)
(0.91914 0.0319545 0)
(0.946788 0.0368711 0)
(0.968484 0.0417254 0)
(0.979249 0.0475018 0)
(0.980472 0.0508304 0)
(0.979901 0.0568597 0)
(0.985773 0.0602059 0)
(0.984878 0.0654058 0)
(0.986522 0.0704666 0)
(0.99105 0.0730606 0)
(0.990783 0.0794719 0)
(0.993604 0.0829252 0)
(0.997787 0.0861029 0)
(0.998132 0.0924239 0)
(1.0012 0.0942175 0)
(1.00574 0.0988868 0)
(1.00632 0.103683 0)
(1.00985 0.105501 0)
(1.0143 0.110616 0)
(1.0155 0.113671 0)
(1.01931 0.116482 0)
(1.0237 0.120379 0)
(1.02498 0.123414 0)
(0.744554 0.00254751 -7.36857e-026)
(0.765846 0.00798997 0)
(0.789326 0.0136263 0)
(0.814705 0.0192402 0)
(0.841602 0.0248668 0)
(0.869513 0.0304988 0)
(0.89774 0.0360499 0)
(0.925424 0.0413585 0)
(0.950193 0.0477104 0)
(0.956485 0.0523855 0)
(0.959235 0.0589352 0)
(0.964867 0.0624189 0)
(0.962682 0.0687404 0)
(0.965125 0.0739044 0)
(0.970628 0.0772747 0)
(0.970178 0.0848662 0)
(0.972445 0.0881138 0)
(0.977679 0.0922648 0)
(0.978422 0.0988257 0)
(0.981298 0.101565 0)
(0.986656 0.106689 0)
(0.987283 0.112088 0)
(0.990739 0.114144 0)
(0.996309 0.119654 0)
(0.997786 0.123744 0)
(1.00159 0.12638 0)
(1.00695 0.131189 0)
(1.00829 0.134726 0)
(1.01344 0.137099 6.74446e-026)
(0.722939 0.00287754 -2.61984e-027)
(0.743831 0.00897869 0)
(0.767003 0.0153122 0)
(0.792173 0.02162 0)
(0.818976 0.0279377 0)
(0.846955 0.034257 0)
(0.875539 0.0404973 0)
(0.903999 0.0467302 0)
(0.924896 0.0529548 0)
(0.936834 0.0602057 0)
(0.941313 0.0640807 0)
(0.938439 0.0718564 0)
(0.943514 0.0768977 0)
(0.948903 0.0812703 0)
(0.946861 0.0896132 0)
(0.949481 0.0929474 0)
(0.956923 0.0983788 0)
(0.957671 0.105284 0)
(0.95893 0.109356 0)
(0.965436 0.113948 0)
(0.966853 0.120716 0)
(0.970765 0.123004 0)
(0.977209 0.12905 0)
(0.978266 0.134574 0)
(0.981986 0.136461 0)
(0.988647 0.142616 0)
(0.990511 0.146532 0)
(0.996086 0.148638 0)
(1.00163 0.154704 1.37187e-027)
(0.700069 0.00323372 8.5605e-026)
(0.720542 0.0100522 0)
(0.743397 0.0171434 0)
(0.768356 0.0242091 0)
(0.795043 0.0312906 0)
(0.822945 0.038379 0)
(0.851286 0.0453698 0)
(0.878999 0.0521401 0)
(0.905341 0.0598337 0)
(0.914015 0.0657023 0)
(0.91341 0.0742979 0)
(0.92125 0.0789196 0)
(0.924113 0.0849287 0)
(0.921539 0.0938035 0)
(0.92689 0.0977389 0)
(0.934747 0.103944 0)
(0.933446 0.111685 0)
(0.934319 0.116647 0)
(0.94366 0.120794 0)
(0.946005 0.129569 0)
(0.948923 0.132073 0)
(0.955366 0.138613 0)
(0.956322 0.145505 0)
(0.961622 0.146495 0)
(0.969268 0.154414 0)
(0.971276 0.158862 0)
(0.97697 0.160665 0)
(0.982215 0.168398 0)
(0.985055 0.170154 -7.70545e-026)
(0.675931 0.00361687 0)
(0.695953 0.0112095 0)
(0.718455 0.0191131 0)
(0.74316 0.0269869 0)
(0.769709 0.0348721 0)
(0.797669 0.0427538 0)
(0.826581 0.0505126 0)
(0.856263 0.0582183 0)
(0.877834 0.0660381 0)
(0.88754 0.0754566 0)
(0.896418 0.0798182 0)
(0.896399 0.0885973 0)
(0.895486 0.0968392 0)
(0.903973 0.10187 0)
(0.909128 0.108793 0)
(0.90636 0.117906 0)
(0.910402 0.123119 0)
(0.921426 0.127865 0)
(0.922103 0.138361 0)
(0.924043 0.140658 0)
(0.930865 0.148071 0)
(0.933688 0.156159 0)
(0.942055 0.156918 0)
(0.947231 0.166803 0)
(0.949093 0.17093 0)
(0.956427 0.172952 0)
(0.961508 0.182552 0)
(0.966786 0.183765 0)
(0.975342 0.188832 0)
(0.650638 0.00400679 0)
(0.6702 0.0124238 0)
(0.69236 0.0211803 0)
(0.716857 0.0299062 0)
(0.743341 0.0386516 0)
(0.771327 0.0474084 0)
(0.799996 0.0560642 0)
(0.827852 0.0644847 0)
(0.853802 0.0744291 0)
(0.867122 0.0805166 0)
(0.866934 0.0920244 0)
(0.869119 0.0980332 0)
(0.878763 0.105391 0)
(0.880501 0.113542 0)
(0.878611 0.12345 0)
(0.887078 0.128352 0)
(0.895391 0.135201 0)
(0.894429 0.146449 0)
(0.899128 0.148372 0)
(0.905971 0.158763 0)
(0.910446 0.165563 0)
(0.918942 0.167617 0)
(0.921372 0.179303 0)
(0.926097 0.182021 0)
(0.93622 0.187461 0)
(0.93885 0.196594 0)
(0.946749 0.197583 0)
(0.95331 0.203712 0)
(0.95755 0.20961 9.11993e-026)
(0.624241 0.004428 0)
(0.64331 0.0137295 0)
(0.665078 0.0233995 0)
(0.689275 0.0330404 0)
(0.715535 0.0427045 0)
(0.743399 0.0523717 0)
(0.772399 0.0618806 0)
(0.802842 0.0714973 0)
(0.826945 0.080074 0)
(0.836555 0.0931022 0)
(0.841581 0.0981536 0)
(0.850621 0.108295 0)
(0.849591 0.117122 0)
(0.850466 0.127506 0)
(0.861971 0.132863 0)
(0.864937 0.142843 0)
(0.865141 0.152736 0)
(0.87487 0.156057 0)
(0.878516 0.169515 0)
(0.885215 0.173312 0)
(0.892055 0.179433 0)
(0.894449 0.191934 0)
(0.903723 0.192659 0)
(0.910712 0.203021 0)
(0.914518 0.208676 0)
(0.92619 0.212119 0)
(0.929783 0.220148 0)
(0.937343 0.225274 0)
(0.946386 0.229976 1.401e-027)
(0.596831 0.00484078 0)
(0.615398 0.0150675 0)
(0.636784 0.0256672 0)
(0.660745 0.0362327 0)
(0.686964 0.0468255 0)
(0.715033 0.0574315 0)
(0.744265 0.0679112 0)
(0.773069 0.0779886 0)
(0.798371 0.0907129 0)
(0.81027 0.0980626 0)
(0.820016 0.109556 0)
(0.817205 0.119879 0)
(0.822433 0.129701 0)
(0.833355 0.136511 0)
(0.832166 0.149411 0)
(0.838055 0.156622 0)
(0.847434 0.164901 0)
(0.848224 0.178179 0)
(0.857881 0.180366 0)
(0.862859 0.192578 0)
(0.867124 0.200689 0)
(0.879098 0.204597 0)
(0.882248 0.218404 0)
(0.890984 0.219152 0)
(0.901513 0.228956 0)
(0.904694 0.236031 0)
(0.914493 0.240152 0)
(0.923216 0.248189 0)
(0.929411 0.250305 -2.09308e-025)
(0.568587 0.00525774 0)
(0.586636 0.0164544 0)
(0.607612 0.028016 0)
(0.631264 0.0395478 0)
(0.657238 0.0511209 0)
(0.685045 0.0627143 0)
(0.714091 0.0741519 0)
(0.744749 0.0857967 0)
(0.77009 0.096622 0)
(0.78593 0.109481 0)
(0.783678 0.121193 0)
(0.793929 0.129295 0)
(0.80098 0.139875 0)
(0.799219 0.154447 0)
(0.809694 0.159529 0)
(0.813655 0.173859 0)
(0.816765 0.182696 0)
(0.830293 0.188522 0)
(0.832626 0.20523 0)
(0.839651 0.207719 0)
(0.848807 0.218916 0)
(0.852883 0.229681 0)
(0.865781 0.231639 0)
(0.872583 0.245923 0)
(0.878001 0.249874 0)
(0.891533 0.257204 0)
(0.898233 0.265769 0)
(0.906449 0.267818 0)
(0.919106 0.278217 -1.19563e-027)
(0.539606 0.00567261 0)
(0.557121 0.0178796 0)
(0.577674 0.030419 0)
(0.601036 0.0429278 0)
(0.626907 0.0554871 0)
(0.654923 0.0680722 0)
(0.684546 0.0804787 0)
(0.714256 0.0928034 0)
(0.740419 0.106263 0)
(0.749112 0.119407 0)
(0.764112 0.128839 0)
(0.763955 0.142451 0)
(0.766013 0.15582 0)
(0.778914 0.162717 0)
(0.778927 0.179395 0)
(0.787224 0.185793 0)
(0.79726 0.198519 0)
(0.799078 0.212484 0)
(0.810339 0.21597 0)
(0.817292 0.232735 0)
(0.823048 0.238687 0)
(0.836403 0.245649 0)
(0.841821 0.261217 0)
(0.85131 0.262765 0)
(0.864328 0.274891 0)
(0.869417 0.281835 0)
(0.882855 0.287264 0)
(0.893085 0.296415 0)
(0.900721 0.299896 1.19963e-025)
(0.510078 0.00605997 0)
(0.527058 0.0193039 0)
(0.547183 0.0328124 0)
(0.570233 0.0462952 0)
(0.595883 0.0598487 0)
(0.62365 0.073445 0)
(0.6528 0.0869331 0)
(0.683353 0.100188 0)
(0.710434 0.115261 0)
(0.726953 0.126194 0)
(0.726441 0.142185 0)
(0.736145 0.154512 0)
(0.744222 0.163477 0)
(0.74324 0.182872 0)
(0.755221 0.189355 0)
(0.762167 0.205577 0)
(0.763847 0.216832 0)
(0.778362 0.224266 0)
(0.783308 0.243793 0)
(0.792897 0.247095 0)
(0.80512 0.260535 0)
(0.808407 0.272809 0)
(0.822692 0.276852 0)
(0.832262 0.292338 0)
(0.84003 0.29677 0)
(0.857059 0.306539 0)
(0.863578 0.313912 0)
(0.877217 0.321092 0)
(0.889037 0.328471 1.29514e-025)
(0.480181 0.00642609 0)
(0.496616 0.0207303 0)
(0.516292 0.0351942 0)
(0.539005 0.0496366 0)
(0.564464 0.0641652 0)
(0.59232 0.0787322 0)
(0.622227 0.0930526 0)
(0.653341 0.107956 0)
(0.676432 0.121414 0)
(0.689966 0.140077 0)
(0.704655 0.151624 0)
(0.703957 0.163574 0)
(0.707431 0.183603 0)
(0.721306 0.191177 0)
(0.723712 0.210152 0)
(0.729291 0.218576 0)
(0.744203 0.23348 0)
(0.746783 0.250248 0)
(0.760418 0.254342 0)
(0.768708 0.274471 0)
(0.775192 0.281978 0)
(0.791917 0.292369 0)
(0.79641 0.306916 0)
(0.812375 0.311489 0)
(0.825256 0.325648 0)
(0.832944 0.331221 0)
(0.850639 0.341577 0)
(0.858286 0.348949 0)
(0.874076 0.353482 -1.37587e-025)
(0.450104 0.00675319 0)
(0.466002 0.0221314 0)
(0.485239 0.0375153 0)
(0.507636 0.0528856 0)
(0.532913 0.0683724 0)
(0.56063 0.0839351 0)
(0.589979 0.0993774 0)
(0.619379 0.114612 0)
(0.649176 0.133677 0)
(0.663522 0.143392 0)
(0.664106 0.163466 0)
(0.674343 0.180483 0)
(0.685144 0.190116 0)
(0.683228 0.210705 0)
(0.696812 0.219717 0)
(0.705797 0.24148 0)
(0.709171 0.251723 0)
(0.724596 0.262 0)
(0.728588 0.285441 0)
(0.742868 0.289064 0)
(0.756218 0.308245 0)
(0.762179 0.31816 0)
(0.780876 0.326076 0)
(0.786996 0.343003 0)
(0.802543 0.347293 0)
(0.819481 0.363237 0)
(0.828483 0.367722 0)
(0.847501 0.376881 0)
(0.859107 0.38708 1.47248e-025)
(0.420041 0.00703541 0)
(0.435405 0.0234954 0)
(0.454188 0.0397546 0)
(0.476226 0.0560176 0)
(0.501229 0.0724293 0)
(0.528775 0.0889218 0)
(0.558452 0.105311 0)
(0.590708 0.122263 0)
(0.613098 0.136209 0)
(0.624839 0.159977 0)
(0.640636 0.172382 0)
(0.645761 0.188051 0)
(0.643653 0.208279 0)
(0.661017 0.220937 0)
(0.663476 0.24303 0)
(0.671268 0.251622 0)
(0.687268 0.271194 0)
(0.689641 0.290289 0)
(0.706005 0.296445 0)
(0.713399 0.319933 0)
(0.727312 0.325372 0)
(0.745428 0.34417 0)
(0.751211 0.356942 0)
(0.770555 0.363914 0)
(0.780612 0.381505 0)
(0.79603 0.38486 0)
(0.816268 0.402331 0)
(0.826038 0.406262 0)
(0.847654 0.414509 -3.1271e-025)
(0.390188 0.00726194 0)
(0.405031 0.0247975 0)
(0.423364 0.0418556 0)
(0.445061 0.0589301 0)
(0.469863 0.0761773 0)
(0.49739 0.0935112 0)
(0.527105 0.110597 0)
(0.556301 0.127348 0)
(0.582654 0.150468 0)
(0.5998 0.162308 0)
(0.601182 0.183127 0)
(0.607282 0.202621 0)
(0.623076 0.219431 0)
(0.62144 0.239349 0)
(0.63324 0.250811 0)
(0.646318 0.27581 0)
(0.649545 0.289965 0)
(0.667881 0.302546 0)
(0.672165 0.327259 0)
(0.692073 0.334087 0)
(0.701008 0.358164 0)
(0.713097 0.364393 0)
(0.734965 0.382679 0)
(0.741795 0.397002 0)
(0.76353 0.404713 0)
(0.77614 0.421597 0)
(0.793799 0.425089 0)
(0.818723 0.441073 0)
(0.828395 0.447095 4.42659e-028)
(0.360746 0.00742411 0)
(0.37509 0.0260231 0)
(0.392991 0.0437961 0)
(0.414369 0.0616174 0)
(0.438963 0.0796461 0)
(0.4663 0.0977401 0)
(0.495675 0.115847 0)
(0.526706 0.13612 0)
(0.548802 0.149731 0)
(0.559147 0.177194 0)
(0.572357 0.192958 0)
(0.582146 0.212417 0)
(0.579957 0.233036 0)
(0.597578 0.248259 0)
(0.600326 0.276405 0)
(0.610153 0.285762 0)
(0.625502 0.31001 0)
(0.629112 0.328992 0)
(0.651662 0.340788 0)
(0.655569 0.365234 0)
(0.677279 0.373505 0)
(0.690367 0.399558 0)
(0.702081 0.407821 0)
(0.727747 0.424129 0)
(0.73663 0.438507 0)
(0.761591 0.446033 0)
(0.775039 0.463585 0)
(0.792634 0.467607 0)
(0.822335 0.483314 9.5737e-028)
(0.331895 0.00752082 0)
(0.345761 0.027167 0)
(0.363235 0.0455596 0)
(0.384284 0.0640472 0)
(0.408627 0.0827874 0)
(0.435794 0.101723 0)
(0.465234 0.120399 0)
(0.493156 0.138046 0)
(0.517218 0.164898 0)
(0.532286 0.178093 0)
(0.536813 0.203356 0)
(0.539252 0.223123 0)
(0.557711 0.243973 0)
(0.555207 0.270847 0)
(0.573086 0.2817 0)
(0.578364 0.311792 0)
(0.587628 0.323999 0)
(0.608445 0.347576 0)
(0.612394 0.368534 0)
(0.636294 0.382261 0)
(0.641205 0.407071 0)
(0.664906 0.415927 0)
(0.681714 0.44264 0)
(0.694962 0.451077 0)
(0.723419 0.467838 0)
(0.734434 0.484579 0)
(0.762482 0.490385 0)
(0.777816 0.508314 0)
(0.797593 0.510438 1.87089e-025)
(0.303802 0.00754103 0)
(0.317218 0.0282059 0)
(0.33428 0.0470938 0)
(0.355035 0.0661417 0)
(0.379213 0.0854667 0)
(0.406264 0.10468 0)
(0.43522 0.124159 0)
(0.464485 0.146932 0)
(0.483443 0.161325 0)
(0.493804 0.193626 0)
(0.502583 0.21003 0)
(0.51529 0.236497 0)
(0.512768 0.256525 0)
(0.530963 0.2764 0)
(0.532768 0.306703 0)
(0.548692 0.319017 0)
(0.56085 0.35127 0)
(0.568036 0.365388 0)
(0.591116 0.386431 0)
(0.595408 0.41158 0)
(0.622966 0.426607 0)
(0.629693 0.452311 0)
(0.656156 0.459888 0)
(0.677207 0.489387 0)
(0.69167 0.497202 0)
(0.721863 0.514002 0)
(0.734639 0.529811 0)
(0.767406 0.537917 0)
(0.785109 0.553572 -1.95258e-025)
(0.276631 0.00748069 0)
(0.289632 0.029133 0)
(0.306312 0.0483819 0)
(0.326821 0.0678861 0)
(0.350827 0.0876497 0)
(0.377765 0.107874 0)
(0.406389 0.127661 0)
(0.431871 0.146676 0)
(0.450776 0.177422 0)
(0.462251 0.19183 0)
(0.471102 0.222872 0)
(0.47237 0.240609 0)
(0.49038 0.269693 0)
(0.487847 0.2943 0)
(0.508239 0.314255 0)
(0.510642 0.345263 0)
(0.52617 0.35803 0)
(0.542661 0.392009 0)
(0.549586 0.410038 0)
(0.57645 0.431293 0)
(0.582232 0.456012 0)
(0.611934 0.472306 0)
(0.62216 0.499619 0)
(0.650159 0.507339 0)
(0.674938 0.537965 0)
(0.691248 0.546601 0)
(0.725577 0.563234 0)
(0.741815 0.57905 0)
(0.775967 0.584206 2.08059e-025)
(0.250519 0.00733742 0)
(0.263135 0.0299445 0)
(0.279446 0.0494084 0)
(0.299731 0.0692769 0)
(0.323631 0.0895591 0)
(0.35028 0.109207 0)
(0.378351 0.130536 0)
(0.40214 0.155261 0)
(0.417498 0.171348 0)
(0.429302 0.207737 0)
(0.433993 0.225046 0)
(0.447205 0.25697 0)
(0.444538 0.279266 0)
(0.465116 0.303207 0)
(0.46276 0.331436 0)
(0.485759 0.354745 0)
(0.491119 0.387667 0)
(0.506531 0.401285 0)
(0.525752 0.435917 0)
(0.533446 0.455957 0)
(0.563856 0.47735 0)
(0.57175 0.503323 0)
(0.605519 0.522325 0)
(0.616765 0.549836 0)
(0.648353 0.55834 0)
(0.676865 0.588821 0)
(0.695245 0.597842 0)
(0.733937 0.614343 0)
(0.753812 0.627578 0)
(0.225584 0.00710256 0)
(0.237844 0.0306331 0)
(0.253812 0.0501454 0)
(0.273969 0.0702793 0)
(0.297774 0.0904947 0)
(0.324422 0.111963 0)
(0.350023 0.132581 0)
(0.372577 0.153704 0)
(0.386713 0.186875 0)
(0.391306 0.20482 0)
(0.405158 0.237957 0)
(0.405396 0.259014 0)
(0.422787 0.293107 0)
(0.420758 0.317238 0)
(0.441238 0.344583 0)
(0.439997 0.371439 0)
(0.465668 0.395107 0)
(0.47102 0.431568 0)
(0.488967 0.446205 0)
(0.511861 0.483352 0)
(0.520573 0.506306 0)
(0.554351 0.527733 0)
(0.563954 0.554251 0)
(0.600814 0.573446 0)
(0.614813 0.603332 0)
(0.651361 0.612697 0)
(0.683651 0.641588 0)
(0.705382 0.651434 0)
(0.750878 0.667162 2.2283e-025)
(0.201931 0.00676894 0)
(0.213851 0.0312044 0)
(0.229494 0.0505917 0)
(0.249557 0.0708602 0)
(0.273379 0.0918507 0)
(0.298803 0.111552 0)
(0.325253 0.134094 0)
(0.340389 0.163198 0)
(0.351392 0.180792 0)
(0.36748 0.218163 0)
(0.364737 0.240531 0)
(0.379012 0.275261 0)
(0.379886 0.295904 0)
(0.398704 0.32963 0)
(0.396551 0.355348 0)
(0.419579 0.387429 0)
(0.419267 0.41563 0)
(0.446367 0.440949 0)
(0.452433 0.477914 0)
(0.473692 0.494675 0)
(0.499423 0.532036 0)
(0.509981 0.557519 0)
(0.547401 0.582058 0)
(0.561488 0.609204 0)
(0.600853 0.629604 0)
(0.618296 0.659113 0)
(0.660513 0.66998 0)
(0.694838 0.695766 0)
(0.724489 0.7075 -6.80585e-027)
(0.179639 0.00632067 0)
(0.191204 0.0316697 0)
(0.206523 0.0507413 0)
(0.226636 0.0712259 0)
(0.250239 0.0912922 0)
(0.276374 0.113996 0)
(0.294431 0.137521 0)
(0.313875 0.158877 0)
(0.324879 0.19551 0)
(0.324613 0.216618 0)
(0.340763 0.251701 0)
(0.339611 0.274361 0)
(0.356609 0.311969 0)
(0.354592 0.336766 0)
(0.374892 0.371764 0)
(0.375749 0.396869 0)
(0.398682 0.430497 0)
(0.400156 0.460451 0)
(0.428971 0.490005 0)
(0.43587 0.525791 0)
(0.462134 0.549024 0)
(0.488891 0.583847 0)
(0.503662 0.613979 0)