/*--------------------------------*- C++ -*----------------------------------*\
| =========                 |                                                 |
| \\      /  F ield         | OpenFOAM: The Open Source CFD Toolbox           |
|  \\    /   O peration     | Version:  5.x                                   |
|   \\  /    A nd           | Web:      www.OpenFOAM.org                      |
|    \\/     M anipulation  |                                                 |
\*---------------------------------------------------------------------------*/
/*   Windows 32 and 64 bit porting by blueCAPE: http://www.bluecape.com.pt   *\
|  Based on Windows porting (2.0.x v4) by Symscape: http://www.symscape.com   |
\*---------------------------------------------------------------------------*/
FoamFile
{
    version     2.0;
    format      ascii;
    class       volScalarField;
    location    "250";
    object      epsilon;
}
// * * * * * * * * * * * * * * * * * * * * * * * * * * * * * * * * * * * * * //

dimensions      [0 2 -3 0 0 0 0];

internalField   nonuniform List<scalar> 
43900
(
0.00152925
0.00151909
0.00151979
0.00151971
0.00151967
0.00151966
0.00151967
0.00151967
0.00151967
0.00151968
0.00151968
0.00151968
0.00151968
0.00151968
0.00151968
0.00151968
0.00151968
0.00151968
0.00151969
0.00151969
0.00151969
0.00151969
0.00151969
0.00151969
0.00151969
0.00151969
0.00151969
0.00151969
0.00151969
0.000413597
3.81725e-005
3.16654e-005
3.1519e-005
3.2729e-005
3.27924e-005
3.28042e-005
3.27904e-005
3.27921e-005
3.28001e-005
3.28017e-005
3.2802e-005
3.28028e-005
3.28038e-005
3.28046e-005
3.28075e-005
3.28083e-005
3.28087e-005
3.28105e-005
3.28104e-005
3.28112e-005
3.28126e-005
3.28122e-005
3.28132e-005
3.2814e-005
3.28134e-005
3.28145e-005
3.28151e-005
3.28145e-005
0.0508083
0.00574336
0.000288704
1.14313e-005
1.7071e-006
1.32763e-006
1.32665e-006
1.40967e-006
1.41879e-006
1.41775e-006
1.41701e-006
1.4172e-006
1.41752e-006
1.41778e-006
1.4181e-006
1.41846e-006
1.41862e-006
1.41887e-006
1.41914e-006
1.41931e-006
1.41955e-006
1.41971e-006
1.41983e-006
1.42002e-006
1.4201e-006
1.4202e-006
1.42035e-006
1.42038e-006
1.42044e-006
0.146303
0.0436343
0.00962609
0.00130952
8.26497e-005
3.37756e-006
3.39927e-007
1.22301e-007
1.08329e-007
1.1576e-007
1.19939e-007
1.20064e-007
1.19539e-007
1.19497e-007
1.19642e-007
1.19687e-007
1.19697e-007
1.19736e-007
1.19776e-007
1.19806e-007
1.19831e-007
1.19857e-007
1.19883e-007
1.19902e-007
1.19921e-007
1.1994e-007
1.19956e-007
1.19972e-007
1.19984e-007
0.198077
0.084699
0.0339491
0.0112945
0.00266124
0.000359373
2.25754e-005
9.64047e-007
8.35244e-008
2.20741e-008
1.64655e-008
1.73704e-008
1.85251e-008
1.85932e-008
1.83998e-008
1.84222e-008
1.84797e-008
1.84717e-008
1.84722e-008
1.84803e-008
1.84882e-008
1.84932e-008
1.84968e-008
1.85014e-008
1.85054e-008
1.85085e-008
1.85124e-008
1.85158e-008
1.85177e-008
0.222862
0.109155
0.0532934
0.0250879
0.01049
0.00330921
0.00070071
7.5631e-005
4.0958e-006
1.90378e-007
1.82669e-008
5.35669e-009
4.10057e-009
4.47513e-009
4.76193e-009
4.70335e-009
4.65152e-009
4.67985e-009
4.68781e-009
4.68055e-009
4.67819e-009
4.67923e-009
4.68072e-009
4.68182e-009
4.68281e-009
4.68386e-009
4.68484e-009
4.68596e-009
4.68685e-009
0.234645
0.123857
0.0662105
0.0353409
0.0183824
0.00890913
0.003551
0.000965798
0.000149814
1.12087e-005
5.65652e-007
3.05301e-008
4.1794e-009
1.69663e-009
1.54579e-009
1.69738e-009
1.73061e-009
1.6925e-009
1.69417e-009
1.70674e-009
1.7088e-009
1.70833e-009
1.7086e-009
1.70903e-009
1.70959e-009
1.70995e-009
1.71036e-009
1.71088e-009
1.71107e-009
0.237955
0.131526
0.0740376
0.0420965
0.0238754
0.0132429
0.00692553
0.00314868
0.00102004
0.000209445
2.14891e-005
1.28211e-006
6.96959e-008
4.92065e-009
1.13989e-009
7.26966e-010
7.66289e-010
8.18182e-010
8.04052e-010
7.93848e-010
7.98266e-010
8.00837e-010
8.0101e-010
8.01111e-010
8.01327e-010
8.0154e-010
8.01718e-010
8.01958e-010
8.02125e-010
0.237428
0.135824
0.0793062
0.0470019
0.0280526
0.0166766
0.00970909
0.00537808
0.00267627
0.00101134
0.000241499
3.01544e-005
2.08576e-006
1.22351e-007
7.74698e-009
9.98105e-010
4.59129e-010
4.2441e-010
4.62628e-010
4.58131e-010
4.49111e-010
4.48967e-010
4.5004e-010
4.50508e-010
4.50683e-010
4.50816e-010
4.50972e-010
4.51176e-010
4.51253e-010
0.233169
0.136403
0.081655
0.0497776
0.0307249
0.0190621
0.0117673
0.00711858
0.0041134
0.00215788
0.000902486
0.00023611
3.31731e-005
2.56567e-006
1.63006e-007
1.06092e-008
1.00596e-009
3.44242e-010
2.63161e-010
2.91494e-010
2.98784e-010
2.94661e-010
2.92795e-010
2.92887e-010
2.93038e-010
2.93161e-010
2.93256e-010
2.93314e-010
2.93353e-010
0.226238
0.134769
0.082102
0.0510385
0.0322231
0.020551
0.0131486
0.00835805
0.0052024
0.00309493
0.00167993
0.000745495
0.000204584
3.04928e-005
2.54427e-006
1.74345e-007
1.20239e-008
1.04703e-009
2.79887e-010
1.88004e-010
2.00623e-010
2.09642e-010
2.0847e-010
2.07582e-010
2.07468e-010
2.07515e-010
2.07552e-010
2.0766e-010
2.07778e-010
0.218542
0.132096
0.0817077
0.0515877
0.0331311
0.0215512
0.0141261
0.0092672
0.00602752
0.00383168
0.002325
0.00128792
0.000587698
0.000163519
2.48731e-005
2.20138e-006
1.63759e-007
1.22139e-008
1.07563e-009
2.29149e-010
1.42585e-010
1.42595e-010
1.49379e-010
1.50176e-010
1.50088e-010
1.50202e-010
1.50292e-010
1.50367e-010
1.50422e-010
0.209975
0.128536
0.0805293
0.0514967
0.0335426
0.0221663
0.0148008
0.00993459
0.00665806
0.00441312
0.00285169
0.00175421
0.000982173
0.000450808
0.00012424
1.89409e-005
1.78052e-006
1.45293e-007
1.18922e-008
1.09515e-009
2.00818e-010
1.13824e-010
1.03261e-010
1.08951e-010
1.09934e-010
1.09691e-010
1.09692e-010
1.09799e-010
1.09941e-010
0.200614
0.124169
0.0786613
0.0509049
0.0335341
0.0224569
0.0152234
0.0104036
0.00713052
0.00486772
0.00327778
0.00214529
0.0013316
0.000747927
0.000339639
9.12646e-005
1.38331e-005
1.38301e-006
1.2388e-007
1.10868e-008
1.08049e-009
1.82241e-010
9.49137e-011
7.91214e-011
8.20084e-011
8.34339e-011
8.34536e-011
8.34106e-011
8.34382e-011
0.190689
0.119175
0.0762451
0.049843
0.0332115
0.0224773
0.0154333
0.0107042
0.00746819
0.00521353
0.00361594
0.0024667
0.00162982
0.00101631
0.00056856
0.000251437
6.5136e-005
9.7892e-006
1.0403e-006
1.01656e-007
9.92588e-009
1.0369e-009
1.69846e-010
8.13879e-011
6.63413e-011
6.66848e-011
6.75086e-011
6.77154e-011
6.77797e-011
0.180362
0.113719
0.0733974
0.0484238
0.032577
0.022292
0.0154653
0.0108629
0.00769179
0.00546678
0.0038786
0.00272684
0.00187985
0.00125029
0.000780249
0.000432065
0.00018323
4.54045e-005
6.78405e-006
7.67992e-007
8.17321e-008
8.65417e-009
9.64804e-010
1.58678e-010
7.14636e-011
5.92503e-011
5.77448e-011
5.81214e-011
5.83121e-011
0.169736
0.107899
0.0702131
0.0467112
0.0317041
0.0219013
0.015358
0.0109
0.0078165
0.00563893
0.00407427
0.00293156
0.00208451
0.0014486
0.000966937
0.000601392
0.000327291
0.000130585
3.07386e-005
4.58807e-006
5.51727e-007
6.30739e-008
7.16362e-009
8.53596e-010
1.45896e-010
6.55887e-011
5.52256e-011
5.32588e-011
5.32981e-011
0.158939
0.10182
0.0667711
0.0447722
0.0306359
0.0213484
0.0151139
0.0108402
0.00785627
0.00574051
0.00421087
0.00308658
0.00224743
0.0016124
0.00112643
0.000751955
0.000463725
0.000245692
8.95511e-005
1.99381e-005
2.98493e-006
3.80064e-007
4.6537e-008
5.6581e-009
7.23897e-010
1.33008e-010
6.20345e-011
5.33147e-011
5.16544e-011
0.148091
0.0955795
0.0631452
0.0426618
0.0294195
0.020667
0.0147594
0.0106894
0.00782723
0.00578263
0.00429725
0.003199
0.00237416
0.00174568
0.0012608
0.000883097
0.000587579
0.00035752
0.000182867
5.93989e-005
1.24556e-005
1.88927e-006
2.56122e-007
3.36098e-008
4.37e-009
5.99017e-010
1.20178e-010
6.00086e-011
5.23094e-011
0.137308
0.0892662
0.0594031
0.0404301
0.0280916
0.0198886
0.0143196
0.0104624
0.00773815
0.00577413
0.00434089
0.0032747
0.00246909
0.00185143
0.00137158
0.000994664
0.000696342
0.000459862
0.00027422
0.000133301
3.91872e-005
7.68258e-006
1.18867e-006
1.70064e-007
2.3707e-008
3.28271e-009
4.85373e-010
1.08847e-010
5.88431e-011
0.126701
0.0829664
0.0556087
0.0381241
0.0266869
0.0190389
0.0138165
0.0101786
0.00759535
0.00572677
0.00434687
0.00331813
0.00253624
0.00193308
0.00146144
0.00108824
0.000790176
0.000550872
0.000359079
0.000207595
9.23621e-005
2.48957e-005
4.70329e-006
7.47975e-007
1.124e-007
1.65279e-008
2.4341e-009
3.932e-010
1.0005e-010
0.116366
0.076754
0.0518173
0.0357853
0.0252364
0.0181412
0.013268
0.00985351
0.00741511
0.00564121
0.00432783
0.00333794
0.00258197
0.00199547
0.00153413
0.0011667
0.000871024
0.000631309
0.000436446
0.000278905
0.000154152
6.08607e-005
1.51759e-005
2.83303e-006
4.69351e-007
7.45244e-008
1.15843e-008
1.81133e-009
3.16036e-010
0.106384
0.0706899
0.0480751
0.0334479
0.0237659
0.017215
0.012689
0.00949897
0.00720735
0.00553089
0.00428249
0.00333538
0.00260847
0.0020411
0.00159208
0.00123222
0.000940623
0.000702276
0.000506438
0.000345589
0.000214825
0.000111542
3.81411e-005
8.94074e-006
1.6853e-006
2.92982e-007
4.92129e-008
8.1137e-009
1.33381e-009
0.0968159
0.0648228
0.0444187
0.0311398
0.0222963
0.0162764
0.0120919
0.00912471
0.00698026
0.00540201
0.00422012
0.00332026
0.00262286
0.00207538
0.00163956
0.00128817
0.0010016
0.000765677
0.000570125
0.000407604
0.000273082
0.00016356
7.79132e-005
2.36078e-005
5.30055e-006
1.02256e-006
1.86279e-007
3.30223e-008
5.66484e-009
0.0877102
0.0591902
0.0408768
0.0288823
0.0208438
0.0153375
0.0114862
0.00873811
0.00673963
0.00525958
0.00414427
0.00328952
0.00262337
0.00209822
0.00167741
0.00133587
0.00105546
0.000822959
0.000628685
0.000465616
0.000328784
0.000214972
0.000122375
5.20891e-005
1.45488e-005
3.21067e-006
6.37663e-007
1.21261e-007
2.21405e-008
0.079102
0.0538202
0.0374709
0.0266919
0.0194208
0.0144078
0.010879
0.00834481
0.00649007
0.00510768
0.00405933
0.00325103
0.00261803
0.00211452
0.0017088
0.00137755
0.0011039
0.000875476
0.00068319
0.000520368
0.000382192
0.000265367
0.000167869
8.90067e-005
3.3377e-005
8.83606e-006
1.96232e-006
4.046e-007
7.8995e-008
0.0710153
0.0487332
0.0342171
0.0245808
0.0180365
0.0134944
0.0102756
0.00794892
0.00623476
0.00494878
0.00396722
0.00320564
0.00260545
0.00212479
0.00173492
0.00141459
0.00114825
0.000924458
0.000734727
0.000572779
0.000434012
0.00031517
0.000214123
0.000129548
6.26295e-005
2.08377e-005
5.3813e-006
1.22529e-006
2.58247e-007
0.0634646
0.0439429
0.031127
0.0225583
0.016698
0.0126025
0.00968025
0.00755349
0.00597604
0.00478467
0.00386921
0.00315413
0.00258674
0.00212975
0.00175653
0.00144779
0.00118937
0.000970746
0.00078409
0.000623547
0.00048478
0.000364652
0.000261035
0.000172554
9.8723e-005
4.26737e-005
1.31672e-005
3.37957e-006
7.75669e-007
0.0564558
0.0394575
0.0282082
0.0206307
0.0154105
0.0117361
0.00909579
0.00716079
0.00571562
0.00461663
0.00376638
0.00309766
0.00256333
0.00212989
0.00177414
0.00147775
0.00122788
0.00101499
0.000831912
0.000673243
0.000534947
0.000414056
0.000308498
0.000216938
0.000138623
7.39973e-005
2.84286e-005
8.44773e-006
2.13811e-006
0.0499876
0.0352803
0.0254652
0.0188025
0.0141776
0.0108981
0.0085245
0.00677246
0.00545469
0.00444555
0.00365938
0.00303676
0.00253592
0.00212713
0.00178871
0.00150501
0.00126424
0.00105767
0.00087871
0.000722422
0.000585075
0.000463895
0.000356898
0.000262775
0.000180745
0.000110882
5.44327e-005
1.91939e-005
5.46751e-006
0.0440523
0.0314108
0.0229002
0.0170762
0.0130019
0.0100908
0.00796805
0.00638974
0.0051941
0.00427199
0.00354857
0.00297168
0.00250446
0.00212051
0.00180021
0.00152979
0.00129871
0.00109903
0.00092478
0.000771432
0.000635564
0.000514608
0.000406695
0.000310545
0.000225349
0.000151074
8.80172e-005
3.95048e-005
1.29623e-005
0.0386369
0.0278449
0.020513
0.0154534
0.0118852
0.00931565
0.00742774
0.00601358
0.00493449
0.00409633
0.00343411
0.00290233
0.00246861
0.0021096
0.00180819
0.00155183
0.00133114
0.00113903
0.000970129
0.000820331
0.000686524
0.000566355
0.000458089
0.000360504
0.000272791
0.000194768
0.000126577
6.94013e-005
2.77602e-005
0.0337243
0.0245762
0.0183019
0.0139344
0.0108285
0.00857397
0.00690463
0.00564478
0.0046764
0.00391883
0.00331607
0.00282865
0.00242833
0.00209464
0.00181249
0.00157087
0.00136128
0.00117745
0.00101458
0.00086899
0.00073787
0.000619086
0.000511054
0.000412641
0.00032308
0.000242067
0.000169695
0.000106626
5.3231e-005
0.0292938
0.0215959
0.0162638
0.0125187
0.00983258
0.00786671
0.00639966
0.0052841
0.00442032
0.00373977
0.0031945
0.0027505
0.0023833
0.00207495
0.00181217
0.00158613
0.00138853
0.00121384
0.00105781
0.000917178
0.000789437
0.000672684
0.000565496
0.000466848
0.000376048
0.000292753
0.000216968
0.0001495
8.87297e-005
0.0253219
0.0188932
0.0143944
0.0112052
0.00889757
0.00719462
0.00591368
0.00493225
0.00416679
0.00355945
0.0030695
0.00266785
0.00233344
0.00205081
0.00180859
0.00159805
0.00141286
0.00124796
0.00109952
0.000964625
0.000841023
0.000727016
0.000621336
0.000523075
0.000431626
0.000346666
0.000268138
0.000196889
0.000131908
0.0217828
0.016456
0.0126886
0.00999211
0.00802341
0.0065583
0.00544748
0.00458997
0.00391637
0.00337825
0.00294125
0.00258069
0.00227858
0.00202167
0.00180012
0.0016059
0.00143382
0.00127945
0.00113941
0.00101106
0.000892411
0.000781935
0.000678505
0.000581317
0.000489847
0.000403821
0.000323174
0.000248531
0.000180359
0.018649
0.0142709
0.0111402
0.00887713
0.0072097
0.0059582
0.0050018
0.00425801
0.00366968
0.00319657
0.00280996
0.00248902
0.00221847
0.00198695
0.00178583
0.0016084
0.00145049
0.00130764
0.00117694
0.00105608
0.000943297
0.00083724
0.000736898
0.000641563
0.000550782
0.000464334
0.000382182
0.000304728
0.000233101
0.0158918
0.0123234
0.00974232
0.00785747
0.00645571
0.0053946
0.00457733
0.00393714
0.00342738
0.00301492
0.0026759
0.0023929
0.00215302
0.00194659
0.00176622
0.00160623
0.00146276
0.00133211
0.00121161
0.0010992
0.000993283
0.000892634
0.000796339
0.000703756
0.000614489
0.000528358
0.000445367
0.000365804
0.000290707
0.013482
0.0105982
0.00848751
0.00692985
0.00576042
0.00486763
0.00417469
0.00362814
0.00319021
0.00283387
0.00253946
0.00229252
0.00208223
0.00190044
0.00174093
0.00159898
0.00147025
0.00135238
0.0012429
0.0011399
0.0010419
0.000947751
0.000856585
0.000767795
0.000681006
0.000596059
0.00051299
0.000432054
0.000354011
0.0113896
0.00907947
0.0073676
0.0060905
0.00512248
0.0043772
0.00379443
0.00333176
0.00295894
0.00265408
0.00240112
0.00218813
0.00200613
0.00184825
0.00170922
0.00158482
0.00147121
0.00136729
0.00126991
0.00117744
0.00108853
0.0010021
0.000917306
0.000833527
0.000750365
0.000667644
0.000585397
0.000503876
0.000423639
0.00958508
0.0077508
0.00637393
0.00533516
0.00454017
0.00392299
0.00343694
0.00304874
0.00273437
0.00247627
0.00226143
0.0020801
0.00192484
0.00178994
0.00167093
0.00156425
0.00146696
0.00137683
0.0012921
0.0012111
0.00113246
0.00105508
0.000978076
0.000900744
0.000822602
0.000743391
0.000663083
0.0005819
0.000500299
0.00803892
0.00659553
0.00549733
0.00465914
0.00401138
0.00350441
0.00310248
0.00277974
0.00251732
0.00230125
0.00212109
0.00196892
0.00183866
0.00172557
0.0016259
0.00153669
0.00145558
0.00137935
0.00130829
0.00123984
0.00117274
0.00110588
0.00103828
0.000969102
0.000897701
0.000823637
0.000746724
0.000667071
0.000585063
0.00672253
0.00559699
0.00472833
0.0040573
0.00353366
0.00312059
0.00279109
0.00252532
0.00230858
0.00212988
0.0019809
0.00185526
0.00174804
0.00165534
0.00157406
0.00150168
0.00143611
0.00137524
0.00131787
0.00126268
0.00120828
0.00115343
0.00109701
0.00103799
0.000975454
0.000908661
0.000837116
0.000760658
0.000679512
0.00560845
0.00473871
0.00405728
0.00352425
0.00310422
0.00277041
0.00250268
0.00228598
0.00210898
0.00196312
0.00184183
0.00174001
0.00165372
0.00157979
0.00151569
0.00145933
0.00140899
0.00136325
0.00131931
0.00127831
0.00123771
0.00119634
0.00115298
0.00110636
0.00105524
0.000998433
0.000934938
0.00086408
0.000785693
0.0046707
0.00400476
0.00347457
0.00305438
0.00272008
0.00245256
0.00223703
0.00206222
0.00191948
0.00180219
0.0017052
0.0016245
0.00155695
0.00150001
0.00145167
0.00141022
0.00137426
0.00134254
0.00131366
0.00128627
0.00126
0.00123325
0.00120466
0.00117272
0.00113584
0.0010923
0.00104036
0.000978489
0.000905752
0.00388523
0.00338001
0.00297087
0.00264218
0.00237823
0.00216574
0.00199403
0.00185474
0.00174134
0.00164874
0.00157293
0.00151079
0.00145981
0.00141804
0.00138388
0.00135602
0.00133334
0.00131487
0.00129983
0.00128608
0.00127456
0.00126317
0.00125065
0.00123537
0.00121549
0.00118885
0.00115272
0.00110425
0.00104131
0.00323018
0.0028505
0.00253743
0.00228239
0.00207587
0.00190888
0.00177387
0.0016647
0.00157647
0.00150525
0.00144794
0.00140208
0.00136573
0.00133736
0.00131578
0.00130001
0.00128931
0.00128281
0.00128014
0.00128066
0.00128269
0.00128654
0.00129063
0.00129314
0.00129226
0.00128637
0.00127099
0.00124073
0.00119298
0.00268616
0.00240368
0.00216635
0.00197037
0.00181067
0.00168143
0.0015774
0.00149409
0.00142779
0.00137544
0.00133456
0.00130322
0.0012799
0.00126341
0.00125296
0.00124776
0.00124772
0.00125146
0.00125994
0.00127245
0.00128791
0.00130616
0.00132659
0.0013478
0.00136804
0.00138471
0.00139203
0.00138561
0.00136059
0.00223645
0.00202864
0.00185082
0.00170227
0.00158106
0.00148364
0.00140639
0.00134601
0.00129957
0.00126459
0.00123897
0.00122112
0.00120982
0.00120408
0.00120372
0.00120753
0.00121639
0.00122971
0.00124791
0.00127092
0.00129766
0.00132859
0.00136417
0.00140346
0.0014451
0.00148634
0.00152221
0.00154397
0.0015405
0.00186698
0.00171622
0.00158524
0.00147521
0.00138635
0.00131667
0.00126368
0.00122481
0.0011976
0.00117983
0.00116944
0.00116512
0.00116581
0.0011703
0.00117927
0.00119189
0.00120874
0.00123004
0.00125546
0.00128596
0.00132266
0.00136549
0.00141483
0.00147101
0.00153354
0.00159998
0.00166671
0.00172226
0.00175161
0.00156622
0.00145896
0.00136524
0.00128723
0.00122663
0.00118248
0.00115301
0.00113599
0.00112917
0.00113032
0.00113685
0.00114793
0.00116184
0.00117738
0.00119496
0.00121505
0.00123846
0.00126596
0.00129872
0.00133742
0.00138342
0.00143756
0.00150007
0.00157232
0.00165512
0.00174684
0.00184648
0.00193851
0.00201415
0.00132481
0.0012508
0.00118731
0.00113697
0.00110242
0.00108342
0.00107873
0.00108601
0.00110326
0.00112759
0.00115493
0.00118413
0.00121383
0.00124352
0.0012734
0.00130406
0.00133668
0.00137271
0.00141387
0.00146167
0.00151784
0.00158415
0.00166164
0.00175206
0.00185644
0.00197528
0.00211158
0.00224259
0.00238266
0.001135
0.00108663
0.00104842
0.00102316
0.00101415
0.00102175
0.00104505
0.00108252
0.00112982
0.0011843
0.0012428
0.00130188
0.00135896
0.00141283
0.00146362
0.00151238
0.00156101
0.00161183
0.00166741
0.00173039
0.0018032
0.00188891
0.00198879
0.00210781
0.00224397
0.00240495
0.00259208
0.00277312
0.00302022
0.00099002
0.000961719
0.000945456
0.000944136
0.000961407
0.00099922
0.00105676
0.00113216
0.00122343
0.00132639
0.00143614
0.0015473
0.00165517
0.00175687
0.00185163
0.00194067
0.00202674
0.00211353
0.00220522
0.00230636
0.00242073
0.0025544
0.00270674
0.00289321
0.00309488
0.00335144
0.00363004
0.0039203
0.00438348
0.000883547
0.000871305
0.000874883
0.000897179
0.000943684
0.0010167
0.00111761
0.00124737
0.00140429
0.0015844
0.00178173
0.00198894
0.00219836
0.00240357
0.00260123
0.00279251
0.00298093
0.0031723
0.00337421
0.00359569
0.00384418
0.00413484
0.00446047
0.0048733
0.00528721
0.00588491
0.0064062
0.0071665
0.00811758
0.000809452
0.000810409
0.000832509
0.000879651
0.000958567
0.00107441
0.00123265
0.00143726
0.0016906
0.00199199
0.0023372
0.00271884
0.00312763
0.00355474
0.00399434
0.00444483
0.00491469
0.00541527
0.0059646
0.00658509
0.00730069
0.00815567
0.00914562
0.0104311
0.0117682
0.0138468
0.0155058
0.0190723
0.021369
0.000761823
0.000773834
0.000814218
0.000887473
0.00100323
0.00117111
0.00140195
0.00170726
0.0020977
0.00258139
0.00316234
0.00384014
0.0046111
0.00547131
0.00642066
0.0074668
0.00862727
0.00993584
0.0114497
0.0132354
0.0153882
0.0180389
0.0213101
0.0255675
0.0306861
0.0382429
0.0461045
0.0627292
0.072952
0.000735278
0.000756743
0.000815527
0.000916385
0.00107366
0.00130254
0.00162274
0.00205748
0.00263223
0.00337265
0.00430245
0.00544231
0.00681085
0.00842842
0.0103232
0.0125389
0.0151428
0.0182357
0.0219628
0.0265191
0.0322122
0.039394
0.0487049
0.0608074
0.0772082
0.0995798
0.131316
0.183155
0.236893
0.000725814
0.000755325
0.000832919
0.000962811
0.00116568
0.00146419
0.0018901
0.00248359
0.00329312
0.00437411
0.00578725
0.00759777
0.00987698
0.0127077
0.0161939
0.0204737
0.0257376
0.0322472
0.0403753
0.0506068
0.0637279
0.0805796
0.103112
0.132541
0.175174
0.230867
0.326548
0.447229
0.652845
0.00151969
0.00151969
0.00151969
0.00151969
0.00151969
0.00151969
0.00151969
0.00151969
0.00151969
0.00151969
0.00151969
0.00151969
0.00151969
0.00151969
0.00151969
0.00151969
0.0015197
0.0015197
0.0015197
0.0015197
0.0015197
0.0015197
0.0015197
0.0015197
0.0015197
0.0015197
0.0015197
0.0015197
0.0015197
0.0015197
0.0015197
0.0015197
0.0015197
0.0015197
0.0015197
0.0015197
0.0015197
0.0015197
0.0015197
0.0015197
0.0015197
0.0015197
0.0015197
0.0015197
0.0015197
0.0015197
0.0015197
0.0015197
0.0015197
0.0015197
0.0015197
0.0015197
0.0015197
0.0015197
0.0015197
0.0015197
0.0015197
0.0015197
0.0015197
0.0015197
0.0015197
0.0015197
0.0015197
0.0015197
0.0015197
0.0015197
0.0015197
0.0015197
0.0015197
0.0015197
0.0015197
0.0015197
0.0015197
0.00151971
0.00151971
0.00151971
0.00151971
0.00151971
0.00151971
0.00151971
0.00151971
0.00151971
0.00151971
0.00151971
0.00151971
0.00151971
0.00151971
0.00151971
0.00151971
0.00151971
0.00151971
0.00151971
0.00151971
0.00151971
0.00151971
0.00151971
0.00151971
0.00151971
0.00151971
0.00151971
0.00151971
0.00151971
0.00151971
0.00151971
0.00151971
0.00151971
0.00151971
0.00151971
0.00151971
0.00151971
0.00151971
0.00151971
0.00151971
0.00151971
0.00151971
0.00151971
0.00151971
0.00151971
0.00151971
0.00151971
0.00151971
0.00151971
0.00151971
0.00151971
0.00151971
0.00151971
0.00151971
0.00151971
0.00151971
0.00151971
0.00151971
0.00151971
0.00151971
0.00151972
0.00151972
0.00151972
0.00151972
0.00151973
0.00154205
3.28158e-005
3.28158e-005
3.28139e-005
3.28148e-005
3.28183e-005
3.2819e-005
3.28159e-005
3.28134e-005
3.28146e-005
3.28187e-005
3.28203e-005
3.28178e-005
3.28134e-005
3.28126e-005
3.28158e-005
3.28215e-005
3.28254e-005
3.28271e-005
3.2828e-005
3.28286e-005
3.28291e-005
3.28293e-005
3.28293e-005
3.28288e-005
3.28278e-005
3.28261e-005
3.28241e-005
3.2823e-005
3.28228e-005
3.28234e-005
3.28243e-005
3.2825e-005
3.28256e-005
3.28261e-005
3.28265e-005
3.28268e-005
3.28272e-005
3.28275e-005
3.28277e-005
3.28279e-005
3.28279e-005
3.28279e-005
3.28279e-005
3.2828e-005
3.28283e-005
3.28287e-005
3.2829e-005
3.28293e-005
3.28296e-005
3.28299e-005
3.28301e-005
3.28304e-005
3.28306e-005
3.28308e-005
3.2831e-005
3.28312e-005
3.28313e-005
3.28315e-005
3.28317e-005
3.28319e-005
3.28321e-005
3.28324e-005
3.28327e-005
3.28329e-005
3.28332e-005
3.28334e-005
3.28337e-005
3.28339e-005
3.28343e-005
3.28344e-005
3.28347e-005
3.2835e-005
3.2835e-005
3.28357e-005
3.28355e-005
3.2836e-005
3.28362e-005
3.28364e-005
3.28368e-005
3.28368e-005
3.28373e-005
3.28373e-005
3.28379e-005
3.28382e-005
3.28384e-005
3.28386e-005
3.28387e-005
3.2839e-005
3.2839e-005
3.28392e-005
3.28393e-005
3.28393e-005
3.28394e-005
3.28395e-005
3.28395e-005
3.28396e-005
3.28396e-005
3.28397e-005
3.28397e-005
3.28397e-005
3.28397e-005
3.28397e-005
3.28396e-005
3.28396e-005
3.28395e-005
3.28394e-005
3.28394e-005
3.28392e-005
3.28391e-005
3.28389e-005
3.28387e-005
3.28384e-005
3.28381e-005
3.28377e-005
3.28374e-005
3.2837e-005
3.28365e-005
3.2836e-005
3.28358e-005
3.28359e-005
3.2836e-005
3.28362e-005
3.28365e-005
3.28371e-005
3.28375e-005
3.28379e-005
3.28383e-005
3.28391e-005
3.28394e-005
3.28404e-005
3.28414e-005
3.28427e-005
3.28433e-005
3.28482e-005
3.28457e-005
3.28515e-005
3.28621e-005
3.28636e-005
3.37688e-005
1.42056e-006
1.42058e-006
1.42066e-006
1.42084e-006
1.42092e-006
1.42082e-006
1.42074e-006
1.42089e-006
1.42111e-006
1.42123e-006
1.4211e-006
1.42094e-006
1.42099e-006
1.42121e-006
1.4215e-006
1.42163e-006
1.42165e-006
1.42171e-006
1.4218e-006
1.42187e-006
1.42194e-006
1.42198e-006
1.42199e-006
1.42197e-006
1.42194e-006
1.42192e-006
1.42197e-006
1.42205e-006
1.42211e-006
1.42215e-006
1.4222e-006
1.42224e-006
1.4223e-006
1.42236e-006
1.42241e-006
1.42248e-006
1.42254e-006
1.4226e-006
1.42266e-006
1.42273e-006
1.42279e-006
1.42286e-006
1.42293e-006
1.42299e-006
1.42305e-006
1.42311e-006
1.42316e-006
1.42321e-006
1.42327e-006
1.42332e-006
1.42338e-006
1.42343e-006
1.42348e-006
1.42354e-006
1.42359e-006
1.42364e-006
1.42369e-006
1.42374e-006
1.4238e-006
1.42384e-006
1.4239e-006
1.42395e-006
1.424e-006
1.42405e-006
1.4241e-006
1.42415e-006
1.4242e-006
1.42425e-006
1.42429e-006
1.42435e-006
1.42439e-006
1.42443e-006
1.4245e-006
1.42452e-006
1.42458e-006
1.42462e-006
1.42466e-006
1.42471e-006
1.42474e-006
1.4248e-006
1.42482e-006
1.42487e-006
1.42489e-006
1.42493e-006
1.42496e-006
1.42499e-006
1.42503e-006
1.42506e-006
1.42509e-006
1.42511e-006
1.42512e-006
1.42514e-006
1.42515e-006
1.42516e-006
1.42517e-006
1.42518e-006
1.42519e-006
1.42519e-006
1.4252e-006
1.4252e-006
1.4252e-006
1.4252e-006
1.42519e-006
1.42519e-006
1.42517e-006
1.42516e-006
1.42514e-006
1.42512e-006
1.42509e-006
1.42507e-006
1.42503e-006
1.425e-006
1.42495e-006
1.4249e-006
1.42484e-006
1.42479e-006
1.42473e-006
1.42466e-006
1.42462e-006
1.42459e-006
1.42456e-006
1.42453e-006
1.4245e-006
1.42447e-006
1.42443e-006
1.42439e-006
1.42436e-006
1.42426e-006
1.42429e-006
1.4243e-006
1.42423e-006
1.42442e-006
1.42428e-006
1.42478e-006
1.42469e-006
1.42724e-006
1.3501e-006
1.34166e-006
7.78767e-006
1.19999e-007
1.20019e-007
1.20035e-007
1.20044e-007
1.20056e-007
1.20078e-007
1.20095e-007
1.20107e-007
1.2011e-007
1.20115e-007
1.20132e-007
1.2015e-007
1.20167e-007
1.20168e-007
1.2018e-007
1.20194e-007
1.20217e-007
1.20232e-007
1.20241e-007
1.20249e-007
1.20256e-007
1.20262e-007
1.20267e-007
1.20274e-007
1.20284e-007
1.20299e-007
1.20307e-007
1.20314e-007
1.20325e-007
1.20339e-007
1.20356e-007
1.20371e-007
1.20384e-007
1.20397e-007
1.2041e-007
1.20422e-007
1.20435e-007
1.20448e-007
1.2046e-007
1.20472e-007
1.20484e-007
1.20495e-007
1.20506e-007
1.20518e-007
1.2053e-007
1.20544e-007
1.20557e-007
1.2057e-007
1.20583e-007
1.20595e-007
1.20608e-007
1.2062e-007
1.20633e-007
1.20645e-007
1.20657e-007
1.20669e-007
1.20681e-007
1.20693e-007
1.20704e-007
1.20716e-007
1.20728e-007
1.20739e-007
1.2075e-007
1.2076e-007
1.20771e-007
1.20782e-007
1.20792e-007
1.20802e-007
1.20813e-007
1.20822e-007
1.20832e-007
1.20842e-007
1.20848e-007
1.20861e-007
1.20867e-007
1.20877e-007
1.20884e-007
1.20892e-007
1.20901e-007
1.20907e-007
1.20917e-007
1.20922e-007
1.20932e-007
1.2094e-007
1.20947e-007
1.20954e-007
1.2096e-007
1.20967e-007
1.20972e-007
1.20979e-007
1.20984e-007
1.20988e-007
1.20992e-007
1.20996e-007
1.20999e-007
1.21001e-007
1.21003e-007
1.21005e-007
1.21005e-007
1.21006e-007
1.21006e-007
1.21005e-007
1.21004e-007
1.21002e-007
1.21e-007
1.20997e-007
1.20993e-007
1.20989e-007
1.20984e-007
1.20978e-007
1.20972e-007
1.20965e-007
1.20957e-007
1.20948e-007
1.20938e-007
1.20927e-007
1.20915e-007
1.20903e-007
1.20892e-007
1.20881e-007
1.20869e-007
1.20857e-007
1.20843e-007
1.20829e-007
1.20814e-007
1.20796e-007
1.20784e-007
1.20765e-007
1.20745e-007
1.20744e-007
1.20792e-007
1.20602e-007
1.20712e-007
1.21734e-007
1.20205e-007
1.09435e-007
2.75317e-007
2.30852e-005
0.00254077
1.85221e-008
1.85259e-008
1.85285e-008
1.85336e-008
1.85391e-008
1.85417e-008
1.85422e-008
1.85435e-008
1.85491e-008
1.85556e-008
1.85594e-008
1.8559e-008
1.85595e-008
1.8563e-008
1.85702e-008
1.8577e-008
1.85819e-008
1.85858e-008
1.85896e-008
1.85931e-008
1.85956e-008
1.85979e-008
1.86014e-008
1.86051e-008
1.8609e-008
1.86125e-008
1.8616e-008
1.86197e-008
1.86231e-008
1.86261e-008
1.86293e-008
1.86327e-008
1.86365e-008
1.86403e-008
1.86439e-008
1.86476e-008
1.86512e-008
1.86549e-008
1.86585e-008
1.86622e-008
1.86658e-008
1.86696e-008
1.86734e-008
1.86773e-008
1.8681e-008
1.86846e-008
1.86882e-008
1.86917e-008
1.86953e-008
1.86989e-008
1.87024e-008
1.87059e-008
1.87094e-008
1.87129e-008
1.87163e-008
1.87197e-008
1.8723e-008
1.87263e-008
1.87295e-008
1.87327e-008
1.87359e-008
1.8739e-008
1.8742e-008
1.8745e-008
1.87479e-008
1.87509e-008
1.87537e-008
1.87567e-008
1.87593e-008
1.87623e-008
1.87649e-008
1.87674e-008
1.87706e-008
1.87729e-008
1.87755e-008
1.87778e-008
1.87803e-008
1.87828e-008
1.87849e-008
1.87876e-008
1.87894e-008
1.8792e-008
1.87936e-008
1.87953e-008
1.87973e-008
1.87992e-008
1.88012e-008
1.88026e-008
1.88044e-008
1.88059e-008
1.88074e-008
1.88088e-008
1.88101e-008
1.88113e-008
1.88124e-008
1.88133e-008
1.88142e-008
1.88148e-008
1.88154e-008
1.88158e-008
1.8816e-008
1.88161e-008
1.8816e-008
1.88157e-008
1.88153e-008
1.88147e-008
1.88139e-008
1.8813e-008
1.88119e-008
1.88106e-008
1.88089e-008
1.88073e-008
1.88054e-008
1.88033e-008
1.88008e-008
1.87981e-008
1.87952e-008
1.87923e-008
1.87893e-008
1.87862e-008
1.87828e-008
1.87791e-008
1.87746e-008
1.87705e-008
1.87651e-008
1.87603e-008
1.87542e-008
1.87495e-008
1.87254e-008
1.87776e-008
1.86323e-008
1.88946e-008
1.88912e-008
1.66074e-008
1.85055e-008
1.5079e-007
1.3869e-005
0.00106874
0.0204964
4.68794e-009
4.68935e-009
4.69089e-009
4.6922e-009
4.69288e-009
4.69356e-009
4.69532e-009
4.69722e-009
4.69899e-009
4.69944e-009
4.69987e-009
4.70121e-009
4.70319e-009
4.70515e-009
4.70646e-009
4.70798e-009
4.70942e-009
4.71044e-009
4.71098e-009
4.71179e-009
4.7131e-009
4.71509e-009
4.7168e-009
4.71833e-009
4.71979e-009
4.72089e-009
4.72213e-009
4.72353e-009
4.72507e-009
4.72675e-009
4.72873e-009
4.73028e-009
4.73177e-009
4.73332e-009
4.73483e-009
4.73633e-009
4.73782e-009
4.73929e-009
4.74077e-009
4.74225e-009
4.74375e-009
4.74525e-009
4.74672e-009
4.74817e-009
4.7496e-009
4.75104e-009
4.75248e-009
4.75389e-009
4.75531e-009
4.75671e-009
4.7581e-009
4.75948e-009
4.76086e-009
4.76222e-009
4.76357e-009
4.7649e-009
4.76622e-009
4.76752e-009
4.76881e-009
4.77008e-009
4.77134e-009
4.77258e-009
4.77381e-009
4.77501e-009
4.77621e-009
4.77737e-009
4.77856e-009
4.77964e-009
4.78083e-009
4.78188e-009
4.78298e-009
4.78411e-009