/*--------------------------------*- C++ -*----------------------------------*\
| =========                 |                                                 |
| \\      /  F ield         | OpenFOAM: The Open Source CFD Toolbox           |
|  \\    /   O peration     | Version:  5.x                                   |
|   \\  /    A nd           | Web:      www.OpenFOAM.org                      |
|    \\/     M anipulation  |                                                 |
\*---------------------------------------------------------------------------*/
/*   Windows 32 and 64 bit porting by blueCAPE: http://www.bluecape.com.pt   *\
|  Based on Windows porting (2.0.x v4) by Symscape: http://www.symscape.com   |
\*---------------------------------------------------------------------------*/
FoamFile
{
    version     2.0;
    format      ascii;
    class       volScalarField;
    location    "250";
    object      k;
}
// * * * * * * * * * * * * * * * * * * * * * * * * * * * * * * * * * * * * * //

dimensions      [0 2 -2 0 0 0 0];

internalField   nonuniform List<scalar> 
43900
(
0.000985516
0.000989438
0.000990248
0.000990176
0.000990126
0.000990115
0.000990119
0.00099012
0.000990122
0.000990128
0.000990129
0.000990129
0.00099013
0.000990131
0.000990131
0.000990133
0.000990134
0.000990134
0.000990135
0.000990135
0.000990136
0.000990137
0.000990136
0.000990137
0.000990138
0.000990137
0.000990138
0.000990138
0.000990138
0.00164798
5.59601e-005
3.8931e-005
3.81723e-005
4.08107e-005
4.09659e-005
4.09866e-005
4.09551e-005
4.09566e-005
4.09668e-005
4.09693e-005
4.09698e-005
4.09708e-005
4.09721e-005
4.09732e-005
4.09769e-005
4.09779e-005
4.09785e-005
4.09809e-005
4.09807e-005
4.09819e-005
4.09837e-005
4.09832e-005
4.09845e-005
4.09855e-005
4.09849e-005
4.09863e-005
4.09869e-005
4.09863e-005
0.294214
0.0539156
0.00408739
0.000117097
4.98092e-006
3.08316e-006
2.97818e-006
3.34457e-006
3.38108e-006
3.37595e-006
3.37162e-006
3.37197e-006
3.37306e-006
3.37374e-006
3.37442e-006
3.37527e-006
3.37569e-006
3.37631e-006
3.37693e-006
3.37734e-006
3.37791e-006
3.37827e-006
3.37859e-006
3.37903e-006
3.37922e-006
3.37947e-006
3.37982e-006
3.37989e-006
3.38004e-006
0.878944
0.375682
0.119527
0.0236632
0.00205786
8.16773e-005
3.97704e-006
5.8911e-007
4.57403e-007
5.0027e-007
5.34094e-007
5.35272e-007
5.30828e-007
5.30336e-007
5.31369e-007
5.31552e-007
5.31494e-007
5.31679e-007
5.31873e-007
5.31998e-007
5.32099e-007
5.3221e-007
5.32319e-007
5.32404e-007
5.32485e-007
5.32566e-007
5.32635e-007
5.32706e-007
5.32758e-007
1.29153
0.740384
0.395568
0.17703
0.0563204
0.010365
0.00082759
3.75073e-005
1.68928e-006
2.26774e-007
1.28345e-007
1.2992e-007
1.46288e-007
1.47732e-007
1.44767e-007
1.45057e-007
1.45871e-007
1.45699e-007
1.45652e-007
1.45746e-007
1.45827e-007
1.45867e-007
1.45895e-007
1.45929e-007
1.45958e-007
1.45982e-007
1.46011e-007
1.46037e-007
1.46053e-007
1.54705
0.984038
0.616592
0.36967
0.198602
0.0830285
0.0229951
0.00320954
0.000202806
9.64361e-006
5.05857e-007
9.04149e-008
5.3708e-008
5.5769e-008
6.26299e-008
6.13547e-008
5.99756e-008
6.06875e-008
6.08637e-008
6.06594e-008
6.05851e-008
6.05989e-008
6.06182e-008
6.0631e-008
6.06438e-008
6.06568e-008
6.06682e-008
6.06825e-008
6.06928e-008
1.71358
1.15168
0.774493
0.514712
0.331094
0.198361
0.100107
0.0347179
0.00691911
0.000624314
3.42929e-005
1.79541e-006
1.26864e-007
3.80869e-008
2.88093e-008
3.23758e-008
3.41145e-008
3.26317e-008
3.26471e-008
3.31255e-008
3.31899e-008
3.31581e-008
3.31599e-008
3.31682e-008
3.31791e-008
3.3185e-008
3.31917e-008
3.32008e-008
3.32043e-008
1.81257
1.25906
0.880335
0.615177
0.425075
0.285606
0.181075
0.101779
0.0426125
0.0109972
0.00137455
9.0563e-005
5.12121e-006
3.10161e-007
3.97409e-008
2.09643e-008
1.94218e-008
2.20304e-008
2.16184e-008
2.10154e-008
2.12308e-008
2.13673e-008
2.13643e-008
2.13611e-008
2.13647e-008
2.13702e-008
2.1374e-008
2.13794e-008
2.13839e-008
1.88035
1.33771
0.960546
0.692846
0.498696
0.354879
0.246159
0.16249
0.0972856
0.0462878
0.0137689
0.0020972
0.000161532
9.97192e-006
6.22218e-007
5.34861e-008
1.90228e-008
1.44233e-008
1.58886e-008
1.59907e-008
1.5467e-008
1.54031e-008
1.54868e-008
1.55157e-008
1.55206e-008
1.55246e-008
1.55297e-008
1.55355e-008
1.55373e-008
1.90528
1.37794
1.00795
0.743034
0.549378
0.404907
0.294959
0.209674
0.142381
0.0886029
0.0456351
0.0147386
0.00251272
0.000216426
1.44615e-005
9.55646e-007
7.54545e-008
1.69587e-008
1.19047e-008
1.23375e-008
1.30826e-008
1.27631e-008
1.25462e-008
1.25543e-008
1.25694e-008
1.25751e-008
1.25778e-008
1.25787e-008
1.25799e-008
1.90597
1.39492
1.03361
0.773327
0.582067
0.438771
0.32932
0.244115
0.176572
0.122168
0.0778803
0.0419636
0.0141032
0.00252843
0.000233437
1.67522e-005
1.18347e-006
9.35578e-008
1.63493e-008
1.01746e-008
9.99812e-009
1.07895e-008
1.08337e-008
1.07092e-008
1.06649e-008
1.06663e-008
1.06685e-008
1.06726e-008
1.06773e-008
1.89763
1.40255
1.05006
0.794508
0.605778
0.463823
0.355089
0.270273
0.202918
0.14852
0.103953
0.0671346
0.0369013
0.0124846
0.00225765
0.000218687
1.69515e-005
1.29706e-006
1.07557e-007
1.63801e-008
9.2104e-009
7.94202e-009
8.50835e-009
8.82465e-009
8.8329e-009
8.82121e-009
8.81839e-009
8.82142e-009
8.82561e-009
1.8768
1.39895
1.05644
0.806875
0.621707
0.481875
0.374431
0.290428
0.223606
0.16955
0.125136
0.0881826
0.0572397
0.0315247
0.0104856
0.00187245
0.000190146
1.609e-005
1.34909e-006
1.20211e-007
1.71925e-008
8.1604e-009
6.722e-009
6.83448e-009
6.9997e-009
7.04246e-009
7.04951e-009
7.0562e-009
7.0633e-009
1.84538
1.38603
1.05458
0.81184
0.631059
0.494081
0.388506
0.305764
0.239825
0.186401
0.142429
0.105718
0.0747309
0.0484556
0.0263752
0.00848142
0.00148018
0.000157798
1.45895e-005
1.33491e-006
1.2785e-007
1.77034e-008
7.27284e-009
5.96668e-009
5.73364e-009
5.78735e-009
5.81637e-009
5.82159e-009
5.82503e-009
1.80546
1.36482
1.04582
0.810725
0.634937
0.501351
0.398136
0.317052
0.25231
0.199777
0.156473
0.120245
0.0895433
0.0632793
0.0407506
0.0216378
0.00664049
0.00112758
0.000126238
1.2678e-005
1.26285e-006
1.30616e-007
1.81353e-008
6.82234e-009
5.57187e-009
5.31608e-009
5.27905e-009
5.28154e-009
5.28468e-009
1.75852
1.33712
1.03072
0.804471
0.634245
0.504501
0.404017
0.324925
0.261654
0.210234
0.16779
0.132227
0.102017
0.0760567
0.053575
0.0340916
0.0174251
0.00505312
0.000836251
9.86909e-005
1.07516e-005
1.15836e-006
1.28185e-007
1.83129e-008
6.65682e-009
5.37879e-009
5.20927e-009
5.17782e-009
5.17412e-009
1.70551
1.30384
1.0106
0.793299
0.629653
0.504109
0.406681
0.329837
0.268265
0.218144
0.176716
0.141957
0.112381
0.0868967
0.064714
0.0452906
0.028308
0.0136925
0.00371736
0.000602309
7.48236e-005
8.72315e-006
1.00509e-006
1.18763e-007
1.79561e-008
6.60318e-009
5.33705e-009
5.19679e-009
5.18119e-009
1.64744
1.26585
0.986224
0.778312
0.621248
0.500744
0.406556
0.332199
0.272501
0.223832
0.183543
0.149695
0.120854
0.0959546
0.0742133
0.0550667
0.0381382
0.0232318
0.010352
0.00260853
0.000415345
5.41744e-005
6.73696e-006
8.28053e-007
1.04708e-007
1.71099e-008
6.60982e-009
5.37038e-009
5.22687e-009
1.58526
1.22399
0.958312
0.760132
0.609968
0.49443
0.40418
0.33236
0.2747
0.227612
0.188574
0.155728
0.1277
0.103464
0.0822548
0.0635102
0.0468316
0.0319687
0.0188319
0.00746732
0.00173083
0.000273933
3.77759e-005
5.01724e-006
6.57676e-007
8.87899e-008
1.58277e-008
6.60821e-009
5.44942e-009
1.51988
1.17906
0.927545
0.739341
0.59631
0.485953
0.399527
0.33081
0.275199
0.229775
0.192055
0.160272
0.133112
0.109592
0.0889731
0.070702
0.0543763
0.0397194
0.0265769
0.0149395
0.00510504
0.00109264
0.000175301
2.55319e-005
3.6052e-006
5.03043e-007
7.29893e-008
1.4478e-008
6.63481e-009
1.45222
1.13184
0.894581
0.716496
0.580753
0.47572
0.393241
0.327517
0.274319
0.230593
0.194245
0.163569
0.13731
0.114532
0.0945293
0.0767673
0.060848
0.0464846
0.0334899
0.0217767
0.0113707
0.00344975
0.000694245
0.000113301
1.72799e-005
2.56908e-006
3.80216e-007
5.98637e-008
1.34e-008
1.38311
1.08302
0.860019
0.692109
0.563735
0.464115
0.385665
0.322982
0.272166
0.230292
0.195384
0.165848
0.140517
0.118503
0.099135
0.0819017
0.0664166
0.0523936
0.0396322
0.0280127
0.0175088
0.00813974
0.00222789
0.00043392
7.3165e-005
1.17503e-005
1.84243e-006
2.88481e-007
4.86014e-008
1.31329
1.03323
0.82438
0.666624
0.545641
0.451473
0.377098
0.317499
0.269052
0.229105
0.195595
0.167234
0.142863
0.12164
0.102929
0.0862453
0.0712171
0.0575655
0.045088
0.0336495
0.023185
0.0136898
0.00546126
0.00137062
0.000265413
4.66863e-005
7.9109e-006
1.31334e-006
2.15491e-007
1.24339
0.982993
0.788104
0.640415
0.526792
0.438077
0.367794
0.311306
0.265253
0.22717
0.195227
0.168049
0.144628
0.124188
0.106128
0.0899884
0.0754171
0.0621451
0.0499722
0.0387575
0.0284168
0.0189271
0.010299
0.00348847
0.000826931
0.000163132
3.00636e-005
5.37513e-006
9.28082e-007
1.17392
0.932732
0.751547
0.613781
0.507443
0.424146
0.357946
0.304571
0.260922
0.224722
0.194281
0.168281
0.145846
0.126214
0.108821
0.0932389
0.0791339
0.0662508
0.054396
0.0434284
0.0332555
0.0238341
0.0151586
0.00739292
0.00223522
0.000511895
0.000103327
1.98409e-005
3.64851e-006
1.10533
0.882804
0.714997
0.586959
0.487793
0.409854
0.347704
0.297431
0.256183
0.221863
0.192908
0.168139
0.146681
0.127851
0.111128
0.0961054
0.082471
0.0699819
0.0584527
0.047745
0.0377623
0.0284489
0.019789
0.0117966
0.00500603
0.00140155
0.000318868
6.65058e-005
1.30865e-005
1.03796
0.833494
0.678685
0.560138
0.467998
0.395329
0.337183
0.289987
0.251135
0.218701
0.191253
0.167714
0.147232
0.129205
0.11315
0.0986875
0.0855243
0.0734317
0.0622331
0.0517948
0.0420203
0.0328472
0.0242465
0.0162091
0.00883165
0.00324205
0.000869479
0.000201269
4.28164e-005
0.972129
0.785035
0.642794
0.533463
0.448176
0.38067
0.326463
0.28231
0.245835
0.21528
0.189332
0.166997
0.147518
0.130314
0.114939
0.101045
0.0883593
0.0766684
0.0658063
0.0556458
0.0460926
0.0370826
0.0285804
0.0205718
0.0130561
0.00633962
0.00208502
0.000551055
0.000128236
0.90806
0.737613
0.607468
0.507048
0.428416
0.365948
0.315603
0.274448
0.240327
0.211641
0.187193
0.166071
0.14758
0.131214
0.116536
0.103224
0.0910265
0.079746
0.069228
0.0593526
0.0500295
0.0411953
0.0328118
0.024863
0.0173448
0.0102928
0.00439895
0.00136288
0.000351568
0.84595
0.691376
0.572824
0.480981
0.408786
0.351214
0.304643
0.266432
0.234636
0.207808
0.184859
0.164963
0.147489
0.131955
0.117978
0.105258
0.093562
0.0827052
0.0725437
0.062965
0.0538838
0.0452378
0.0369874
0.0291139
0.021614
0.0145117
0.00790876
0.00301127
0.000885702
0.785955
0.646445
0.538951
0.455329
0.389335
0.336505
0.293608
0.25828
0.228776
0.20379
0.182341
0.16368
0.147237
0.132549
0.119284
0.10717
0.09599
0.0855726
0.0757837
0.0665181
0.057695
0.0492544
0.0411557
0.0333768
0.0259107
0.018784
0.0120034
0.00595275
0.00205651
0.728196
0.602915
0.505922
0.430148
0.370103
0.321846
0.282514
0.250002
0.222749
0.199586
0.179629
0.162202
0.146785
0.132971
0.120445
0.108958
0.0983144
0.0883563
0.0789599
0.0700271
0.0614821
0.0532677
0.0453436
0.0376851
0.0302814
0.0231488
0.016307
0.00982842
0.0042998
0.672772
0.560865
0.473798
0.40548
0.351119
0.307258
0.271372
0.241598
0.216551
0.195186
0.176713
0.160523
0.146146
0.133217
0.121448
0.110612
0.100527
0.0910521
0.0820712
0.0734942
0.0652501
0.057285
0.0495599
0.0420494
0.0347406
0.0276397
0.0207678
0.014179
0.00778958
0.61976
0.52036
0.44263
0.381365
0.33241
0.292755
0.260188
0.23307
0.210176
0.19058
0.173576
0.15862
0.145288
0.133241
0.12226
0.112104
0.102609
0.0936455
0.0851081
0.0769137
0.0689966
0.0613063
0.0538057
0.04647
0.0392856
0.032253
0.0253866
0.018757
0.0121633
0.569222
0.481455
0.412464
0.357837
0.314002
0.278353
0.248968
0.224414
0.203615
0.185754
0.170204
0.156483
0.144211
0.133093
0.122895
0.113431
0.104548
0.0961226
0.0880582
0.0802767
0.0727165
0.0653301
0.0580823
0.050949
0.0439167
0.0369832
0.0301587
0.0235011
0.0169595
0.521206
0.444201
0.383344
0.334932
0.295918
0.264068
0.23772
0.215631
0.196862
0.180695
0.166579
0.154087
0.142881
0.132703
0.123313
0.114566
0.106321
0.0984643
0.0909053
0.0835704
0.0764013
0.0693526
0.0623901
0.0554905
0.0486401
0.0418351
0.0350832
0.0284221
0.02192
0.475753
0.408641
0.355311
0.312684
0.278187
0.249918
0.226453
0.206722
0.189908
0.175389
0.162679
0.151402
0.141257
0.132004
0.12344
0.115453
0.107886
0.100637
0.093622
0.0867734
0.0800354
0.073364
0.0667256
0.0600965
0.0534624
0.0468184
0.0401696
0.0335411
0.0270169
0.432889
0.374816
0.328407
0.291131
0.260838
0.235924
0.21518
0.19769
0.182751
0.169823
0.158486
0.148406
0.139318
0.13101
0.123304
0.116083
0.109217
0.102608
0.0961772
0.089858
0.0835963
0.0773482
0.0710794
0.0647649
0.0583887
0.051944
0.0454333
0.0388749
0.0323277
0.392637
0.342764
0.302674
0.270315
0.243908
0.222115
0.20392
0.188544
0.175389
0.16399
0.153982
0.145075
0.137037
0.12968
0.122857
0.116402
0.110265
0.104333
0.0985285
0.0927862
0.0870519
0.0812803
0.075435
0.069488
0.06342
0.057221
0.0508906
0.0444416
0.0379107
0.355006
0.312517
0.278154
0.250276
0.227433
0.208523
0.192697
0.179301
0.16783
0.157886
0.149156
0.141387
0.134377
0.12796
0.121995
0.116343
0.110973
0.105758
0.100624
0.09551
0.0903599
0.085126
0.0797676
0.0742517
0.0685536
0.0626578
0.0565591
0.050265
0.0437985
0.319994
0.284099
0.254884
0.231058
0.211457
0.195185
0.181542
0.169984
0.160087
0.151515
0.144001
0.137327
0.131317
0.125826
0.12073
0.115929
0.111298
0.106825
0.102404
0.0979698
0.0934652
0.0888377
0.0840404
0.0790327
0.0737812
0.0682616
0.0624604
0.0563775
0.0500271
0.287584
0.257528
0.232899
0.212703
0.196025
0.182145
0.170494
0.160625
0.152186
0.144894
0.138523
0.132888
0.127839
0.123247
0.119006
0.115025
0.111178
0.107471
0.103798
0.100094
0.0962977
0.0923515
0.0882002
0.0837928
0.0790834
0.0740341
0.0686177
0.0628217
0.0566501
0.257742
0.232806
0.212225
0.195252
0.181184
0.169453
0.159602
0.151269
0.144163
0.13805
0.132742
0.128081
0.12394
0.120208
0.116793
0.113615
0.110598
0.107616
0.104725
0.101797
0.0987705
0.0955827
0.0921703
0.0884697
0.0844189
0.0799607
0.0750467
0.0696431
0.0637371
0.230413
0.209924
0.192882
0.178743
0.166983
0.157163
0.148922
0.141971
0.136072
0.131033
0.126698
0.122937
0.11964
0.116716
0.114086
0.111681
0.109437
0.107268
0.105123
0.102997
0.100788
0.0984278
0.0958467
0.0929676
0.08971
0.0859919
0.0817342
0.0768702
0.0713567
0.205526
0.188861
0.174882
0.163211
0.153473
0.145338
0.138526
0.132806
0.127988
0.123916
0.12046
0.117515
0.11499
0.112809
0.110908
0.109229
0.107719
0.106332
0.104951
0.103615
0.102249
0.100769
0.0990989
0.0971511
0.0948283
0.0920205
0.0886086
0.0844783
0.0795378
0.182998
0.169585
0.158232
0.148693
0.140714
0.134055
0.128501
0.123872
0.120014
0.116803
0.114132
0.111916
0.110082
0.108569
0.107326
0.106308
0.105474
0.104786
0.1042
0.103592
0.103068
0.10249
0.101781
0.100849
0.0995889
0.0978679
0.0955131
0.0923494
0.0882179
0.162736
0.152061
0.142942
0.135232
0.128778
0.123409
0.118961
0.115295
0.112289
0.109839
0.107861
0.106286
0.105056
0.104125
0.103456
0.103017
0.102778
0.102718
0.102798
0.102992
0.103195
0.103497
0.103756
0.103866
0.103759
0.103294
0.102203
0.100245
0.097205
0.144647
0.136257
0.129027
0.122885
0.117754
0.113517
0.110049
0.10724
0.10499
0.103213
0.101841
0.100817
0.100101
0.0996595
0.0994658
0.0995116
0.0997582
0.100234
0.100894
0.101734
0.102703
0.103747
0.104928
0.106103
0.107186
0.108015
0.108267
0.107788
0.106184
0.128649
0.12215
0.116517
0.111724
0.107754
0.104525
0.101941
0.0999064
0.0983357
0.0971552
0.0963066
0.0957471
0.0954508
0.0953985
0.095567
0.0959783
0.0966203
0.0975
0.0986125
0.099961
0.101546
0.103315
0.105253
0.107403
0.109634
0.111795
0.113618
0.114706
0.114501
0.11467
0.109731
0.105452
0.101838
0.0989083
0.0966024
0.0948362
0.0935208
0.0925732
0.0919258
0.0915274
0.091344
0.0913719
0.0915869
0.092021
0.0926775
0.0935713
0.0947218
0.0961445
0.0978567
0.0998758
0.102214
0.104839
0.107754
0.111013
0.114437
0.117824
0.120684
0.122355
0.102654
0.0990001
0.0958857
0.0933244
0.0913572
0.0899267
0.0889474
0.0883238
0.0879661
0.0878068
0.087798
0.0879106
0.0881614
0.0885536
0.0891205
0.0898922
0.0909007
0.0921796
0.0937599
0.0956744
0.0979572
0.100644
0.103773
0.107339
0.111374
0.115895
0.120747
0.12538
0.129394
0.0925485
0.089958
0.0878634
0.0862721
0.0852287
0.0846626
0.0844759
0.0845528
0.084786
0.0851036
0.0854525
0.0858154
0.086214
0.0866808
0.0872667
0.0880258
0.0890109
0.0902726
0.0918571
0.0938113
0.0961836
0.0990292
0.102411
0.106396
0.111053
0.116383
0.12249
0.128748
0.135414
0.0842892
0.082585
0.0814046
0.0807369
0.0806155
0.0809404
0.0815992
0.0824383
0.0833293
0.084177
0.0849188
0.0855387
0.0860654
0.0865545
0.0870811
0.0877273
0.0885729
0.0896907
0.0911445
0.0929964
0.0953056
0.0981461
0.101589
0.105756
0.110734
0.116639
0.123692
0.131244
0.14106
0.0777808
0.0768223
0.0764826
0.0767223
0.0775511
0.0788531
0.0804647
0.0822079
0.0839011
0.0854225
0.0866955
0.0876918
0.0884395
0.0890092
0.089502
0.0900314
0.0907117
0.0916464
0.0929219
0.0946211
0.0968093
0.0995874
0.102995
0.107256
0.112316
0.118632
0.126426
0.135015
0.148718
0.0728838
0.0725605
0.0730116
0.0741715
0.0760282
0.0784285
0.0811681
0.0840379
0.0868488
0.0894281
0.0916487
0.0934445
0.0948215
0.0958459
0.0966337
0.09733
0.0980918
0.0990696
0.100386
0.102169
0.104491
0.10753
0.111202
0.116065
0.121399
0.128857
0.137073
0.14744
0.165799
0.0694147
0.0696388
0.070859
0.0729792
0.0759648
0.0796288
0.0837762
0.0881772
0.0925982
0.0968273
0.100691
0.104082
0.106963
0.10938
0.11145
0.113346
0.115275
0.117462
0.120091
0.123384
0.12746
0.132691
0.138755
0.147103
0.155166
0.168497
0.178703
0.19963
0.217928
0.0671605
0.067862
0.0698551
0.0729874
0.0772212
0.0823898
0.0882814
0.094659
0.101283
0.107922
0.114377
0.120509
0.126261
0.131672
0.136879
0.142103
0.147619
0.153757
0.160883
0.16942
0.179702
0.192492
0.207494
0.227556
0.248275
0.281835
0.308543
0.373008
0.39053
0.0659035
0.0670257
0.0698083
0.0740087
0.0796433
0.0865362
0.0945014
0.103326
0.112788
0.122671
0.132783
0.142996
0.153267
0.163672
0.174411
0.185809
0.198295
0.212419
0.22884
0.248329
0.271748
0.300436
0.335036
0.379412
0.431013
0.506063
0.583542
0.738771
0.806652
0.0654725
0.066962
0.0705635
0.0758921
0.0830494
0.0918699
0.102213
0.113915
0.126811
0.140739
0.155571
0.171243
0.187793
0.205398
0.224393
0.24528
0.268732
0.295609
0.326995
0.364164
0.408829
0.463093
0.529607
0.613085
0.717271
0.857391
1.03771
1.30496
1.54702
0.000990139
0.000990139
0.000990137
0.000990138
0.000990141
0.000990142
0.000990139
0.000990137
0.000990137
0.000990141
0.000990143
0.000990141
0.000990137
0.000990136
0.000990138
0.000990143
0.000990147
0.000990148
0.000990149
0.000990149
0.00099015
0.00099015
0.00099015
0.00099015
0.000990149
0.000990147
0.000990145
0.000990144
0.000990144
0.000990145
0.000990145
0.000990146
0.000990146
0.000990147
0.000990147
0.000990147
0.000990148
0.000990148
0.000990148
0.000990148
0.000990148
0.000990148
0.000990148
0.000990148
0.000990148
0.000990148
0.000990149
0.000990149
0.000990149
0.000990149
0.00099015
0.00099015
0.00099015
0.00099015
0.00099015
0.00099015
0.00099015
0.000990151
0.000990151
0.000990151
0.000990151
0.000990151
0.000990151
0.000990152
0.000990152
0.000990152
0.000990152
0.000990152
0.000990153
0.000990153
0.000990153
0.000990153
0.000990153
0.000990154
0.000990153
0.000990154
0.000990154
0.000990154
0.000990155
0.000990154
0.000990155
0.000990155
0.000990155
0.000990156
0.000990156
0.000990156
0.000990156
0.000990156
0.000990156
0.000990156
0.000990156
0.000990156
0.000990157
0.000990157
0.000990157
0.000990157
0.000990157
0.000990157
0.000990157
0.000990157
0.000990157
0.000990157
0.000990157
0.000990157
0.000990157
0.000990157
0.000990156
0.000990156
0.000990156
0.000990156
0.000990156
0.000990156
0.000990156
0.000990155
0.000990155
0.000990155
0.000990154
0.000990154
0.000990154
0.000990154
0.000990154
0.000990154
0.000990154
0.000990155
0.000990155
0.000990156
0.000990156
0.000990157
0.000990157
0.000990158
0.000990159
0.00099016
0.000990161
0.000990164
0.000990163
0.000990168
0.000990165
0.000990175
0.00100826
4.09879e-005
4.09878e-005
4.09857e-005
4.09869e-005
4.09911e-005
4.09917e-005
4.09879e-005
4.09852e-005
4.09868e-005
4.09917e-005
4.09935e-005
4.09903e-005
4.09851e-005
4.09844e-005
4.09885e-005
4.09954e-005
4.09999e-005
4.10021e-005
4.10031e-005
4.10039e-005
4.10045e-005
4.10049e-005
4.10048e-005
4.10042e-005
4.10029e-005
4.10008e-005
4.09985e-005
4.09972e-005
4.0997e-005
4.09978e-005
4.09989e-005
4.09997e-005
4.10005e-005
4.10011e-005
4.10016e-005
4.1002e-005
4.10025e-005
4.10029e-005
4.10032e-005
4.10034e-005
4.10035e-005
4.10035e-005
4.10036e-005
4.10038e-005
4.10042e-005
4.10046e-005
4.1005e-005
4.10055e-005
4.10058e-005
4.10062e-005
4.10065e-005
4.10068e-005
4.1007e-005
4.10073e-005
4.10076e-005
4.10079e-005
4.1008e-005
4.10083e-005
4.10085e-005
4.10089e-005
4.10092e-005
4.10095e-005
4.10099e-005
4.10102e-005
4.10106e-005
4.10109e-005
4.10112e-005
4.10115e-005
4.10119e-005
4.10122e-005
4.10125e-005
4.10129e-005
4.10129e-005
4.10138e-005
4.10136e-005
4.10142e-005
4.10145e-005
4.10147e-005
4.10152e-005
4.10153e-005
4.10159e-005
4.10159e-005
4.10167e-005
4.1017e-005
4.10173e-005
4.10176e-005
4.10177e-005
4.10181e-005
4.10181e-005
4.10183e-005
4.10184e-005
4.10185e-005
4.10186e-005
4.10187e-005
4.10188e-005
4.10189e-005
4.10188e-005
4.10189e-005
4.10189e-005
4.10189e-005
4.10189e-005
4.10189e-005
4.10189e-005
4.10188e-005
4.10187e-005
4.10186e-005
4.10185e-005
4.10183e-005
4.10181e-005
4.10179e-005
4.10177e-005
4.10173e-005
4.10169e-005
4.10164e-005
4.1016e-005
4.10155e-005
4.10148e-005
4.10142e-005
4.1014e-005
4.1014e-005
4.10141e-005
4.10144e-005
4.10148e-005
4.10154e-005
4.10159e-005
4.10164e-005
4.10169e-005
4.10177e-005
4.10181e-005
4.10194e-005
4.10206e-005
4.10222e-005
4.10229e-005
4.10293e-005
4.10259e-005
4.10328e-005
4.10591e-005
4.10575e-005
4.14704e-005
3.38031e-006
3.38038e-006
3.38059e-006
3.38099e-006
3.38115e-006
3.38094e-006
3.38082e-006
3.38118e-006
3.38167e-006
3.3819e-006
3.38162e-006
3.3813e-006
3.38147e-006
3.38197e-006
3.38261e-006
3.38286e-006
3.38291e-006
3.38305e-006
3.38324e-006
3.38341e-006
3.38355e-006
3.38365e-006
3.38367e-006
3.38363e-006
3.38356e-006
3.38355e-006
3.38369e-006
3.38386e-006
3.38401e-006
3.38412e-006
3.38424e-006
3.38436e-006
3.38449e-006
3.38463e-006
3.38477e-006
3.38491e-006
3.38507e-006
3.38522e-006
3.38537e-006
3.38552e-006
3.38568e-006
3.38584e-006
3.386e-006
3.38615e-006
3.38629e-006
3.38643e-006
3.38656e-006
3.38669e-006
3.38682e-006
3.38695e-006
3.38709e-006
3.38722e-006
3.38735e-006
3.38748e-006
3.38761e-006
3.38774e-006
3.38787e-006
3.38799e-006
3.38812e-006
3.38824e-006
3.38837e-006
3.38849e-006
3.38861e-006
3.38874e-006
3.38885e-006
3.38898e-006
3.38909e-006
3.38922e-006
3.38933e-006
3.38945e-006
3.38956e-006
3.38967e-006
3.38981e-006
3.38988e-006
3.39002e-006
3.39011e-006
3.39022e-006
3.39032e-006
3.39041e-006
3.39053e-006
3.3906e-006
3.39072e-006
3.39077e-006
3.39085e-006
3.39094e-006
3.39102e-006
3.39111e-006
3.39118e-006
3.39125e-006
3.39129e-006
3.39133e-006
3.39137e-006
3.3914e-006
3.39143e-006
3.39145e-006
3.39147e-006
3.39149e-006
3.3915e-006
3.39151e-006
3.39152e-006
3.39151e-006
3.39151e-006
3.39149e-006
3.39147e-006
3.39144e-006
3.39141e-006
3.39136e-006
3.39131e-006
3.39125e-006
3.39118e-006
3.3911e-006
3.39102e-006
3.3909e-006
3.39078e-006
3.39065e-006
3.39052e-006
3.39037e-006
3.39022e-006
3.39012e-006
3.39003e-006
3.38996e-006
3.38988e-006
3.38979e-006
3.38973e-006
3.38962e-006
3.38952e-006
3.38944e-006
3.38921e-006
3.38925e-006
3.38932e-006
3.38909e-006
3.38963e-006
3.38927e-006
3.38982e-006
3.39075e-006
3.40037e-006
3.06193e-006
3.12263e-006
3.91712e-005
5.32823e-007
5.3291e-007
5.32975e-007
5.33021e-007
5.33079e-007
5.33171e-007
5.33244e-007
5.33283e-007
5.33305e-007
5.33334e-007
5.33416e-007
5.33487e-007
5.33549e-007
5.33556e-007
5.3361e-007
5.33677e-007
5.33776e-007
5.33839e-007
5.33883e-007
5.33919e-007
5.33949e-007
5.33972e-007
5.33995e-007
5.34028e-007
5.3408e-007
5.34145e-007
5.34184e-007
5.3422e-007
5.3427e-007
5.34328e-007
5.34397e-007
5.34457e-007
5.34516e-007
5.34572e-007
5.34627e-007
5.34681e-007
5.34735e-007
5.3479e-007
5.34844e-007
5.34897e-007
5.34949e-007
5.34998e-007
5.35047e-007
5.35099e-007
5.35153e-007
5.3521e-007
5.35267e-007
5.35325e-007
5.3538e-007
5.35436e-007
5.3549e-007
5.35544e-007
5.35597e-007
5.35651e-007
5.35704e-007
5.35757e-007
5.35808e-007
5.35861e-007
5.3591e-007
5.35962e-007
5.36011e-007
5.36059e-007
5.36108e-007
5.36153e-007
5.362e-007
5.36245e-007
5.36291e-007
5.36333e-007
5.36379e-007
5.36418e-007
5.36461e-007
5.36505e-007
5.36536e-007
5.36588e-007
5.36616e-007
5.36657e-007
5.36692e-007
5.36725e-007
5.36764e-007
5.3679e-007
5.36831e-007
5.36857e-007
5.36899e-007
5.36932e-007
5.36963e-007
5.36992e-007
5.37017e-007
5.37049e-007
5.37072e-007
5.371e-007
5.37122e-007
5.37141e-007
5.37159e-007
5.37174e-007
5.37186e-007
5.37198e-007
5.37204e-007
5.37212e-007
5.37216e-007
5.37218e-007
5.37217e-007
5.37214e-007
5.37208e-007
5.372e-007
5.3719e-007
5.37176e-007
5.37161e-007
5.37141e-007
5.37119e-007
5.37094e-007
5.37066e-007
5.37035e-007
5.37003e-007
5.36963e-007
5.3692e-007
5.36872e-007
5.36822e-007
5.36768e-007
5.36721e-007
5.36672e-007
5.36623e-007
5.36569e-007
5.3651e-007
5.36448e-007
5.36381e-007
5.36305e-007
5.36253e-007
5.36171e-007
5.36107e-007
5.35992e-007
5.36518e-007
5.35003e-007
5.35756e-007
5.43978e-007
5.31176e-007
4.71063e-007
2.42717e-006
0.000277428
0.019702
1.46085e-007
1.46113e-007
1.46136e-007
1.46175e-007
1.46212e-007
1.46226e-007
1.46235e-007
1.46251e-007
1.46296e-007
1.46339e-007
1.46361e-007
1.46361e-007
1.46369e-007
1.46402e-007
1.46451e-007
1.46499e-007
1.46532e-007
1.46559e-007
1.46584e-007
1.46606e-007
1.46623e-007
1.46645e-007
1.46674e-007
1.46704e-007
1.46733e-007
1.46757e-007
1.46782e-007
1.46809e-007
1.46835e-007
1.46858e-007
1.46883e-007
1.4691e-007
1.46937e-007
1.46965e-007
1.46992e-007
1.47019e-007
1.47045e-007
1.47072e-007
1.47099e-007
1.47126e-007
1.47153e-007
1.47181e-007
1.4721e-007
1.47238e-007
1.47265e-007
1.47291e-007
1.47318e-007
1.47344e-007
1.4737e-007
1.47396e-007
1.47422e-007
1.47448e-007
1.47473e-007
1.47499e-007
1.47524e-007
1.47549e-007
1.47573e-007
1.47597e-007
1.47621e-007
1.47645e-007
1.47668e-007
1.47691e-007
1.47713e-007
1.47735e-007
1.47757e-007
1.47778e-007
1.47799e-007
1.47821e-007
1.4784e-007
1.47862e-007
1.47881e-007
1.479e-007
1.47923e-007
1.4794e-007
1.47959e-007
1.47976e-007
1.47994e-007
1.48012e-007
1.48028e-007
1.48047e-007
1.4806e-007
1.48079e-007
1.48091e-007
1.48104e-007
1.48118e-007
1.48131e-007
1.48145e-007
1.48155e-007
1.48168e-007
1.48179e-007
1.48191e-007
1.48201e-007
1.48211e-007
1.4822e-007
1.48228e-007
1.48235e-007
1.48242e-007
1.48246e-007
1.48251e-007
1.48254e-007
1.48255e-007
1.48256e-007
1.48255e-007
1.48253e-007
1.4825e-007
1.48246e-007
1.4824e-007
1.48233e-007
1.48225e-007
1.48215e-007
1.48203e-007
1.48191e-007
1.48177e-007
1.48161e-007
1.48143e-007
1.48123e-007
1.48102e-007
1.48081e-007
1.48059e-007
1.48037e-007
1.48012e-007
1.47985e-007
1.47952e-007
1.47922e-007
1.47881e-007
1.47846e-007
1.47801e-007
1.47771e-007
1.4746e-007
1.48272e-007
1.46078e-007
1.50187e-007
1.49549e-007
1.21392e-007
1.56236e-007
2.41565e-006
0.000252446
0.0134279
0.159254
6.07047e-008
6.07226e-008
6.07406e-008
6.07532e-008
6.07616e-008
6.07719e-008
6.07945e-008
6.08159e-008
6.08316e-008
6.08357e-008
6.08421e-008
6.08615e-008
6.0884e-008
6.09039e-008
6.09177e-008
6.0934e-008
6.09493e-008
6.09597e-008
6.09662e-008
6.09779e-008
6.09953e-008
6.10175e-008
6.10351e-008
6.10516e-008
6.10675e-008
6.10805e-008
6.10964e-008
6.11135e-008
6.11315e-008
6.11514e-008
6.11723e-008
6.11887e-008
6.12057e-008
6.12233e-008
6.12406e-008
6.12577e-008
6.12745e-008
6.12912e-008
6.13078e-008
6.13245e-008
6.13414e-008
6.13581e-008
6.13744e-008
6.13905e-008
6.14067e-008
6.14231e-008
6.14393e-008
6.14554e-008
6.14714e-008
6.14872e-008
6.15029e-008
6.15184e-008
6.15338e-008
6.15491e-008
6.15642e-008
6.15791e-008
6.15938e-008
6.16084e-008
6.16228e-008
6.1637e-008
6.16511e-008
6.1665e-008
6.16788e-008
6.16921e-008
6.17056e-008
6.17186e-008
6.17318e-008
6.1744e-008
6.17573e-008
6.17689e-008
6.17813e-008
6.17937e-008
6.18047e-008
6.18166e-008
6.18271e-008
6.18379e-008
6.18478e-008
6.18576e-008
6.18678e-008
6.18764e-008
6.18864e-008
6.18944e-008
6.19037e-008
6.19126e-008
6.19204e-008
6.19279e-008
6.19346e-008
6.19419e-008
6.19484e-008
6.19563e-008
6.19635e-008
6.19704e-008
6.19771e-008
6.1983e-008
6.19885e-008
6.19936e-008
6.19978e-008
6.20022e-008
6.20056e-008
6.20087e-008
6.20111e-008
6.20128e-008
6.20141e-008
6.20146e-008
6.20146e-008
6.20136e-008
6.20123e-008
6.20099e-008
6.20069e-008
6.20029e-008
6.19977e-008
6.19914e-008
6.19846e-008
6.19767e-008
6.19677e-008
6.19574e-008
6.19468e-008
6.19359e-008
6.19242e-008
6.19118e-008
6.18974e-008
6.18819e-008
6.18616e-008
6.18445e-008
6.18192e-008
6.17998e-008
6.17698e-008
6.17004e-008
6.2442e-008
6.05294e-008
6.50988e-008
5.77818e-008
5.5812e-008
1.91737e-007
7.79726e-006
0.000480592
0.0145365
0.131322
0.534322
3.32133e-008
3.32246e-008
3.32316e-008
3.32394e-008
3.32517e-008
3.32632e-008
3.32732e-008
3.32782e-008
3.3284e-008
3.32956e-008
3.33082e-008
3.33203e-008
3.33287e-008
3.3337e-008
3.33467e-008
3.33563e-008
3.33677e-008
3.33815e-008
3.33975e-008
3.34129e-008
3.34228e-008
3.34316e-008
3.34431e-008
3.34563e-008
3.34698e-008
3.34843e-008
3.35007e-008
3.35134e-008
3.35245e-008
3.35349e-008
3.35453e-008
3.35585e-008
3.35731e-008
3.35873e-008
3.36009e-008
3.36142e-008
3.36273e-008
3.36405e-008
3.36536e-008
3.36666e-008
3.36794e-008
3.36919e-008
3.37042e-008
3.37167e-008
3.37294e-008
3.37423e-008
3.37551e-008
3.3768e-008
3.37804e-008
3.37929e-008
3.3805e-008
3.3817e-008
3.38288e-008
3.38405e-008
3.3852e-008
3.38634e-008
3.38744e-008
3.38856e-008
3.38963e-008
3.39072e-008
3.39178e-008
3.39283e-008
3.39389e-008
3.3949e-008
3.39593e-008
3.39692e-008
3.39791e-008
3.39886e-008
3.3998e-008
3.40073e-008
3.40161e-008
3.40253e-008
3.40343e-008
3.40429e-008
3.40509e-008
3.40587e-008
3.40673e-008
3.40749e-008
3.40829e-008
3.40906e-008
3.40978e-008
3.41054e-008
3.41117e-008
3.41176e-008
3.41242e-008
3.41305e-008
3.41365e-008
3.41417e-008
3.41472e-008