/*--------------------------------*- C++ -*----------------------------------*\
| =========                 |                                                 |
| \\      /  F ield         | OpenFOAM: The Open Source CFD Toolbox           |
|  \\    /   O peration     | Version:  5.x                                   |
|   \\  /    A nd           | Web:      www.OpenFOAM.org                      |
|    \\/     M anipulation  |                                                 |
\*---------------------------------------------------------------------------*/
/*   Windows 32 and 64 bit porting by blueCAPE: http://www.bluecape.com.pt   *\
|  Based on Windows porting (2.0.x v4) by Symscape: http://www.symscape.com   |
\*---------------------------------------------------------------------------*/
FoamFile
{
    version     2.0;
    format      ascii;
    class       volScalarField;
    location    "250";
    object      nut;
}
// * * * * * * * * * * * * * * * * * * * * * * * * * * * * * * * * * * * * * //

dimensions      [0 2 -1 0 0 0 0];

internalField   nonuniform List<scalar> 
43900
(
5.71597e-005
5.80009e-005
5.80694e-005
5.80642e-005
5.80594e-005
5.80585e-005
5.80588e-005
5.80589e-005
5.8059e-005
5.80596e-005
5.80596e-005
5.80596e-005
5.80597e-005
5.80597e-005
5.80598e-005
5.80599e-005
5.806e-005
5.806e-005
5.80601e-005
5.80601e-005
5.80601e-005
5.80602e-005
5.80602e-005
5.80602e-005
5.80603e-005
5.80602e-005
5.80603e-005
5.80603e-005
5.80603e-005
0.000590975
7.38326e-006
4.30774e-006
4.16071e-006
4.57992e-006
4.6059e-006
4.60888e-006
4.60376e-006
4.60385e-006
4.60501e-006
4.60536e-006
4.60543e-006
4.60554e-006
4.60568e-006
4.60582e-006
4.60625e-006
4.60636e-006
4.60645e-006
4.60672e-006
4.60671e-006
4.60686e-006
4.60706e-006
4.60701e-006
4.60717e-006
4.60728e-006
4.60721e-006
4.60738e-006
4.60744e-006
4.60737e-006
0.153332
0.0455518
0.00520813
0.000107953
1.30799e-006
6.44404e-007
6.0171e-007
7.14178e-007
7.25166e-007
7.23491e-007
7.22015e-007
7.22068e-007
7.22374e-007
7.22531e-007
7.22661e-007
7.22841e-007
7.22941e-007
7.23074e-007
7.23205e-007
7.23296e-007
7.23417e-007
7.23493e-007
7.23563e-007
7.23657e-007
7.23696e-007
7.23752e-007
7.23824e-007
7.23842e-007
7.23876e-007
0.475237
0.291108
0.133576
0.0384838
0.0046114
0.000177763
4.18771e-006
2.5539e-007
1.73818e-007
1.94577e-007
2.14052e-007
2.14773e-007
2.12148e-007
2.11829e-007
2.12398e-007
2.12465e-007
2.12401e-007
2.1248e-007
2.12563e-007
2.12609e-007
2.12646e-007
2.12689e-007
2.12731e-007
2.12764e-007
2.12796e-007
2.12827e-007
2.12854e-007
2.12882e-007
2.12901e-007
0.757912
0.582476
0.414816
0.249731
0.107273
0.0269053
0.00273047
0.000131333
3.07493e-006
2.09675e-007
9.00387e-008
8.74554e-008
1.03968e-007
1.05642e-007
1.02511e-007
1.02796e-007
1.0363e-007
1.0343e-007
1.03361e-007
1.03449e-007
1.0352e-007
1.03548e-007
1.03568e-007
1.03591e-007
1.0361e-007
1.03627e-007
1.03646e-007
1.03663e-007
1.03675e-007
0.966532
0.798408
0.642043
0.490237
0.338402
0.187488
0.0679165
0.0122582
0.000903789
4.39647e-005
1.26077e-006
1.37349e-007
6.33105e-008
6.25493e-008
7.41348e-008
7.20329e-008
6.9598e-008
7.08287e-008
7.11196e-008
7.07525e-008
7.06149e-008
7.06315e-008
7.0654e-008
7.06671e-008
7.06819e-008
7.06966e-008
7.07082e-008
7.07246e-008
7.07351e-008
1.12626
0.963803
0.815363
0.674675
0.536715
0.397485
0.253994
0.112322
0.0287601
0.00312962
0.000187112
9.50255e-006
3.46581e-007
7.69495e-008
4.83232e-008
5.55781e-008
6.0523e-008
5.66231e-008
5.66205e-008
5.78627e-008
5.80183e-008
5.79225e-008
5.79198e-008
5.79345e-008
5.79536e-008
5.7962e-008
5.79714e-008
5.79855e-008
5.79914e-008
1.24262
1.08473
0.942078
0.80909
0.681119
0.554364
0.426097
0.296097
0.160213
0.0519678
0.00791313
0.000575732
3.38673e-005
1.75952e-006
1.24697e-007
5.44113e-008
4.43026e-008
5.3387e-008
5.23127e-008
5.00701e-008
5.08194e-008
5.13096e-008
5.1284e-008
5.12622e-008
5.12657e-008
5.12784e-008
5.12854e-008
5.12958e-008
5.13066e-008
1.34025
1.18574
1.04706
0.919181
0.797888
0.679667
0.561689
0.441842
0.318281
0.190668
0.0706524
0.0131271
0.00112589
7.31463e-005
4.49776e-006
2.57958e-007
7.0934e-008
4.41151e-008
4.91114e-008
5.02328e-008
4.79401e-008
4.75604e-008
4.7964e-008
4.80931e-008
4.81046e-008
4.81153e-008
4.81302e-008
4.81445e-008
4.81474e-008
1.40116
1.25278
1.1198
0.998218
0.884086
0.774074
0.665407
0.555826
0.44355
0.327425
0.207682
0.082802
0.0171295
0.00164308
0.000115469
7.74741e-006
5.09367e-007
7.51909e-008
4.84683e-008
4.69963e-008
5.15549e-008
4.97548e-008
4.83842e-008
4.84316e-008
4.85229e-008
4.8547e-008
4.85518e-008
4.85493e-008
4.85521e-008
1.44514
1.29942
1.17113
1.05456
0.946283
0.843112
0.742336
0.641692
0.539362
0.434014
0.324942
0.21259
0.087499
0.0188689
0.00192761
0.000144869
1.04836e-005
7.52394e-007
8.5952e-008
4.95579e-008
4.48434e-008
4.99762e-008
5.06707e-008
4.97237e-008
4.93411e-008
4.93427e-008
4.93542e-008
4.93662e-008
4.93816e-008
1.48297
1.34025
1.21452
1.10127
0.996858
0.89841
0.803333
0.709413
0.614818
0.518113
0.418307
0.314954
0.208531
0.0857871
0.0184427
0.0019552
0.000157927
1.23968e-005
9.67955e-007
1.0538e-007
5.35457e-008
3.98108e-008
4.36158e-008
4.66699e-008
4.67846e-008
4.66255e-008
4.65678e-008
4.65764e-008
4.66037e-008
1.50978
1.37031
1.24732
1.13782
1.03709
0.942797
0.852514
0.764133
0.675869
0.586262
0.494204
0.398959
0.300227
0.198405
0.079647
0.0166596
0.00182756
0.000160364
1.37742e-005
1.18758e-006
1.32471e-007
5.26539e-008
3.93825e-008
3.85851e-008
4.01114e-008
4.06933e-008
4.07741e-008
4.08119e-008
4.08411e-008
1.52776
1.39243
1.27245
1.16526
1.0688
0.978335
0.892333
0.80878
0.725954
0.642414
0.557006
0.468873
0.377459
0.282534
0.184338
0.0709377
0.0142546
0.00162038
0.00015464
1.44658e-005
1.36151e-006
1.54778e-007
5.01559e-008
4.04962e-008
3.60782e-008
3.61293e-008
3.64839e-008
3.65683e-008
3.65994e-008
1.53849
1.40673
1.29106
1.18682
1.09248
1.00643
0.924376
0.84518
0.76718
0.688972
0.609398
0.527549
0.44276
0.354601
0.262865
0.167587
0.0609286
0.0116894
0.00137869
0.000142301
1.44602e-005
1.48081e-006
1.74275e-007
5.14694e-008
4.21172e-008
3.81417e-008
3.71532e-008
3.70745e-008
3.70834e-008
1.54309
1.41499
1.30269
1.20283
1.11134
1.02758
0.949914
0.874708
0.801072
0.727643
0.653281
0.577063
0.498273
0.416395
0.331081
0.242097
0.149141
0.0506132
0.0092774
0.00114141
0.00012729
1.39542e-005
1.53277e-006
1.90212e-007
5.58073e-008
4.39462e-008
4.22945e-008
4.15146e-008
4.13197e-008
1.54234
1.41798
1.30913
1.21254
1.12546
1.04429
0.969203
0.898282
0.828623
0.75951
0.689831
0.618669
0.545291
0.469138
0.389799
0.306974
0.220357
0.129216
0.0404602
0.00711624
0.000913261
0.000108577
1.26917e-005
1.48715e-006
1.98893e-007
5.98301e-008
4.642e-008
4.56375e-008
4.53304e-008
1.53686
1.41635
1.31101
1.2177
1.13381
1.05708
0.984256
0.916226
0.85067
0.78548
0.720021
0.653402
0.584896
0.513925
0.44005
0.362935
0.282294
0.197705
0.107701
0.0307149
0.00520146
0.000694982
8.77751e-005
1.09066e-005
1.36309e-006
1.98089e-007
6.33852e-008
4.86862e-008
4.76013e-008
1.52726
1.4107
1.30893
1.21894
1.13821
1.06457
0.996147
0.930049
0.867667
0.806323
0.744759
0.682282
0.618182
0.551892
0.48297
0.411074
0.335934
0.257272
0.174541
0.0844878
0.0216466
0.00357468
0.000501447
6.74073e-005
8.9081e-006
1.18449e-006
1.87608e-007
6.54933e-008
5.10933e-008
1.51413
1.40162
1.30348
1.21682
1.13923
1.06863
1.00324
0.941388
0.880843
0.822928
0.764745
0.705966
0.645863
0.583843
0.519442
0.452304
0.382154
0.308759
0.23182
0.150689
0.0598544
0.0139858
0.00232675
0.000344982
4.93429e-005
6.93779e-006
9.87838e-007
1.73317e-007
6.73292e-008
1.49805
1.38966
1.29521
1.21191
1.13743
1.0698
1.00731
0.948467
0.891676
0.835652
0.781206
0.725689
0.669043
0.610728
0.550295
0.487384
0.421707
0.353028
0.281113
0.205595
0.125985
0.0430224
0.00922288
0.00154462
0.000239088
3.59402e-005
5.34521e-006
8.20269e-007
1.61522e-007
1.47955
1.37536
1.28465
1.20472
1.13335
1.06863
1.00893
0.952811
0.899067
0.846112
0.79387
0.741625
0.68825
0.633366
0.576548
0.51745
0.455791
0.391343
0.323899
0.253219
0.178982
0.0979774
0.0294359
0.00598149
0.00102648
0.00016674
2.63727e-005
4.13503e-006
6.72672e-007
1.45912
1.35919
1.27227
1.19574
1.12746
1.06561
1.00861
0.955106
0.903939
0.854116
0.804011
0.754655
0.704194
0.652422
0.598901
0.543282
0.485283
0.424678
0.361274
0.294877
0.225203
0.151217
0.0703776
0.0189104
0.00376191
0.000669547
0.00011445
1.91327e-005
3.13332e-006
1.43718
1.34158
1.25847
1.18536
1.12018
1.06117
1.00683
0.95587
0.907176
0.859784
0.812829
0.765495
0.717752
0.668809
0.61826
0.565773
0.511078
0.453953
0.394212
0.331677
0.266133
0.197122
0.122525
0.0463935
0.0116107
0.00234224
0.000436676
7.87431e-005
1.36845e-005
1.41407
1.32284
1.24359
1.17392
1.11183
1.05565
1.00393
0.955438
0.909137
0.864137
0.819705
0.774787
0.729747
0.683287
0.635376
0.585695
0.533979
0.480006
0.423587
0.364555
0.302731
0.237826
0.168992
0.094434
0.030907
0.00734529
0.00150687
0.000292176
5.4111e-005
1.39007
1.30324
1.22788
1.16166
1.10267
1.0493
1.00017
0.954106
0.91011
0.867336
0.825061
0.782637
0.739633
0.695728
0.650424
0.603435
0.554518
0.503466
0.450101
0.394264
0.335797
0.274489
0.209952
0.140713
0.0675744
0.020008
0.00466333
0.000983866
0.000195116
1.36539
1.28299
1.21153
1.14878
1.09289
1.04233
0.995783
0.952121
0.910408
0.869854
0.8298
0.789708
0.748795
0.707113
0.664157
0.619635
0.573303
0.524955
0.474416
0.42153
0.36615
0.308102
0.247104
0.182527
0.112085
0.0453974
0.0126437
0.00297548
0.000638894
1.34017
1.26221
1.19467
1.13539
1.08261
1.03487
0.990887
0.949615
0.910156
0.871764
0.83381
0.795762
0.757143
0.717619
0.676896
0.634697
0.590787
0.544966
0.497064
0.446928
0.394421
0.339393
0.281631
0.220731
0.155401
0.0847635
0.0297146
0.00808668
0.00190802
1.31451
1.24099
1.17738
1.12157
1.07191
1.02697
0.985564
0.946676
0.90946
0.873209
0.837327
0.801306
0.764702
0.727526
0.688933
0.64894
0.607325
0.563894
0.518476
0.470923
0.421099
0.368875
0.314087
0.256457
0.195319
0.128853
0.0612612
0.0197888
0.00520271
1.28846
1.21938
1.15968
1.10735
1.06079
1.01867
0.97984
0.943339
0.908368
0.87426
0.84046
0.806504
0.772017
0.736718
0.70033
0.662545
0.623175
0.582049
0.539009
0.493913
0.446629
0.397033
0.344991
0.290308
0.232621
0.170929
0.103419
0.0425187
0.012913
1.26203
1.19737
1.14157
1.0927
1.04926
1.00995
0.973701
0.939597
0.906886
0.874942
0.843252
0.811395
0.779041
0.745679
0.711356
0.675708
0.638532
0.599656
0.558928
0.516208
0.471367
0.424283
0.37483
0.322855
0.268131
0.210199
0.147326
0.0807286
0.0293645
1.2352
1.17492
1.123
1.07759
1.03724
1.00075
0.967088
0.935395
0.904962
0.875201
0.845629
0.815846
0.785511
0.754317
0.722061
0.688523
0.653511
0.616853
0.578397
0.538004
0.495547
0.450902
0.403947
0.354545
0.302527
0.247619
0.189077
0.125269
0.05994
1.20791
1.15198
1.10391
1.06192
1.02466
0.990982
0.959912
0.930643
0.902508
0.874954
0.847529
0.819853
0.791609
0.762528
0.732401
0.700978
0.668136
0.633695
0.5975
0.559414
0.519308
0.47706
0.43255
0.385647
0.336208
0.284036
0.228746
0.169695
0.10259
1.18008
1.12844
1.08418
1.04559
1.0114
0.980524
0.952049
0.925217
0.8994
0.87408
0.848828
0.823279
0.797116
0.770033
0.742357
0.713098
0.682434
0.650211
0.616276
0.580492
0.542725
0.502853
0.460755
0.416306
0.369374
0.319801
0.267335
0.211801
0.150064
1.15162
1.10421
1.0637
1.02847
0.99732
0.96923
0.943349
0.918965
0.89549
0.872438
0.849407
0.826062
0.802121
0.777365
0.751574
0.724631
0.696265
0.666337
0.634713
0.60126
0.565849
0.528354
0.488656
0.446632
0.402157
0.35509
0.305287
0.252463
0.196245
1.1224
1.07914
1.04233
1.01041
0.982259
0.956935
0.93364
0.91171
0.890597
0.869848
0.849089
0.828011
0.806363
0.783956
0.760261
0.735589
0.709552
0.681986
0.652743
0.621685
0.58868
0.553601
0.516323
0.476724
0.434681
0.390063
0.342772
0.292533
0.239765
1.09232
1.05312
1.01992
0.991244
0.966048
0.943456
0.922729
0.90325
0.88451
0.866088
0.847634
0.82885
0.80948
0.789275
0.767918
0.745867
0.722201
0.697054
0.670265
0.641683
0.611165
0.578573
0.543775
0.506642
0.467047
0.42486
0.379986
0.332265
0.281818
1.06126
1.02601
0.996334
0.970818
0.94851
0.928601
0.910409
0.893365
0.876998
0.860919
0.844799
0.828358
0.811351
0.793549
0.774739
0.755051
0.733921
0.711325
0.687109
0.66112
0.633204
0.603211
0.570994
0.536413
0.499328
0.459605
0.417133
0.371819
0.323547
1.02913
0.997703
0.971434
0.948981
0.929477
0.912183
0.896474
0.88183
0.867819
0.854081
0.840313
0.826256
0.811683
0.796404
0.780292
0.76264
0.744268
0.72442
0.70296
0.679737
0.654593
0.627363
0.597886
0.566
0.531549
0.494383
0.454369
0.411419
0.365384
0.995871
0.968117
0.945118
0.925607
0.908802
0.894032
0.880733
0.86843
0.856733
0.845312
0.833889
0.822222
0.810097
0.797315
0.78366
0.768676
0.753365
0.736214
0.717586
0.697272
0.675078
0.650812
0.624283
0.5953
0.563677
0.529234
0.49181
0.451283
0.407535
0.961458
0.937208
0.91732
0.900607
0.886371
0.874013
0.863023
0.852979
0.843527
0.83437
0.825254
0.81596
0.806288
0.796053
0.785084
0.773249
0.759975
0.745953
0.73043
0.71326
0.694256
0.673209
0.6499
0.624101
0.595585
0.564128
0.529523
0.491593
0.450219
0.925924
0.904983
0.888026
0.873947
0.86213
0.852046
0.843244
0.835348
0.828043
0.821066
0.814189
0.807212
0.799955
0.792252
0.783943
0.774884
0.764263
0.753609
0.741162
0.727263
0.711658
0.694099
0.674323
0.652058
0.62702
0.598922
0.567486
0.532464
0.493676
0.889362
0.871516
0.857292
0.845664
0.836101
0.828138
0.821382
0.815502
0.810222
0.80531
0.800564
0.795808
0.790883
0.78564
0.779936
0.773628
0.766561
0.757911
0.748983
0.738618
0.726659
0.712871
0.69697
0.678638
0.65753
0.633278
0.605508
0.573865
0.538059
0.851946
0.836964
0.825261
0.815895
0.808412
0.802411
0.79755
0.793541
0.790143
0.787153
0.784396
0.781721
0.77899
0.776077
0.772858
0.76921
0.764998
0.759641
0.753865
0.746894
0.738649
0.728823
0.71709
0.703085
0.686394
0.666559
0.643083
0.615466
0.583257
0.813946
0.801586
0.792193
0.784904
0.779335
0.775143
0.772027
0.769738
0.768063
0.766824
0.765873
0.765082
0.764341
0.76355
0.762613
0.761433
0.759908
0.757952
0.754626
0.751194
0.746774
0.741044
0.733695
0.724339
0.712526
0.697702
0.679222
0.656413
0.628609
0.775746
0.765768
0.758489
0.753112
0.749317
0.746799
0.745292
0.744566
0.744431
0.744728
0.745333
0.746148
0.747094
0.748106
0.749122
0.750085
0.750914
0.751559
0.751783
0.750979
0.750124
0.748412
0.74549
0.74094
0.734367
0.725098
0.712271
0.69509
0.672628
0.737876
0.730053
0.724718
0.721129
0.719001
0.71805
0.718015
0.718671
0.719831
0.721353
0.723142
0.725136
0.727305
0.729634
0.732095
0.73471
0.737366
0.740245
0.742941
0.745439
0.747201
0.749333
0.750701
0.750841
0.749795
0.746493
0.739655
0.728937
0.712831
0.701023
0.695152
0.691637
0.689754
0.689222
0.689734
0.690999
0.692761
0.694824
0.697065
0.699433
0.701928
0.704601
0.707516
0.710645
0.714262
0.717834
0.722531
0.727158
0.73204
0.737094
0.741647
0.746947
0.751751
0.755821
0.758316
0.75785
0.754639
0.745827
0.666033
0.661946
0.660168
0.659945
0.660939
0.662756
0.665013
0.667392
0.669675
0.671774
0.673744
0.675672
0.677768
0.680251
0.682861
0.686581
0.690728
0.695741
0.701333
0.707598
0.715163
0.723064
0.730883
0.739733
0.748578
0.756785
0.763239
0.76697
0.765949
0.633875
0.631431
0.63133
0.632713
0.63509
0.637882
0.640549
0.642674
0.644024
0.644609
0.644715
0.644512
0.644528
0.645075
0.646253
0.648567
0.65192
0.656483
0.662657
0.670189
0.678759
0.688617
0.699174
0.710381
0.723261
0.736653
0.749632
0.761097
0.769216
0.605539
0.604604
0.606096
0.608941
0.61237
0.615497
0.617553
0.618051
0.616758
0.613901
0.610251
0.605913
0.60208
0.59943
0.598199
0.59854
0.600477
0.604076
0.609203
0.615981
0.624254
0.63415
0.646099
0.659506
0.674493
0.692016
0.710637
0.729849
0.748139
0.581872
0.582283
0.585186
0.589161
0.593016
0.595426
0.595382
0.592469
0.586424
0.57808
0.569032
0.559724
0.551113
0.543794
0.538237
0.534769
0.533458
0.534286
0.537106
0.541881
0.548554
0.557152
0.568071
0.581491
0.597888
0.617151
0.639493
0.665231
0.692639
0.563365
0.564888
0.568861
0.573381
0.576738
0.577071
0.573425
0.565021
0.553133
0.53848
0.522216
0.505819
0.490563
0.477235
0.466298
0.457986
0.452314
0.449178
0.448394
0.449812
0.453352
0.458963
0.467031
0.477552
0.491802
0.509129
0.531225
0.559028
0.592939
0.549975
0.552292
0.556835
0.561114
0.563003
0.560039
0.551413
0.537234
0.517845
0.495126
0.471018
0.447287
0.425298
0.405858
0.389363
0.375906
0.365402
0.357656
0.352393
0.349375
0.348442
0.349431
0.352719
0.357853
0.366844
0.377935
0.396281
0.418494
0.454098
0.541096
0.543842
0.548373
0.551871
0.551271
0.5445
0.530548
0.509562
0.483409
0.454282
0.424281
0.39512
0.368093
0.34398
0.323088
0.30531
0.290507
0.278451
0.268793
0.261274
0.255622
0.251677
0.249511
0.248785
0.25087
0.253932
0.263965
0.273004
0.304777
0.535741
0.538569
0.542805
0.544918
0.541806
0.531145
0.512442
0.486876
0.456465
0.423596
0.39042
0.3586
0.329227
0.302909
0.279873
0.260134
0.243343
0.229306
0.217611
0.208065
0.200275
0.194298
0.189463
0.186706
0.18413
0.184533
0.185358
0.188057
0.200025
0.532864
0.535609
0.539383
0.540235
0.534955
0.521667
0.500319
0.472353
0.44012
0.406078
0.372316
0.340358
0.311154
0.285193
0.262626
0.243396
0.22733
0.214145
0.203456
0.19518
0.188869
0.184866
0.181832
0.182277
0.180786
0.18693
0.185837
0.199623
0.188155
0.531628
0.534291
0.537796
0.537935
0.531708
0.517426
0.495303
0.467009
0.434956
0.401562
0.36882
0.338146
0.310411
0.286051
0.265201
0.247808
0.233702
0.222692
0.214595
0.209286
0.206326
0.206213
0.207422
0.213063
0.216551
0.231462
0.233384
0.26819
0.247208
0.531539
0.534275
0.538022
0.538387
0.532519
0.51879
0.497472
0.470247
0.439486
0.407551
0.376382
0.347362
0.32135
0.298791
0.279839
0.264466
0.25253
0.243886
0.238347
0.235845
0.236046
0.239527
0.244816
0.255231
0.264326
0.286576
0.29679
0.342694
0.329931
5.80604e-005
5.80604e-005
5.80602e-005
5.80603e-005
5.80605e-005
5.80606e-005
5.80604e-005
5.80602e-005
5.80603e-005
5.80605e-005
5.80607e-005
5.80605e-005
5.80602e-005
5.80601e-005
5.80603e-005
5.80607e-005
5.8061e-005
5.80611e-005
5.80611e-005
5.80612e-005
5.80612e-005
5.80612e-005
5.80612e-005
5.80612e-005
5.80611e-005
5.8061e-005
5.80609e-005
5.80608e-005
5.80608e-005
5.80608e-005
5.80609e-005
5.80609e-005
5.80609e-005
5.8061e-005
5.8061e-005
5.8061e-005
5.8061e-005
5.80611e-005
5.80611e-005
5.80611e-005
5.80611e-005
5.80611e-005
5.80611e-005
5.80611e-005
5.80611e-005
5.80611e-005
5.80611e-005
5.80611e-005
5.80612e-005
5.80612e-005
5.80612e-005
5.80612e-005
5.80612e-005
5.80612e-005
5.80612e-005
5.80612e-005
5.80613e-005
5.80613e-005
5.80613e-005
5.80613e-005
5.80613e-005
5.80613e-005
5.80613e-005
5.80613e-005
5.80614e-005
5.80614e-005
5.80614e-005
5.80614e-005
5.80614e-005
5.80614e-005
5.80614e-005
5.80615e-005
5.80615e-005
5.80615e-005
5.80615e-005
5.80615e-005
5.80615e-005
5.80615e-005
5.80616e-005
5.80616e-005
5.80616e-005
5.80616e-005
5.80616e-005
5.80617e-005
5.80617e-005
5.80617e-005
5.80617e-005
5.80617e-005
5.80617e-005
5.80617e-005
5.80617e-005
5.80617e-005
5.80617e-005
5.80617e-005
5.80617e-005
5.80617e-005
5.80617e-005
5.80617e-005
5.80617e-005
5.80617e-005
5.80617e-005
5.80617e-005
5.80617e-005
5.80617e-005
5.80617e-005
5.80617e-005
5.80617e-005
5.80617e-005
5.80617e-005
5.80617e-005
5.80617e-005
5.80617e-005
5.80616e-005
5.80616e-005
5.80616e-005
5.80616e-005
5.80615e-005
5.80615e-005
5.80615e-005
5.80615e-005
5.80615e-005
5.80615e-005
5.80616e-005
5.80616e-005
5.80616e-005
5.80617e-005
5.80617e-005
5.80617e-005
5.80618e-005
5.80618e-005
5.80619e-005
5.8062e-005
5.8062e-005
5.80623e-005
5.80622e-005
5.80626e-005
5.80624e-005
5.80632e-005
5.93317e-005
4.60756e-006
4.60754e-006
4.60732e-006
4.60747e-006
4.60793e-006
4.60797e-006
4.60754e-006
4.60728e-006
4.60748e-006
4.60802e-006
4.60818e-006
4.60781e-006
4.60726e-006
4.60722e-006
4.6077e-006
4.60844e-006
4.60892e-006
4.60915e-006
4.60927e-006
4.60936e-006
4.60943e-006
4.60947e-006
4.60946e-006
4.60939e-006
4.60924e-006
4.60901e-006
4.60877e-006
4.60865e-006
4.60863e-006
4.60871e-006
4.60883e-006
4.60892e-006
4.609e-006
4.60907e-006
4.60913e-006
4.60918e-006
4.60923e-006
4.60928e-006
4.60932e-006
4.60935e-006
4.60936e-006
4.60937e-006
4.60938e-006
4.60941e-006
4.60946e-006
4.60951e-006
4.60955e-006
4.6096e-006
4.60964e-006
4.60969e-006
4.60972e-006
4.60976e-006
4.60979e-006
4.60983e-006
4.60986e-006
4.60989e-006
4.60991e-006
4.60995e-006
4.60997e-006
4.61001e-006
4.61005e-006
4.61009e-006
4.61013e-006
4.61017e-006
4.61021e-006
4.61025e-006
4.61029e-006
4.61032e-006
4.61037e-006
4.6104e-006
4.61044e-006
4.61049e-006
4.61049e-006
4.61059e-006
4.61057e-006
4.61064e-006
4.61067e-006
4.6107e-006
4.61076e-006
4.61077e-006
4.61083e-006
4.61085e-006
4.61092e-006
4.61096e-006
4.61099e-006
4.61102e-006
4.61104e-006
4.61108e-006
4.61109e-006
4.61112e-006
4.61112e-006
4.61113e-006
4.61115e-006
4.61116e-006
4.61116e-006
4.61117e-006
4.61117e-006
4.61118e-006
4.61118e-006
4.61118e-006
4.61118e-006
4.61118e-006
4.61117e-006
4.61116e-006
4.61116e-006
4.61114e-006
4.61113e-006
4.61111e-006
4.61109e-006
4.61106e-006
4.61104e-006
4.611e-006
4.61095e-006
4.61089e-006
4.61084e-006
4.61078e-006
4.61071e-006
4.61063e-006
4.61061e-006
4.61061e-006
4.61062e-006
4.61065e-006
4.61069e-006
4.61076e-006
4.61081e-006
4.61087e-006
4.61091e-006
4.611e-006
4.61105e-006
4.61118e-006
4.61131e-006
4.6115e-006
4.61157e-006
4.61231e-006
4.61189e-006
4.61265e-006
4.61707e-006
4.6165e-006
4.58355e-006
7.2393e-007
7.23948e-007
7.23997e-007
7.24078e-007
7.24105e-007
7.24068e-007
7.24054e-007
7.24134e-007
7.24231e-007
7.24266e-007
7.24213e-007
7.24158e-007
7.24206e-007
7.24307e-007
7.24433e-007
7.24474e-007
7.24486e-007
7.24515e-007
7.24553e-007
7.24587e-007
7.24616e-007
7.24635e-007
7.2464e-007
7.24632e-007
7.24621e-007
7.24625e-007
7.24656e-007
7.24693e-007
7.24726e-007
7.24752e-007
7.24779e-007
7.24805e-007
7.24834e-007
7.24864e-007
7.24893e-007
7.24925e-007
7.24958e-007
7.24991e-007
7.25024e-007
7.25056e-007
7.2509e-007
7.25125e-007
7.2516e-007
7.25192e-007
7.25223e-007
7.25253e-007
7.25282e-007
7.2531e-007
7.25339e-007
7.25368e-007
7.25398e-007
7.25426e-007
7.25456e-007
7.25485e-007
7.25513e-007
7.25541e-007
7.2557e-007
7.25597e-007
7.25625e-007
7.25652e-007
7.25679e-007
7.25706e-007
7.25732e-007
7.2576e-007
7.25786e-007
7.25813e-007
7.25838e-007
7.25865e-007
7.25889e-007
7.25916e-007
7.2594e-007
7.25964e-007
7.25994e-007
7.26009e-007
7.26039e-007
7.26059e-007
7.26081e-007
7.26104e-007
7.26123e-007
7.26148e-007
7.26165e-007
7.26189e-007
7.26202e-007
7.2622e-007
7.26238e-007
7.26255e-007
7.26274e-007
7.2629e-007
7.26306e-007
7.26315e-007
7.26324e-007
7.26332e-007
7.26339e-007
7.26345e-007
7.2635e-007
7.26354e-007
7.26359e-007
7.26361e-007
7.26363e-007
7.26364e-007
7.26363e-007
7.26361e-007
7.26357e-007
7.26353e-007
7.26347e-007
7.26339e-007
7.26329e-007
7.26318e-007
7.26304e-007
7.26289e-007
7.26272e-007
7.26254e-007
7.26229e-007
7.26203e-007
7.26175e-007
7.26147e-007
7.26113e-007
7.2608e-007
7.26058e-007
7.26039e-007
7.26023e-007
7.26005e-007
7.25985e-007
7.2597e-007
7.25944e-007
7.25922e-007
7.25904e-007
7.25854e-007
7.25859e-007
7.25881e-007
7.25818e-007
7.25954e-007
7.25872e-007
7.25852e-007
7.26295e-007
7.29117e-007
6.24983e-007
6.54095e-007
1.77324e-005
2.12927e-007
2.12961e-007
2.12985e-007
2.13005e-007
2.1303e-007
2.13066e-007
2.13093e-007
2.13103e-007
2.13114e-007
2.1313e-007
2.13164e-007
2.1319e-007
2.13209e-007
2.13213e-007
2.13235e-007
2.13264e-007
2.13301e-007
2.13326e-007
2.13344e-007
2.13359e-007
2.1337e-007
2.13378e-007
2.13388e-007
2.13403e-007
2.13425e-007
2.13452e-007
2.13468e-007
2.13484e-007
2.13504e-007
2.13526e-007
2.13551e-007
2.13573e-007
2.13596e-007
2.13618e-007
2.13639e-007
2.13661e-007
2.13682e-007
2.13703e-007
2.13724e-007
2.13745e-007
2.13765e-007
2.13785e-007
2.13805e-007
2.13825e-007
2.13847e-007
2.13869e-007
2.13891e-007
2.13913e-007
2.13935e-007
2.13957e-007
2.13978e-007
2.13999e-007
2.1402e-007
2.14041e-007
2.14062e-007
2.14083e-007
2.14103e-007
2.14123e-007
2.14143e-007
2.14163e-007
2.14182e-007
2.14201e-007
2.1422e-007
2.14237e-007
2.14256e-007
2.14273e-007
2.14291e-007
2.14308e-007
2.14325e-007
2.14341e-007
2.14358e-007
2.14374e-007
2.14387e-007
2.14407e-007
2.14418e-007
2.14434e-007
2.14448e-007
2.14461e-007
2.14476e-007
2.14487e-007
2.14502e-007
2.14513e-007
2.14529e-007
2.14541e-007
2.14553e-007
2.14565e-007
2.14575e-007
2.14587e-007
2.14596e-007
2.14607e-007
2.14615e-007
2.14623e-007
2.1463e-007
2.14636e-007
2.14641e-007
2.14645e-007
2.14648e-007
2.14651e-007
2.14652e-007
2.14653e-007
2.14653e-007
2.14651e-007
2.14649e-007
2.14646e-007
2.14642e-007
2.14636e-007
2.1463e-007
2.14622e-007
2.14613e-007
2.14603e-007
2.14592e-007
2.1458e-007
2.14568e-007
2.14552e-007
2.14535e-007
2.14516e-007
2.14497e-007
2.14476e-007
2.14458e-007
2.14439e-007
2.1442e-007
2.14399e-007
2.14376e-007
2.14352e-007
2.14325e-007
2.14296e-007
2.14275e-007
2.14244e-007
2.14229e-007
2.14138e-007
2.14473e-007
2.136e-007
2.14006e-007
2.18774e-007
2.11249e-007
1.82493e-007
1.92579e-006
0.000300059
0.0137498
1.03696e-007
1.03715e-007
1.03733e-007
1.03759e-007
1.03781e-007
1.03787e-007
1.03797e-007
1.03812e-007
1.03844e-007
1.0387e-007
1.03879e-007
1.03881e-007
1.03891e-007
1.03918e-007
1.03947e-007
1.03977e-007
1.03996e-007
1.04013e-007
1.04027e-007
1.04038e-007
1.0405e-007
1.04067e-007
1.04089e-007
1.0411e-007
1.0413e-007
1.04145e-007
1.0416e-007
1.04177e-007
1.04195e-007
1.04211e-007
1.04229e-007
1.04248e-007
1.04266e-007
1.04284e-007
1.04302e-007
1.04319e-007
1.04337e-007
1.04355e-007
1.04372e-007
1.0439e-007
1.04408e-007
1.04427e-007
1.04446e-007
1.04464e-007
1.04482e-007
1.04499e-007
1.04517e-007
1.04534e-007
1.04551e-007
1.04568e-007
1.04585e-007
1.04602e-007
1.04619e-007
1.04636e-007
1.04652e-007
1.04668e-007
1.04685e-007
1.047e-007
1.04716e-007
1.04731e-007
1.04747e-007
1.04762e-007
1.04776e-007
1.04791e-007
1.04805e-007
1.04819e-007
1.04833e-007
1.04847e-007
1.0486e-007
1.04874e-007
1.04887e-007
1.049e-007
1.04915e-007
1.04925e-007
1.04938e-007
1.0495e-007
1.04961e-007
1.04973e-007
1.04983e-007
1.04995e-007
1.05004e-007
1.05016e-007
1.05024e-007
1.05033e-007
1.05042e-007
1.0505e-007
1.05058e-007
1.05065e-007
1.05073e-007
1.05081e-007
1.05089e-007
1.05096e-007
1.05103e-007
1.05109e-007
1.05114e-007
1.05119e-007
1.05123e-007
1.05126e-007
1.05129e-007
1.05131e-007
1.05132e-007
1.05133e-007
1.05132e-007
1.05131e-007
1.05129e-007
1.05126e-007
1.05122e-007
1.05118e-007
1.05112e-007
1.05106e-007
1.05098e-007
1.05089e-007
1.0508e-007
1.0507e-007
1.05058e-007
1.05045e-007
1.05031e-007
1.05017e-007
1.05003e-007
1.04989e-007
1.04972e-007
1.04955e-007
1.04932e-007
1.04914e-007
1.04885e-007
1.04863e-007
1.04834e-007
1.04816e-007
1.0451e-007
1.05371e-007
1.03074e-007
1.0744e-007
1.0655e-007
7.9858e-008
1.18714e-007
3.48289e-006
0.000413554
0.0151841
0.111364
7.07466e-008
7.0767e-008
7.07857e-008
7.07954e-008
7.08045e-008
7.08185e-008
7.08444e-008
7.08656e-008
7.08757e-008
7.08783e-008
7.08868e-008
7.09118e-008
7.09344e-008
7.09512e-008
7.09635e-008
7.09786e-008
7.09926e-008
7.10014e-008
7.10085e-008
7.10234e-008
7.10442e-008
7.1066e-008
7.1081e-008
7.10966e-008
7.11116e-008
7.11254e-008
7.11436e-008
7.11622e-008
7.1181e-008
7.1202e-008
7.12209e-008
7.12359e-008
7.12527e-008
7.12705e-008
7.12881e-008
7.13053e-008
7.13221e-008
7.13386e-008
7.13552e-008
7.13718e-008
7.13885e-008
7.14049e-008
7.14206e-008
7.14363e-008
7.14524e-008
7.14688e-008
7.14851e-008
7.15013e-008
7.15172e-008
7.15329e-008
7.15483e-008
7.15637e-008
7.15789e-008
7.15939e-008
7.16087e-008
7.16235e-008
7.16378e-008
7.16522e-008
7.16663e-008
7.16803e-008
7.16941e-008
7.17077e-008
7.17214e-008
7.17344e-008
7.17478e-008
7.17605e-008
7.17735e-008
7.17856e-008
7.17986e-008
7.18098e-008
7.18222e-008
7.1834e-008
7.18444e-008
7.18562e-008
7.18665e-008
7.18769e-008
7.18872e-008
7.18964e-008
7.19068e-008
7.1915e-008
7.19243e-008
7.1932e-008
7.19414e-008
7.19498e-008
7.19573e-008
7.19651e-008
7.19723e-008
7.19791e-008
7.19853e-008
7.1993e-008
7.19999e-008
7.20066e-008
7.20132e-008
7.20193e-008
7.20248e-008
7.20301e-008
7.20343e-008
7.20389e-008
7.20423e-008
7.20455e-008
7.2048e-008
7.20498e-008
7.2051e-008
7.20515e-008
7.20516e-008
7.20505e-008
7.20492e-008
7.20467e-008
7.20436e-008
7.20394e-008
7.20339e-008
7.20271e-008
7.20199e-008
7.20116e-008
7.20021e-008
7.19912e-008
7.19803e-008
7.19691e-008
7.19573e-008
7.19447e-008
7.19302e-008
7.19144e-008
7.18933e-008
7.18763e-008
7.18499e-008
7.18309e-008
7.1798e-008
7.1694e-008
7.30035e-008
6.97173e-008
7.76887e-008
6.49098e-008
6.59118e-008
3.20272e-007
1.96888e-005
0.00105384
0.0234393
0.140053
0.372759
5.80056e-008
5.80216e-008
5.80318e-008
5.80452e-008
5.80649e-008
5.80813e-008
5.80919e-008
5.80976e-008
5.81069e-008
5.81283e-008
5.81466e-008
5.81608e-008
5.81716e-008
5.81828e-008
5.81971e-008
5.82086e-008
5.82242e-008
5.82473e-008
5.82745e-008
5.82951e-008
5.83055e-008
5.83145e-008
5.8333e-008
5.83528e-008
5.83734e-008
5.83969e-008
5.84195e-008
5.84358e-008
5.84504e-008
5.84629e-008
5.84767e-008
5.84976e-008
5.85191e-008
5.85393e-008
5.85586e-008
5.85774e-008
5.85962e-008
5.8615e-008
5.86337e-008
5.86522e-008
5.86704e-008
5.86882e-008
5.8706e-008
5.8724e-008
5.87421e-008
5.87602e-008
5.87782e-008
5.87965e-008
5.88141e-008
5.88317e-008
5.88489e-008
5.8866e-008
5.88827e-008
5.88991e-008
5.89154e-008
5.89314e-008
5.8947e-008
5.89627e-008
5.89778e-008
5.89929e-008
5.9008e-008
5.90228e-008
5.90377e-008
5.90523e-008
5.90668e-008
5.90809e-008
5.90948e-008
5.91087e-008
5.91215e-008
5.91353e-008
5.91473e-008
5.91602e-008
5.91734e-008
5.91853e-008
5.91969e-008
5.92083e-008
5.92202e-008
5.92314e-008
5.92424e-008
5.92534e-008
5.92639e-008
5.92749e-008
5.92836e-008
5.9292e-008
5.93013e-008
5.93097e-008
5.93174e-008
5.93245e-008
5.93323e-008
5.93389e-008
5.93462e-008
5.93537e-008
5.93609e-008
5.93679e-008
5.93745e-008
5.93808e-008
5.93867e-008
5.93922e-008
5.93972e-008
5.94018e-008
5.9406e-008
5.94096e-008
5.94126e-008
5.94149e-008
5.94166e-008
5.94179e-008
5.94178e-008
5.94174e-008
5.94162e-008
5.9414e-008
5.94105e-008
5.94056e-008
5.93992e-008
5.93919e-008
5.93832e-008
5.93734e-008
5.9363e-008
5.93526e-008
5.93419e-008
5.93302e-008
5.93178e-008
5.93034e-008
5.92863e-008
5.92703e-008
5.9249e-008
5.92228e-008
5.92058e-008
5.96261e-008
5.58597e-008