/*--------------------------------*- C++ -*----------------------------------*\
| =========                 |                                                 |
| \\      /  F ield         | OpenFOAM: The Open Source CFD Toolbox           |
|  \\    /   O peration     | Version:  5.x                                   |
|   \\  /    A nd           | Web:      www.OpenFOAM.org                      |
|    \\/     M anipulation  |                                                 |
\*---------------------------------------------------------------------------*/
/*   Windows 32 and 64 bit porting by blueCAPE: http://www.bluecape.com.pt   *\
|  Based on Windows porting (2.0.x v4) by Symscape: http://www.symscape.com   |
\*---------------------------------------------------------------------------*/
FoamFile
{
    version     2.0;
    format      ascii;
    class       volScalarField;
    location    "250";
    object      p;
}
// * * * * * * * * * * * * * * * * * * * * * * * * * * * * * * * * * * * * * //

dimensions      [0 2 -2 0 0 0 0];

internalField   nonuniform List<scalar> 
43900
(
0.352794
0.352445
0.352403
0.352276
0.352073
0.351846
0.351647
0.351314
0.351073
0.350747
0.350425
0.350096
0.349749
0.34939
0.349021
0.348642
0.348253
0.347856
0.347451
0.347037
0.346617
0.34619
0.345756
0.345316
0.344871
0.344421
0.343966
0.343506
0.343041
0.350783
0.358862
0.352724
0.356014
0.353503
0.354259
0.35334
0.353168
0.352716
0.352287
0.351886
0.351451
0.351019
0.350591
0.35016
0.349726
0.349289
0.348849
0.348406
0.347959
0.347508
0.347054
0.346597
0.346135
0.345669
0.345201
0.344728
0.344251
0.343771
0.343968
0.365731
0.354647
0.360897
0.355808
0.358389
0.356005
0.356342
0.355253
0.354843
0.354254
0.353692
0.353156
0.352625
0.3521
0.351583
0.351071
0.350562
0.350057
0.349555
0.349053
0.348554
0.348054
0.347553
0.347053
0.346551
0.346047
0.345543
0.345036
0.339041
0.366748
0.360004
0.35982
0.359466
0.359036
0.357946
0.357909
0.357113
0.356744
0.356178
0.355665
0.355145
0.354624
0.354102
0.353579
0.353052
0.352525
0.351999
0.351472
0.350943
0.350413
0.34988
0.349348
0.348813
0.348274
0.347737
0.347193
0.346648
0.341566
0.365423
0.360412
0.359801
0.35978
0.359351
0.359156
0.358924
0.358401
0.358094
0.357664
0.357245
0.356824
0.356386
0.355935
0.355474
0.355002
0.354522
0.35403
0.353531
0.353026
0.35251
0.35199
0.35146
0.350924
0.350386
0.349838
0.349286
0.348732
0.34658
0.364642
0.361602
0.361302
0.361234
0.360834
0.360571
0.360326
0.36011
0.359844
0.35948
0.359141
0.358773
0.35839
0.357989
0.357574
0.357146
0.356703
0.35625
0.355781
0.355296
0.354804
0.354298
0.353782
0.35326
0.352719
0.352173
0.35162
0.351049
0.352659
0.366583
0.364764
0.36424
0.3642
0.364063
0.36374
0.363293
0.362977
0.362751
0.362422
0.362062
0.361693
0.361302
0.3609
0.360483
0.360047
0.3596
0.359136
0.358656
0.358168
0.357659
0.357138
0.356608
0.356054
0.355493
0.35492
0.354327
0.353733
0.359329
0.370616
0.369449
0.368841
0.368669
0.368532
0.36832
0.367971
0.367511
0.367067
0.366727
0.366357
0.36594
0.365513
0.365069
0.364611
0.364141
0.363652
0.36315
0.362636
0.362098
0.361551
0.360993
0.360407
0.359817
0.359212
0.358583
0.357953
0.357303
0.367226
0.376204
0.375502
0.374873
0.374597
0.374389
0.374141
0.373836
0.373445
0.372929
0.372412
0.371994
0.371557
0.371082
0.370591
0.37008
0.369553
0.369011
0.36845
0.36786
0.367268
0.366654
0.366008
0.365364
0.364697
0.364004
0.363313
0.362592
0.361847
0.376505
0.383231
0.382837
0.382207
0.381851
0.381574
0.38127
0.380924
0.380535
0.380077
0.379514
0.378914
0.378394
0.37787
0.37733
0.376768
0.376181
0.37557
0.374934
0.374293
0.373614
0.372903
0.3722
0.371462
0.370693
0.36992
0.369116
0.368296
0.367484
0.385824
0.391684
0.391392
0.390736
0.390315
0.389976
0.389611
0.389202
0.388751
0.388253
0.387691
0.387039
0.38633
0.385685
0.385045
0.384398
0.383726
0.383032
0.382318
0.381558
0.380788
0.38002
0.379182
0.378326
0.37749
0.376601
0.375679
0.374764
0.373798
0.395942
0.401236
0.400994
0.400306
0.399828
0.399429
0.399002
0.398526
0.398001
0.397424
0.396792
0.396091
0.395307
0.394464
0.393667
0.392875
0.392072
0.391238
0.390373
0.389504
0.388598
0.387636
0.386679
0.385705
0.384666
0.3836
0.382541
0.381465
0.380373
0.40724
0.411842
0.411628
0.410915
0.410381
0.409921
0.409432
0.40889
0.408293
0.407637
0.406918
0.406131
0.405266
0.40431
0.403295
0.402314
0.401346
0.400357
0.399332
0.398272
0.397193
0.396103
0.394951
0.393762
0.392607
0.391426
0.390165
0.388874
0.387558
0.419414
0.423491
0.423278
0.422536
0.421948
0.421428
0.420877
0.42027
0.419603
0.418871
0.41807
0.417194
0.416239
0.415196
0.414058
0.412864
0.411711
0.410555
0.409368
0.408174
0.406933
0.405659
0.404357
0.403028
0.401637
0.400209
0.398771
0.397358
0.395906
0.432414
0.436086
0.435857
0.435082
0.43444
0.43386
0.433247
0.432573
0.431834
0.431026
0.430141
0.429175
0.428123
0.426982
0.425742
0.424407
0.423028
0.421662
0.42031
0.418935
0.417512
0.416065
0.414583
0.413044
0.41149
0.409902
0.408252
0.406543
0.404798
0.446124
0.449483
0.449223
0.448407
0.447706
0.447059
0.446374
0.445623
0.4448
0.443899
0.442912
0.441834
0.44066
0.439387
0.43801
0.436521
0.434933
0.43331
0.431679
0.430052
0.428412
0.426716
0.424994
0.423218
0.421381
0.419506
0.417609
0.415738
0.413791
0.460488
0.4636
0.463301
0.462437
0.461674
0.460957
0.460194
0.459359
0.458442
0.457438
0.456338
0.455136
0.453825
0.452404
0.450867
0.449209
0.447425
0.445543
0.443622
0.441687
0.439773
0.437827
0.435813
0.433774
0.431742
0.429641
0.427428
0.425195
0.422951
0.475431
0.478353
0.478011
0.477097
0.476272
0.475485
0.474644
0.473723
0.472712
0.471603
0.470388
0.469059
0.46761
0.466037
0.464337
0.462506
0.460538
0.458432
0.456227
0.453988
0.451729
0.449468
0.447204
0.444864
0.442442
0.439978
0.437483
0.43499
0.432418
0.490835
0.493622
0.493236
0.49227
0.491381
0.490523
0.489604
0.488593
0.487484
0.486267
0.484932
0.48347
0.481875
0.480141
0.478267
0.476249
0.474084
0.471765
0.469294
0.466727
0.464106
0.461472
0.458841
0.456129
0.4534
0.45064
0.447768
0.444833
0.441902
0.506597
0.509302
0.508874
0.507854
0.506903
0.505974
0.504977
0.503878
0.50267
0.501342
0.499884
0.498287
0.496544
0.494648
0.492595
0.490384
0.488014
0.48548
0.482778
0.479913
0.476952
0.473974
0.470977
0.467936
0.464851
0.461739
0.458571
0.455374
0.452044
0.522592
0.525268
0.524802
0.523727
0.522715
0.521718
0.520644
0.519457
0.518149
0.51671
0.515128
0.513394
0.511498
0.509434
0.507199
0.504789
0.502203
0.499441
0.496499
0.493375
0.490094
0.486737
0.483316
0.479867
0.476431
0.472881
0.469188
0.465491
0.461822
0.538699
0.541397
0.540897
0.539769
0.538697
0.537634
0.536483
0.535209
0.533801
0.532248
0.530538
0.52866
0.526605
0.524366
0.521938
0.519316
0.516499
0.513486
0.510276
0.506865
0.503252
0.499493
0.495604
0.491706
0.487754
0.483764
0.479753
0.475663
0.471496
0.554796
0.557564
0.557036
0.555855
0.554726
0.5536
0.552375
0.551016
0.54951
0.547844
0.546006
0.543985
0.541771
0.539354
0.536729
0.533892
0.530838
0.527567
0.524079
0.520371
0.516439
0.512299
0.508008
0.503589
0.499233
0.494758
0.490192
0.485614
0.480894
0.570765
0.573646
0.573094
0.571862
0.57068
0.569494
0.568198
0.566756
0.565154
0.563378
0.561415
0.559252
0.556878
0.554285
0.551463
0.548408
0.545116
0.541584
0.537812
0.533801
0.529546
0.525043
0.52032
0.515476
0.510456
0.505402
0.500324
0.495111
0.489876
0.586491
0.589521
0.588952
0.587671
0.586439
0.585197
0.583834
0.582311
0.580615
0.578731
0.576642
0.574336
0.571802
0.569028
0.566005
0.562728
0.55919
0.55539
0.551326
0.546999
0.542406
0.537543
0.532404
0.527039
0.521605
0.515991
0.510343
0.50467
0.498866
0.601868
0.605079
0.604497
0.603169
0.601891
0.600596
0.599169
0.597569
0.595781
0.593789
0.591577
0.58913
0.586435
0.58348
0.580256
0.576755
0.572973
0.568904
0.564547
0.559901
0.55497
0.549754
0.544251
0.538445
0.532413
0.526334
0.520111
0.513747
0.507373
0.6168
0.620215
0.619623
0.618252
0.616931
0.615586
0.614097
0.612421
0.610542
0.608444
0.606109
0.60352
0.600662
0.597524
0.594095
0.590366
0.58633
0.581983
0.577322
0.572345
0.567054
0.561451
0.555543
0.549323
0.542785
0.536004
0.529115
0.522178
0.515071
0.631205
0.634841
0.634242
0.63283
0.631469
0.630078
0.628529
0.626779
0.624811
0.622606
0.620146
0.617412
0.614389
0.611064
0.607424
0.60346
0.599163
0.594528
0.58955
0.584228
0.578562
0.572554
0.566205
0.559526
0.552516
0.545221
0.537681
0.52997
0.522177
0.645012
0.64888
0.648275
0.646825
0.645428
0.643993
0.642387
0.640564
0.638507
0.636195
0.633609
0.630729
0.627538
0.624022
0.620167
0.615961
0.611395
0.606462
0.601158
0.595481
0.58943
0.583008
0.576217
0.56906
0.561539
0.553704
0.545614
0.537245
0.528694
0.658165
0.662271
0.661661
0.660177
0.658747
0.657271
0.655609
0.653714
0.651567
0.649148
0.646434
0.643405
0.640043
0.63633
0.632251
0.627794
0.622948
0.617706
0.612062
0.606012
0.599557
0.592701
0.585447
0.5778
0.569757
0.561324
0.552616
0.543611
0.534265
0.670623
0.674966
0.674351
0.672836
0.671377
0.669862
0.668145
0.666178
0.663942
0.661415
0.658572
0.655391
0.651851
0.647934
0.643623
0.638904
0.633765
0.628196
0.622191
0.615747
0.608862
0.601541
0.593789
0.585615
0.577023
0.568006
0.558623
0.548906
0.53892
0.682358
0.686931
0.68631
0.684768
0.683284
0.681732
0.679962
0.677925
0.6756
0.672963
0.669989
0.666652
0.662929
0.658801
0.654248
0.649255
0.643806
0.637892
0.631504
0.624639
0.617295
0.609475
0.601188
0.592444
0.583256
0.573633
0.563603
0.553174
0.542426
0.693352
0.698143
0.697516
0.695951
0.694446
0.69286
0.691039
0.688933
0.68652
0.683774
0.680666
0.67717
0.67326
0.668912
0.664108
0.658827
0.653053
0.646773
0.639977
0.63266
0.624821
0.616463
0.607595
0.59823
0.588387
0.578085
0.567354
0.556203
0.544713
0.703602
0.708594
0.707957
0.706375
0.704852
0.703236
0.701366
0.699194
0.696693
0.693838
0.690597
0.686939
0.682837
0.678266
0.673201
0.66762
0.661502
0.654834
0.647603
0.639802
0.631429
0.622487
0.612987
0.602943
0.592379
0.581323
0.569812
0.557873
0.54557
0.713113
0.718282
0.717634
0.716039
0.714505
0.712861
0.710945
0.708708
0.706123
0.70316
0.699785
0.695966
0.691671
0.686871
0.681537
0.675643
0.669167
0.66209
0.654396
0.646077
0.637127
0.627551
0.617359
0.606569
0.595208
0.583312
0.570924
0.558094
0.544836
0.721898
0.727217
0.726555
0.724954
0.723413
0.721745
0.719787
0.717488
0.714822
0.711754
0.708249
0.704269
0.69978
0.694747
0.689137
0.682921
0.676073
0.668566
0.660383
0.651509
0.64194
0.631675
0.620727
0.609115
0.596871
0.584037
0.570667
0.556825
0.54254
0.729978
0.735417
0.734738
0.733137
0.731594
0.729907
0.72791
0.725555
0.722812
0.719644
0.716011
0.711873
0.707191
0.701923
0.696034
0.68949
0.682256
0.674301
0.665602
0.656139
0.645904
0.634895
0.623122
0.610607
0.597386
0.58351
0.569042
0.554063
0.538647
0.73738
0.742907
0.742207
0.740613
0.739074
0.737372
0.735342
0.732935
0.73012
0.726857
0.723101
0.71881
0.713937
0.708438
0.702272
0.695393
0.687762
0.679342
0.670103
0.660018
0.649072
0.637259
0.624587
0.611081
0.59678
0.581743
0.566048
0.54979
0.533085
0.744137
0.749717
0.748993
0.747413
0.745885
0.744173
0.742114
0.739662
0.736781
0.733429
0.729558
0.725118
0.720061
0.714337
0.707892
0.700676
0.692642
0.683747
0.673946
0.663206
0.651503
0.638826
0.625178
0.610584
0.595087
0.578755
0.561684
0.543987
0.525813
0.750284
0.755882
0.755132
0.753575
0.752064
0.750346
0.748265
0.745774
0.742836
0.739402
0.735423
0.730844
0.72561
0.719664
0.712945
0.705397
0.696961
0.687579
0.677197
0.665773
0.653269
0.639666
0.62496
0.609173
0.592351
0.574575
0.555956
0.536638
0.516802
0.755858
0.761443
0.760664
0.759138
0.75765
0.755934
0.753837
0.751315
0.748326
0.74482
0.740742
0.736032
0.730631
0.724473
0.717492
0.709618
0.700779
0.690904
0.679932
0.667799
0.654454
0.639863
0.624012
0.606918
0.588629
0.569236
0.548873
0.527719
0.506
0.760897
0.766439
0.765631
0.764144
0.762688
0.760979
0.758874
0.756328
0.753298
0.749729
0.745562
0.740733
0.735176
0.728819
0.721587
0.713395
0.704165
0.693807
0.682236
0.669373
0.65515
0.639511
0.622429
0.603906
0.58399
0.562783
0.540445
0.5172
0.493334
0.765437
0.770914
0.770077
0.768639
0.76722
0.765526
0.76342
0.76086
0.757797
0.754175
0.749929
0.744994
0.739296
0.732755
0.725287
0.716798
0.707189
0.696357
0.684192
0.670593
0.655464
0.638725
0.620323
0.600243
0.578525
0.555278
0.530694
0.505051
0.47872
0.769512
0.774911
0.774044
0.772666
0.771292
0.769618
0.767519
0.764952
0.761866
0.7582
0.753888
0.74886
0.743036
0.736331
0.728649
0.719884
0.709919
0.698635
0.685895
0.671563
0.655513
0.637631
0.61783
0.596063
0.572354
0.546813
0.519661
0.49125
0.462061
0.773148
0.778472
0.777575
0.776265
0.774942
0.773295
0.771211
0.768644
0.765543
0.761843
0.757477
0.75237
0.746439
0.739593
0.731723
0.722713
0.712426
0.700719
0.687433
0.672392
0.655427
0.636379
0.615114
0.591539
0.565643
0.537526
0.507434
0.475801
0.443267
0.77637
0.781637
0.780709
0.779474
0.778207
0.776593
0.774528
0.77197
0.76886
0.765135
0.760726
0.755557
0.749541
0.742579
0.734556
0.725339
0.714774
0.702693
0.688903
0.673197
0.655349
0.63514
0.612373
0.586887
0.558616
0.527623
0.494166
0.458767
0.422279
0.779195
0.784445
0.783479
0.782325
0.781117
0.77954
0.7775
0.774954
0.771844
0.768104
0.763666
0.758454
0.752378
0.745335
0.737199
0.727825
0.71704
0.704646
0.690418
0.674106
0.655437
0.634113
0.609843
0.582382
0.551576
0.517401
0.48011
0.440294
0.399098
0.781639
0.786928
0.785912
0.784843
0.783695
0.782157
0.780147
0.77762
0.774517
0.770775
0.766328
0.761099
0.754999
0.747918
0.739723
0.730254
0.719321
0.706698
0.692124
0.675297
0.655889
0.633529
0.607815
0.578369
0.544911
0.507266
0.465656
0.420663
0.373819
0.783718
0.789114
0.788027
0.787046
0.785958
0.78446
0.782485
0.779987
0.776906
0.773185
0.76876
0.763556
0.757481
0.750421
0.742237
0.732753
0.721762
0.70901
0.6942
0.676985
0.656965
0.633684
0.606643
0.575275
0.539129
0.497778
0.451363
0.400287
0.346673
0.785448
0.791019
0.789836
0.788947
0.787917
0.786465
0.784536
0.782084
0.779053
0.775392
0.771038
0.765918
0.759937
0.752974
0.74488
0.735471
0.72452
0.711755
0.696844
0.679397
0.658949
0.634936
0.606748
0.573617
0.534877
0.489675
0.438024
0.379799
0.318054
0.786854
0.792654
0.791349
0.790559
0.789587
0.78819
0.786326
0.783951
0.781015
0.777469
0.773251
0.768286
0.762476
0.755695
0.747785
0.738553
0.727758
0.715113
0.700264
0.682775
0.662131
0.637657
0.608621
0.573995
0.532921
0.483882
0.42675
0.360192
0.28867
0.787965
0.794025
0.792576
0.791897
0.790986
0.789663
0.787894
0.785638
0.782849
0.779479
0.775467
0.770735
0.765181
0.758676
0.751054
0.742114
0.731608
0.719235
0.704627
0.687314
0.666738
0.642128
0.612656
0.57697
0.53405
0.481458
0.418951
0.342888
0.259795
0.788822
0.795145
0.793542
0.792989
0.792147
0.79092
0.789278
0.787183
0.784592
0.781458
0.77772
0.773292
0.76807
0.761918
0.75467
0.746121
0.736019
0.724055
0.709856
0.692926
0.67269
0.648284
0.61884
0.582663
0.538615
0.483107
0.415777
0.329402
0.232788
0.789469
0.796039
0.794283
0.793872
0.793108
0.791999
0.79051
0.788607
0.786248
0.783382
0.779944
0.775843
0.770971
0.765193
0.75834
0.750211
0.740557
0.729069
0.715371
0.698957
0.679251
0.65531
0.626269
0.59011
0.545657
0.488084
0.416736
0.320083
0.207251
0.789917
0.796708
0.794812
0.794551
0.793867
0.792882
0.791552
0.789839
0.787699
0.785074
0.781893
0.778067
0.773485
0.768013
0.761487
0.753709
0.744436
0.733359
0.720109
0.704164
0.684962
0.661487
0.632907
0.596893
0.552323
0.493141
0.418112
0.311524
0.178244
0.790075
0.797059
0.795036
0.794915
0.794291
0.793405
0.792192
0.790615
0.788623
0.786156
0.783142
0.779487
0.775085
0.769801
0.763473
0.755903
0.746849
0.736001
0.722991
0.707282
0.688315
0.664995
0.636534
0.600248
0.555203
0.493832
0.414616
0.295559
0.136729
0.78998
0.7971
0.794966
0.794948
0.794346
0.793497
0.792318
0.790777
0.788825
0.786405
0.783442
0.779846
0.775505
0.770285
0.764021
0.756509
0.747505
0.736689
0.723689
0.707939
0.688878
0.665314
0.636496
0.59932
0.553163
0.488537
0.404684
0.269349
0.0773974
0.79084
0.797991
0.795822
0.795886
0.795341
0.794557
0.793425
0.791901
0.789934
0.787467
0.784433
0.780748
0.77631
0.770988
0.76462
0.757001
0.747878
0.736922
0.723742
0.70775
0.688361
0.664302
0.6348
0.596453
0.548659
0.480645
0.392546
0.245086
0.0192641
0.795972
0.803165
0.801173
0.801446
0.801346
0.801146
0.800674
0.799783
0.798334
0.796218
0.793352
0.789663
0.78507
0.779472
0.772732
0.76467
0.755047
0.743545
0.729772
0.71317
0.693061
0.668392
0.637837
0.599112
0.548894
0.481168
0.387727
0.252809
0.108239
0.342488
0.341845
0.341194
0.340537
0.339873
0.339203
0.338527
0.337846
0.33716
0.336468
0.335772
0.33507
0.334365
0.333655
0.332941
0.332223
0.3315
0.330775
0.330045
0.329313
0.328577
0.327839
0.327099
0.326358
0.325614
0.32487
0.324125
0.323378
0.322632
0.321885
0.321137
0.32039
0.319642
0.318895
0.318149
0.317403
0.316658
0.315915
0.315173
0.314432
0.313694
0.312957
0.312223
0.311491
0.310762
0.310036
0.309313
0.308593
0.307878
0.307166
0.306458
0.305754
0.305055
0.304361
0.303671
0.302987
0.302308
0.301635
0.300968
0.300307
0.299651
0.299002
0.29836
0.297724
0.297095
0.296473
0.295858
0.295251
0.294651
0.294059
0.293475
0.292898
0.29233
0.29177
0.291219
0.290676
0.290142
0.289617
0.289102
0.288595
0.288098
0.28761
0.287131
0.286663
0.286204
0.285755
0.285316
0.284887
0.284469
0.284061
0.283663
0.283277
0.282901
0.282535
0.282181
0.281837
0.281505
0.281183
0.280873
0.280573
0.280285
0.280008
0.279742
0.279486
0.279243
0.27901
0.278788
0.278577
0.278377
0.278187
0.278008
0.27784
0.277682
0.277534
0.277396
0.277268
0.277149
0.27704
0.27694
0.276851
0.27677
0.276699
0.276637
0.276583
0.276538
0.2765
0.276469
0.276447
0.276429
0.27642
0.276416
0.276419
0.276431
0.276444
0.276478
0.276501
0.276569
0.276586
0.276739
0.343201
0.342537
0.341868
0.341192
0.34051
0.339822
0.33913
0.33843
0.337726
0.337017
0.336303
0.335586
0.334864
0.334137
0.333407
0.332674
0.331939
0.3312
0.33046
0.329718
0.328974
0.328228
0.327479
0.326727
0.325973
0.325217
0.324458
0.323696
0.322933
0.322168
0.321402
0.320635
0.319867
0.319099
0.318331
0.317563
0.316796
0.316029
0.315264
0.3145
0.313738
0.312978
0.31222
0.311464
0.31071
0.30996
0.309213
0.308469
0.307728
0.306991
0.306259
0.30553
0.304806
0.304087
0.303372
0.302663
0.301958
0.30126
0.300567
0.29988
0.299199
0.298525
0.297858
0.297197
0.296544
0.295898
0.295259
0.294629
0.294006
0.293391
0.292785
0.292187
0.291598
0.291018
0.290447
0.289885
0.289332
0.288789
0.288256
0.287732
0.287219
0.286715
0.286222
0.285739
0.285267
0.284805
0.284354
0.283914
0.283485
0.283067
0.28266
0.282264
0.28188
0.281506
0.281144
0.280794
0.280455
0.280127
0.279812
0.279508
0.279216
0.278935
0.278667
0.27841
0.278166
0.277933
0.277712
0.277503
0.277305
0.27712
0.276946
0.276784
0.276633
0.276494
0.276367
0.276251
0.276147
0.276053
0.27597
0.275897
0.275834
0.27578
0.275735
0.275697
0.275667
0.275646
0.27563
0.275618
0.275618
0.275609
0.27562
0.275616
0.275641
0.275619
0.275662
0.275628
0.275663
0.275613
0.275569
0.344435
0.343741
0.34304
0.342335
0.341625
0.340908
0.340185
0.339457
0.338724
0.337985
0.33724
0.336488
0.33573
0.334967
0.3342
0.333425
0.332645
0.331861
0.33107
0.330273
0.329472
0.328667
0.327865
0.327069
0.326273
0.325469
0.324657
0.323846
0.323033
0.322221
0.321408
0.320595
0.319782
0.318969
0.318157
0.317346
0.316535
0.315726
0.314917
0.314111
0.313306
0.312503
0.311703
0.310905
0.310111
0.30932
0.308532
0.307748
0.306968
0.306192
0.305421
0.304654
0.303893
0.303136
0.302385
0.30164
0.300901
0.300168
0.299441
0.298721
0.298008
0.297301
0.296602
0.295911
0.295227
0.294551
0.293883
0.293223
0.292572
0.291929
0.291295
0.29067
0.290054
0.289447
0.28885
0.288263
0.287685
0.287117
0.28656
0.286012
0.285475
0.284948
0.284433
0.283928
0.283434
0.282952
0.282481
0.282022
0.281574
0.281137
0.280713
0.280301
0.279901
0.279513
0.279138
0.278775
0.278424
0.278087
0.277762
0.27745
0.277151
0.276865
0.276593
0.276333
0.276086
0.275853
0.275633
0.275427
0.275234
0.275054
0.274888
0.274736
0.274598
0.274473
0.274362
0.274265
0.274182
0.274112
0.274055
0.274012
0.273982
0.273964
0.27396
0.273968
0.273989
0.274022
0.27407
0.274128
0.274197
0.274274
0.274367
0.274446
0.274541
0.274675
0.274659
0.27494
0.274708
0.275391
0.27467
0.346006
0.345258
0.344506
0.343751
0.342987
0.342217
0.341444
0.340664
0.339878
0.339087
0.338288
0.337486
0.336681
0.335869
0.33505
0.334229
0.333403
0.332574
0.331743
0.330908
0.33007
0.329228
0.328374
0.327507
0.326635
0.32577
0.32491
0.324045
0.323178
0.322308
0.321439
0.320569
0.319699
0.318829
0.31796
0.317091
0.316223
0.315357
0.314493
0.31363
0.31277
0.311912
0.311056
0.310203
0.309354
0.308508
0.307665
0.306826
0.305992
0.305162
0.304337
0.303517
0.302702
0.301893
0.30109
0.300293
0.299502
0.298719
0.297942
0.297172
0.29641
0.295655
0.294908
0.294169
0.293438
0.292715
0.292001
0.291296
0.2906
0.289913
0.289235
0.288567
0.287909
0.28726
0.286624
0.285998
0.285383
0.284779
0.284185
0.283604
0.283033
0.282475
0.281928
0.281395
0.280874
0.280364
0.279867
0.279382
0.27891
0.278451
0.278004
0.277571
0.27715
0.276743
0.276349
0.275969
0.275602
0.275249
0.27491
0.274585
0.274274
0.273978
0.273695
0.273428
0.273176
0.272938
0.272716
0.272509
0.272318
0.272143
0.271983
0.27184
0.271714
0.271604
0.27151
0.271434
0.271375
0.271334
0.27131
0.271304
0.271318
0.27135
0.271402
0.271472
0.271565
0.271677
0.271806
0.271951
0.27214
0.272323
0.272504
0.272921
0.272752
0.273764
0.272773
0.275116
0.272529
0.276986
0.271587
0.348066
0.347294
0.346514
0.345718
0.344918
0.344109
0.343291
0.342461
0.341624
0.340782
0.339931
0.339072
0.338202
0.337328
0.336449
0.335561
0.334665
0.333758
0.332845
0.331931
0.331012
0.330086
0.32916
0.328241
0.327323
0.32639
0.325443
0.3245
0.323557
0.322612
0.321664
0.320715
0.319765
0.318815
0.317864
0.316914
0.315965
0.315017
0.31407
0.313124
0.31218
0.311238
0.310299
0.309364
0.308433
0.307506
0.306583
0.305666
0.304753
0.303847
0.302946
0.302051
0.301162
0.300281
0.299406
0.298538
0.297679
0.296827
0.295984
0.295149
0.294323
0.293506
0.292699
0.291901
0.291113
0.290335
0.289568
0.28881
0.288064
0.287328
0.286604
0.285889
0.285185
0.284494
0.283815
0.283148
0.282491
0.281846
0.281213
0.280589
0.279979
0.279382
0.278799
0.278226
0.277665
0.277118
0.276581
0.276059
0.27555
0.275055
0.274574
0.274106
0.273654
0.273216
0.272793
0.272385
0.271993
0.271616
0.271255
0.27091
0.270581
0.270268
0.269972
0.269692
0.26943
0.269185
0.268957
0.268747
0.268554
0.26838
0.268225
0.268088
0.26797
0.267872
0.267793
0.267735
0.267696
0.26768
0.267684
0.26771
0.267759
0.267831
0.267929
0.268052
0.268199
0.268379
0.268609
0.268849
0.269101
0.269629
0.269537
0.270848
0.269722
0.273073
0.269338
0.276496
0.267771
0.281806
0.261377
0.350373
0.349577
0.348759
0.347932
0.34709
0.346228
0.345352
0.344468
0.343572
0.342656
0.34173
0.340795
0.339848
0.338896
0.337934
0.336963
0.335989
0.335012
0.33403
0.333036
0.332034
0.331027
0.33002
0.328994
0.327955
0.32692
0.325897
0.324868
0.323827
0.322785
0.32174
0.320702
0.31968
0.318664
0.317646
0.316626
0.315606
0.314584
0.313562
0.31254
0.311518
0.310493
0.309467
0.308446
0.307429
0.306417
0.30541
0.304409
0.303413
0.302423
0.30144
0.300463
0.299492
0.298529
0.297572
0.296624
0.295686
0.29476
0.293844
0.29294
0.292046
0.291164
0.290293
0.289435
0.288586
0.28775
0.286922
0.286106
0.2853
0.284503
0.28372
0.282939
0.28217
0.281411
0.280658
0.27992
0.279195
0.278482
0.27778
0.277101
0.276438
0.27578
0.275136
0.274512
0.2739
0.2733
0.272719
0.272151
0.271597
0.271059
0.270534
0.270024
0.269529
0.269051
0.268592
0.26815
0.267725
0.267318
0.266928
0.266556
0.266201
0.265865
0.265546
0.265246
0.264965
0.264702
0.264458
0.264233
0.264028
0.263842
0.263676
0.263531
0.263406
0.263302
0.263219
0.263158
0.26312
0.263105
0.263115
0.263149
0.263209
0.263298
0.263417
0.26357
0.263754
0.263965
0.264212
0.264584
0.264661
0.265531
0.265031
0.266942
0.265307
0.268625
0.26561
0.270584
0.264547
0.277235
0.246016
0.353014
0.352158
0.351292
0.350406
0.349499
0.348578
0.347647
0.34669
0.345718
0.344744
0.343753
0.342752
0.34174
0.340706
0.339662
0.338612
0.33755
0.336463
0.335369
0.334263
0.333176
0.33208
0.330957
0.329835
0.328719
0.327622
0.326495
0.325332
0.324178
0.323027
0.321868
0.320695
0.319527
0.318373
0.317225
0.316082
0.314941
0.313802
0.312666
0.311534
0.310408
0.309293
0.308188
0.307089
0.305995
0.304904
0.303816
0.30273
0.301649
0.300574
0.299505
0.298445
0.297392
0.296348
0.295314
0.294287
0.293269
0.292257
0.291253
0.290256
0.289268
0.288289
0.287319
0.286358
0.285409
0.284469
0.283544
0.282626
0.281722
0.280837
0.279955
0.279099
0.278257
0.27743
0.276626
0.275832
0.275057
0.274296
0.273551
0.272809
0.272074
0.271377
0.270698
0.270024
0.269365
0.268727
0.268104
0.267497
0.266909
0.266338
0.265785
0.265255
0.264744
0.264251
0.263774
0.263313
0.262868
0.26244
0.26203
0.261637
0.26126
0.260902
0.260561
0.260238
0.259933
0.259646
0.259377
0.259128
0.258896
0.258685
0.258492
0.25832
0.258168
0.258038
0.257928
0.257841
0.257778
0.257738
0.257725
0.257737
0.257776
0.257842
0.257931
0.258046
0.258187
0.258348
0.258456
0.258803
0.258695
0.25937
0.258942
0.25994
0.259346
0.260305
0.260271
0.260653
0.260462
0.267225
0.235299
0.356507
0.35559
0.354648
0.353666
0.352675
0.351666
0.350628
0.349568
0.348485
0.347392
0.346272
0.345129
0.343971
0.342798
0.341619
0.340412
0.339184
0.337961
0.336776
0.335578
0.334307
0.333032
0.331759
0.33051
0.329301
0.328086
0.326834
0.325571
0.324304
0.323025
0.321763
0.320504
0.319217
0.31793
0.316659
0.315383
0.314106
0.312834
0.311566
0.310303
0.309044
0.307789
0.306536
0.305288
0.304048
0.302815
0.301591
0.30038
0.299182
0.297994
0.296817
0.295649
0.29449
0.29334
0.292199
0.291069
0.289947
0.288836
0.287735
0.286645
0.285566
0.284497
0.283442
0.282398
0.281367
0.280349
0.279347
0.278367
0.277405
0.276452
0.275518
0.274599
0.273692
0.272805
0.271928
0.271064
0.270216
0.269388
0.268578
0.267785
0.267018
0.266268
0.265532
0.264823
0.264132
0.263459
0.262808
0.262177
0.261561
0.260964
0.260386
0.259823
0.259274
0.258737
0.258215
0.257711
0.257221
0.256749
0.256293
0.255856
0.255436
0.255035
0.254652
0.254288
0.253944
0.253618
0.253312
0.253025
0.252759
0.252512
0.252285
0.252079
0.251893
0.251728
0.251584
0.25146
0.251357
0.251274
0.251209
0.251163
0.251133
0.25112
0.251119
0.25113
0.251157
0.251215
0.251185
0.251378
0.251254
0.251589
0.251406
0.251804
0.251707
0.251792
0.252113
0.25132
0.251062
0.258105
0.229132
0.360974
0.359929
0.358844
0.357749
0.356628
0.355466
0.35427
0.353093
0.351897
0.350649
0.34939
0.348112
0.346827
0.345537
0.344222
0.342937
0.341655
0.340303
0.338898
0.337499
0.336131
0.334767
0.333378
0.331942
0.330466
0.328972
0.327521
0.326104
0.324675
0.323267
0.321847
0.320409
0.318989
0.317567
0.316128
0.314699
0.313282
0.311872
0.310467
0.309068
0.307676
0.306292
0.304916
0.303546
0.302181
0.300823
0.299476
0.298137
0.296806
0.295483
0.294172
0.292873
0.291587
0.290316
0.289058
0.287815
0.286587
0.285375
0.284178
0.282997
0.281833
0.280686
0.279556
0.278443
0.277347
0.276269
0.275202
0.274154
0.27312
0.272103
0.271112
0.270127
0.269162
0.268214
0.267283
0.266373
0.26548
0.264603
0.26374
0.262886
0.262043
0.261223
0.260418
0.25962
0.258839
0.258078
0.257338
0.256608
0.255902
0.255218
0.254549
0.253903
0.253279
0.252677
0.252099
0.251542
0.251005
0.250489
0.249991
0.249513
0.249054
0.248613
0.248191
0.247787
0.247403
0.247036
0.246689
0.24636
0.246051
0.245761
0.24549
0.245238
0.245004
0.244789
0.244592
0.244411
0.244247
0.244098
0.243962
0.24384
0.243729
0.24363
0.243545
0.243464
0.243394
0.243368
0.243257
0.243337
0.243173
0.243364
0.243165
0.243402
0.243444
0.243151
0.243673
0.242829
0.241414
0.248149
0.222941
0.366479
0.365282
0.364091
0.36285
0.361573
0.360308
0.359017
0.357665
0.356292
0.354912
0.353527
0.352115
0.350666
0.349211
0.347731
0.346184
0.344627
0.3431
0.341572
0.340026
0.338444
0.336847
0.335279
0.333714
0.332125
0.330534
0.328929
0.327325
0.325739
0.324145
0.322548
0.320956
0.31935
0.317727
0.316107
0.314494
0.312894
0.311309
0.309737
0.308176
0.306627
0.305088
0.303559
0.302036
0.300521
0.29902
0.297531
0.296054
0.294588
0.293136
0.291698
0.290275
0.288867
0.287477
0.286103
0.284746
0.283408
0.282087
0.280785
0.279501
0.278235
0.276988
0.275758
0.274546
0.273351
0.272174
0.271016
0.269868
0.26873
0.267617
0.266521
0.265444
0.264387
0.263341
0.26231
0.261292
0.260282
0.259297
0.258343
0.257412
0.256508
0.255631
0.254785
0.253961
0.253153
0.252364
0.251592
0.250844
0.250111
0.249386
0.248683
0.247994
0.247319
0.246663
0.246022
0.2454
0.244798
0.244216
0.243655
0.243115
0.242596
0.242098
0.241619
0.241161
0.240722
0.240302
0.239901
0.239519
0.239155
0.238808
0.238477
0.238163
0.237864
0.23758
0.23731
0.237054
0.23681
0.23658
0.236362
0.236156
0.235964
0.235782
0.235618
0.235465
0.235313
0.235228
0.235059
0.23506
0.234893
0.234942
0.234855
0.23481
0.235107
0.234749
0.234627
0.23397
0.232773
0.238476
0.216684
0.372642
0.371323
0.369917
0.36848
0.367041
0.36553
0.36399
0.362438
0.360869
0.359258
0.357621
0.355981
0.354297
0.352575
0.350867
0.349182
0.347493
0.345751
0.343978
0.342199
0.340445
0.338706
0.336929
0.335114
0.333334
0.331598
0.329882
0.328111
0.326269
0.324422
0.322584
0.320767
0.319001
0.317265
0.315533
0.313802
0.312062
0.310315
0.308574
0.306843
0.305122
0.303408
0.301705
0.300012
0.298326
0.296653
0.295005
0.293382
0.291782
0.290202
0.28864
0.287097
0.28557
0.284061
0.282569
0.281094
0.279636
0.278194
0.27677
0.275364
0.273974
0.272603
0.271252
0.26992
0.268611
0.267318
0.266051
0.264803
0.263582
0.262383
0.261191
0.260036
0.2589
0.257783
0.256697
0.25564
0.254609
0.253607
0.252616
0.251632
0.250677
0.249733
0.248792
0.247883
0.246987
0.246114
0.24528
0.244456
0.243648
0.242877
0.242125
0.24139
0.240683
0.239996
0.23933
0.238689
0.238067
0.237465
0.23688
0.23631
0.23576
0.235226
0.234709
0.23421
0.233727
0.233262
0.232813
0.232379
0.231962
0.231559
0.231172
0.230798
0.23044
0.230095
0.229765
0.229449
0.229146
0.228859
0.228586
0.228327
0.228085
0.227859
0.227648
0.227469
0.227277
0.22716
0.226981
0.226924
0.226761
0.226756
0.226646
0.226458
0.226518
0.225973
0.225562
0.224983
0.224071
0.228876
0.209927
0.379042
0.377415
0.375772
0.374147
0.372414
0.370674
0.368963
0.367169
0.365319
0.363476
0.361591
0.359719
0.357934