/*--------------------------------*- C++ -*----------------------------------*\
| =========                 |                                                 |
| \\      /  F ield         | OpenFOAM: The Open Source CFD Toolbox           |
|  \\    /   O peration     | Version:  5.x                                   |
|   \\  /    A nd           | Web:      www.OpenFOAM.org                      |
|    \\/     M anipulation  |                                                 |
\*---------------------------------------------------------------------------*/
/*   Windows 32 and 64 bit porting by blueCAPE: http://www.bluecape.com.pt   *\
|  Based on Windows porting (2.0.x v4) by Symscape: http://www.symscape.com   |
\*---------------------------------------------------------------------------*/
FoamFile
{
    version     2.0;
    format      ascii;
    class       surfaceScalarField;
    location    "250";
    object      phi;
}
// * * * * * * * * * * * * * * * * * * * * * * * * * * * * * * * * * * * * * //

dimensions      [0 3 -1 0 0 0 0];

internalField   nonuniform List<scalar> 
87341
(
0.366122
39.5569
0.529829
39.7593
0.496872
39.956
0.604652
39.8153
0.642396
39.8853
0.687534
39.8779
0.725457
39.8851
0.763368
39.8851
0.799219
39.8872
0.825652
39.8966
0.851014
39.8977
0.876375
39.8977
0.90065
39.8988
0.923831
39.8999
0.946489
39.9004
0.9657
39.9038
0.983912
39.9048
1.00198
39.905
1.018
39.907
1.03441
39.9066
1.0501
39.9073
1.06404
39.9091
1.07864
39.9084
1.09227
39.9094
1.10484
39.9105
1.11832
39.9096
1.13058
39.9108
1.14203
39.9116
39.9107
1.15433
0.969159
38.5878
1.3597
39.3688
1.46981
39.8459
1.60455
39.6805
1.64222
39.8476
1.79995
39.7202
1.90043
39.7846
2.03365
39.7519
2.12921
39.7916
2.23303
39.7928
2.3245
39.8062
2.40918
39.813
2.49185
39.8161
2.57038
39.8213
2.64025
39.8305
2.70664
39.8374
2.77154
39.8399
2.83007
39.8464
2.8849
39.8522
2.93479
39.8567
2.97943
39.8627
3.02311
39.8654
3.06252
39.869
3.09838
39.8735
3.13416
39.8747
3.16568
39.878
3.19518
39.8813
3.22558
39.8812
39.8832
3.25307
2.03302
36.5547
3.34834
38.0535
4.12487
39.0694
4.20485
39.6005
4.36101
39.6915
4.29252
39.7887
4.32185
39.7553
4.29963
39.7741
4.32573
39.7655
4.35414
39.7644
4.3922
39.7681
4.43636
39.7688
4.48082
39.7716
4.5245
39.7776
4.57162
39.7834
4.62069
39.7884
4.66371
39.7969
4.70824
39.8019
4.75396
39.8065
4.79772
39.813
4.84518
39.8152
4.89052
39.8201
4.93352
39.826
4.97984
39.8272
5.02334
39.8312
5.06618
39.8352
5.11124
39.8362
5.15157
39.8409
39.8441
5.19069
1.69646
34.8583
3.49599
36.2539
4.94603
37.6193
5.83357
38.713
6.1346
39.3904
6.22386
39.6994
6.2394
39.7398
6.26666
39.7469
6.28651
39.7457
6.30526
39.7456
6.32545
39.7479
6.34238
39.7519
6.36081
39.7532
6.379
39.7595
6.39836
39.764
6.41844
39.7683
6.44752
39.7678
6.47974
39.7697
6.51063
39.7756
6.54889
39.7747
6.58699
39.7772
6.62728
39.7798
6.67498
39.7783
6.7201
39.7821
6.76528
39.786
6.81436
39.7861
6.86001
39.7906
6.90755
39.7933
39.7917
6.96002
1.08816
33.7701
2.4553
34.8868
4.02891
36.0457
5.49438
37.2475
6.56433
38.3205
7.15108
39.1127
7.35753
39.5333
7.39943
39.705
7.43789
39.7072
7.47708
39.7064
7.51635
39.7087
7.55519
39.7131
7.59094
39.7175
7.62537
39.725
7.66399
39.7254
7.70892
39.7233
7.75124
39.7255
7.79052
39.7304
7.83865
39.7275
7.88661
39.7267
7.93618
39.7276
7.98812
39.7279
8.03318
39.7333
8.08061
39.7347
8.1334
39.7332
8.18321
39.7363
8.23679
39.737
8.29236
39.7377
39.7444
8.33963
0.852749
32.9174
1.86421
33.8753
3.03235
34.8776
4.36131
35.9186
5.71387
36.9679
6.84869
37.9778
7.57366
38.8083
7.92351
39.3551
8.05053
39.5802
8.12412
39.6329
8.19777
39.635
8.26857
39.6423
8.3338
39.6522
8.39832
39.6605
8.47116
39.6526
8.54365
39.6508
8.61396
39.6552
8.69171
39.6527
8.76447
39.6547
8.83429
39.6569
8.90532
39.6565
8.97229
39.6609
9.04397
39.6616
9.11883
39.6598
9.18726
39.6648
9.25787
39.6657
9.32539
39.6695
9.38748
39.6757
39.6727
9.45915
0.743923
32.1734
1.589
33.0303
2.5372
33.9294
3.59248
34.8633
4.74447
35.8159
5.95393
36.7684
7.06233
37.6999
7.88532
38.5321
8.336
39.1295
8.53051
39.4383
8.63884
39.5267
8.74787
39.5332
8.86297
39.5371
8.98261
39.5409
9.08771
39.5475
9.19362
39.5449
9.30824
39.5406
9.41582
39.5451
9.52099
39.5495
9.62822
39.5497
9.72859
39.5562
9.83134
39.5581
9.93546
39.5575
10.0341
39.5612
10.1315
39.5674
10.2235
39.5737
10.3159
39.5771
10.4167
39.5749
39.5729
10.5165
0.691814
31.4816
1.45254
32.2695
2.28609
33.0958
3.19469
33.9547
4.17575
34.8349
5.22037
35.7238
6.3136
36.6067
7.3827
37.463
8.24864
38.2636
8.79615
38.8908
9.05664
39.2662
9.2002
39.3897
9.34155
39.3958
9.48275
39.3997
9.62814
39.4021
9.77139
39.4017
9.90279
39.4092
10.0378
39.4101
10.1782
39.4092
10.3164
39.4115
10.4602
39.4124
10.5968
39.4215
10.7196
39.4347
10.8379
39.4429
10.9622
39.4431
11.0951
39.4408
11.2308
39.4414
11.3512
39.4545
39.4697
11.4543
0.664498
30.8171
1.37929
31.5547
2.14872
32.3264
2.97487
33.1285
3.85728
33.9525
4.79251
34.7885
5.77313
35.6261
6.78329
36.4529
7.79279
37.2541
8.6732
38.0104
9.29199
38.6474
9.61478
39.0669
9.80121
39.2094
9.97872
39.2221
10.1531
39.2277
10.3267
39.228
10.5006
39.2353
10.667
39.2436
10.8298
39.2464
10.9929
39.2483
11.144
39.2613
11.298
39.2676
11.4676
39.265
11.646
39.2645
11.8152
39.2738
11.9663
39.2898
12.0989
39.3087
12.2353
39.3181
39.3056
12.3995
0.645164
30.172
1.33304
30.8669
2.06262
31.5968
2.83568
32.3555
3.65249
33.1357
4.5116
33.9294
5.40928
34.7284
6.33859
35.5236
7.28783
36.3048
8.23831
37.0599
9.11491
37.7708
9.78203
38.3998
10.161
38.8304
10.3864
38.9967
10.5999
39.0142
10.8011
39.0269
11.0039
39.0325
11.2162
39.0313
11.4183
39.0444
11.605
39.0616
11.8049
39.0614
12.0125
39.0599
12.197
39.0805
12.3653
39.0962
12.5338
39.1054
12.7099
39.1137
12.9046
39.114
13.1105
39.1123
39.1333
13.2827
0.637224
29.5347
1.30769
30.1964
2.01251
30.892
2.75234
31.6156
3.52706
32.3609
4.33555
33.1209
5.17553
33.8884
6.04314
34.6559
6.93238
35.4156
7.83392
36.1584
8.73162
36.8731
9.58865
37.5427
10.2674
38.1517
10.6742
38.59
10.9254
38.7629
11.1712
38.7811
11.4017
38.802
11.6199
38.8131
11.8426
38.8217
12.0789
38.8253
12.306
38.8343
12.5069
38.859
12.7209
38.8666
12.9442
38.8728
13.1691
38.8805
13.381
38.9018
13.5784
38.9166
13.7578
38.9328
38.9506
13.9405
0.6367
28.898
1.30134
29.5318
1.99525
30.1981
2.71861
30.8923
3.47107
31.6085
4.25151
32.3405
5.05802
33.0819
5.88779
33.8262
6.73674
34.5666
7.59892
35.2962
8.46508
36.007
9.31888
36.6889
10.1422
37.3283
10.821
37.9112
11.2412
38.3427
11.5153
38.5071
11.7946
38.5226
12.047
38.5607
12.2964
38.5723
12.5383
38.5835
12.7895
38.5831
13.0507
38.5978
13.3075
38.6098
13.5426
38.6377
13.7716
38.6515
14.0006
38.6729
14.2347
38.6825
14.4629
38.7046
38.7281
14.6854
0.643655
28.2544
1.31313
28.8623
2.00845
29.5028
2.72946
30.1713
3.47572
30.8622
4.24632
31.5699
5.03966
32.2886
5.85347
33.0124
6.68471
33.7354
7.52924
34.4517
8.38127
35.1549
9.23221
35.838
10.0687
36.4919
10.876
37.1039
11.5562
37.6625
11.9869
38.0764
12.2771
38.2324
12.5883
38.2495
12.8952
38.2653
13.1863
38.2924
13.4525
38.3168
13.7074
38.343
13.9671
38.35
14.2357
38.3691
14.5008
38.3863
14.7592
38.4146
14.9895
38.4522
15.226
38.468
38.4804
15.4738
0.655949
27.5984
1.33525
28.183
2.03817
28.7998
2.76444
29.445
3.51324
30.1134
4.28362
30.7995
5.0743
31.4979
5.88339
32.2033
6.70846
32.9103
7.54639
33.6138
8.39314
34.3082
9.24322
34.9879
10.0888
35.6463
10.9174
36.2752
11.7167
36.8632
12.3939
37.3992
12.8281
37.7982
13.1396
37.938
13.448
37.957
13.7428
37.9975
14.0319
38.0278
14.3314
38.0435
14.6278
38.0536
14.9094
38.0875
15.1853
38.1104
15.4605
38.1394
15.7335
38.1791
15.9991
38.2024
38.2335
16.246
0.670149
26.9283
1.36193
27.4912
2.07526
28.0865
2.81002
28.7102
3.56539
29.358
4.34002
30.0249
5.13261
30.7053
5.94156
31.3943
6.76476
32.0871
7.59964
32.7789
8.44301
33.4648
9.29086
34.14
10.1379
34.7993
10.9765
35.4366
11.7954
36.0443
12.5825
36.6121
13.2526
37.1281
13.6857
37.5049
14.0042
37.6385
14.3307
37.6711
14.6774
37.6811
15.0046
37.7163
15.3182
37.74
15.6261
37.7796
15.9161
37.8205
16.1796
37.876
16.4433
37.9154
16.7116
37.9341
37.9463
16.9988
0.687666
26.2406
1.39568
26.7832
2.12375
27.3584
2.87153
27.9625
3.63849
28.5911
4.42339
29.24
5.22454
29.9042
6.04039
30.5785
6.86913
31.2584
7.70854
31.9395
8.55596
32.6174
9.40823
33.2878
10.2614
33.9461
11.1104
34.5876
11.9482
35.2065
12.7646
35.7958
13.5463
36.3464
14.2049
36.8463
14.6466
37.1968
15.0211
37.2965
15.376
37.3262
15.7174
37.3748
16.0414
37.416
16.3618
37.4592
16.7038
37.4784
17.0726
37.5072
17.4255
37.5624
17.7423
37.6172
37.677
18.0117
0.706972
25.5337
1.43341
26.0568
2.17895
26.6129
2.94296
27.1984
3.72477
27.8093
4.52353
28.4412
5.33767
29.09
6.16528
29.7509
7.00466
30.419
7.85386
31.0903
8.71056
31.7607
9.5721
32.4262
10.4353
33.0829
11.2964
33.7265
12.1503
34.3526
12.9904
34.9557
13.8072
35.5296
14.586
36.0675
15.2317
36.5511
15.6773
36.8509
16.0365
36.967
16.3911
37.0202
16.7582
37.0489
17.1018
37.1156
17.4145
37.1657
17.7042
37.2175
18.0107
37.2559
18.3545
37.2734
37.3433
18.6882
0.726197
24.8075
1.4713
25.3117
2.23475
25.8494
3.01586
26.4173
3.81368
27.0115
4.62726
27.6276
5.45547
28.2618
6.29647
28.9099
7.14817
29.5673
8.00872
30.2297
8.87605
30.8934
9.74775
31.5545
10.6211
32.2096
11.4928
32.8548
12.3591
33.4863
13.2149
34.0999
14.0539
34.6906
14.8685
35.2529
15.6373
35.7823
16.2343
36.2538
16.6688
36.5325
17.037
36.652
17.4129
36.673
17.8022
36.7263
18.2259
36.742
18.6222
36.8212
18.9579
36.9202
19.2386
36.9928
37.0672
19.5148
0.745043
24.0624
1.50854
24.5482
2.2899
25.0681
3.08833
25.6189
3.90285
26.1969
4.73228
26.7982
5.57545
27.4186
6.43103
28.0543
7.29695
28.7014
8.1711
29.3556
9.05152
30.0129
9.93601
30.67
10.8222
31.3234
11.7073
31.9697
12.5882
32.6054
13.4611
33.227
14.3214
33.8303
15.1634
34.4108
15.9822
34.9635
16.7468
35.4893
17.3258
35.9535
17.7983
36.1795
18.2195
36.2517
18.6032
36.3426
18.934
36.4113
19.2808
36.4744
19.697
36.504
20.1431
36.5466
36.6794
20.5309
0.76235
23.3001
1.54289
23.7676
2.34094
24.27
3.15566
24.8042
3.98601
25.3666
4.83078
25.9534
5.68856
26.5608
6.55805
27.1848
7.43767
27.8218
8.32525
28.468
9.21868
29.1195
10.1159
29.7728
11.0146
30.4247
11.9124
31.072
12.8064
31.7114
13.6936
32.3398
14.5702
32.9537
15.4318
33.5493
16.2728
34.1225
17.092
34.6701
17.847
35.1984
18.3954
35.6311
18.8207
35.8265
19.2512
35.9121
19.6879
35.9746
20.0652
36.097
20.3351
36.2342
20.6081
36.2735
36.3216
20.9659
0.777767
22.5223
1.57353
22.9719
2.38657
23.457
3.21598
23.9748
4.06069
24.5219
4.91946
25.0947
5.79085
25.6894
6.67331
26.3024
7.56534
26.9297
8.46513
27.5682
9.37043
28.2142
10.2791
28.8641
11.189
29.5148
12.0977
30.1633
13.0026
30.8065
13.9009
31.4415
14.7894
32.0652
15.6642
32.6744
16.5211
33.2656
17.3554
33.8358
18.1684
34.3855
18.8899
34.9096
19.4115
35.3048
19.8109
35.5127
20.178
35.6075
20.653
35.622
21.1891
35.6981
21.6375
35.8251
36.0026
21.9565
0.791205
21.7311
1.60029
22.1628
2.42651
22.6308
3.26894
23.1323
4.12652
23.6643
4.99798
24.2232
5.88189
24.8055
6.77667
25.4076
7.68066
26.0257
8.59221
26.6567
9.50927
27.2972
10.4296
27.9438
11.3509
28.5934
12.2711
29.2431
13.1877
29.8899
14.098
30.5312
14.9992
31.164
15.8881
31.7855
16.7611
32.3926
17.6145
32.9824
18.4475
33.5525
19.2479
34.1092
19.928
34.6247
20.4988
34.9419
20.9535
35.1528
21.2964
35.2792
21.64
35.3545
22.0793
35.3858
35.5003
22.5817
0.802589
20.9285
1.62299
21.3424
2.46046
21.7933
3.31411
22.2787
4.18286
22.7955
5.06548
23.3406
5.96056
23.9104
6.86654
24.5016
7.78172
25.1106
8.70435
25.734
9.63266
26.3688
10.5645
27.012
11.4975
27.6604
12.4296
28.311
13.3583
28.9612
14.2813
29.6083
15.1957
30.2496
16.0989
30.8824
16.9876
31.5039
17.8585
32.1115
18.7085
32.7025
19.5408
33.2769
20.3058
33.8597
20.9064
34.3413
21.4582
34.601
21.971
34.7664
22.3995
34.9259
22.7088
35.0765
35.173
23.0361
0.811897
20.1166
1.64156
20.5127
2.48829
20.9466
3.35122
21.4158
4.22933
21.9174
5.12143
22.4485
6.02613
23.0057
6.94192
23.5858
7.86711
24.1854
8.79988
24.8012
9.73847
25.4303
10.6809
26.0696
11.6251
26.7162
12.5687
27.3674
13.5095
28.0204
14.445
28.6727
15.3728
29.3217
16.2903
29.9649
17.1945
30.5997
18.0826
31.2234
18.9517
31.8334
19.8006
32.4281
20.6433
33.0169
21.3837
33.6009
21.9274
34.0573
22.4256
34.2683
22.9419
34.4096
23.4374
34.581
34.794
23.8164
0.819067
19.2975
1.65587
19.6759
2.50976
20.0927
3.37994
20.5456
4.26545
21.0319
5.16517
21.5488
6.0778
22.0931
7.00185
22.6617
7.93571
23.2515
8.87761
23.8593
9.8257
24.4822
10.7781
25.1172
11.7327
25.7616
12.6874
26.4127
13.64
27.0678
14.5882
27.7245
15.5296
28.3803
16.4618
29.0327
17.3822
29.6792
18.2883
30.3173
19.1774
30.9442
20.0477
31.5579
20.9041
32.1605
21.7459
32.759
22.4565
33.3467
22.9389
33.7859
23.376
33.9726
23.8041
34.1528
34.2785
24.3196
0.824069
18.4735
1.66584
18.8341
2.52471
19.2338
3.39999
19.6703
4.2908
20.1411
5.19608
20.6435
6.11462
21.1746
7.045
21.7314
7.98567
22.3109
8.93495
22.9101
9.89098
23.5261
10.8519
24.1562
11.8157
24.7978
12.7802
25.4482
13.7432
26.1048
14.7024
26.7653
15.6555
27.4272
16.6
28.0882
17.5333
28.7459
18.4528
29.3978
19.3556
30.0415
20.2385
30.6749
21.1016
31.2975
21.946
31.9146
22.7737
32.519
23.4129
33.1467
23.8843
33.5012
24.3347
33.7024
33.885
24.7283
0.826912
17.6466
1.67145
17.9896
2.53313
18.3721
3.41132
18.7921
4.30525
19.2472
5.21396
19.7348
6.13631
20.2522
7.07098
20.7967
8.01647
21.3654
8.97114
21.9554
9.93322
22.564
10.9008
23.1886
11.872
23.8266
12.8447
24.4755
13.8167
25.1329
14.7856
25.7964
15.7492
26.4637
16.7049
27.1325
17.6503
27.8006
18.5825
28.4656
19.4987
29.1253
20.396
29.7776
21.272
30.4216
22.128
31.0586
22.9627
31.6843
23.7705
32.3389
24.3774
32.8942
24.8308
33.2491
33.4873
25.2284
0.827589
16.819
1.6727
17.1445
2.53494
17.5099
3.41381
17.9133
4.30863
18.3524
5.21853
18.8249
6.14248
19.3283
7.07922
19.86
8.02737
20.4172
8.98536
20.9974
9.95146
21.5979
10.9238
22.2163
11.9005
22.8499
12.8795
23.4965
13.8587
24.1537
14.8357
24.8193
15.8083
25.4911
16.7741
26.1667
17.7305
26.8441
18.675
27.5211
19.6048
28.1955
20.5171
28.8653
21.4095
29.5291
22.2804
30.1878
23.1209
30.8438
23.9436
31.5162
24.6875
32.1503
25.2884
32.6482
33.0209
25.7548
0.826141
15.9928
1.66966
16.301
2.53026
16.6493
3.40757
17.0359
4.30103
17.4589
5.20988
17.916
6.13317
18.405
7.06976
18.9234
8.01834
19.4686
8.97741
20.0383
9.94534
20.63
10.9203
21.2413
11.9004
21.8698
12.8836
22.5133
13.8677
23.1696
14.8506
23.8364
15.83
24.5117
16.8033
25.1934
17.7682
25.8792
18.7221
26.5672
19.6623
27.2552
20.5862
27.9414
21.4913
28.624
22.376
29.303
23.2381
29.9817
24.0924
30.6619
24.8491
31.3937
25.5147
31.9825
32.4965
26.0391
0.822629
15.1702
1.66243
15.4612
2.51923
15.7925
3.3928
16.1624
4.28271
16.569
5.18829
17.0104
6.10873
17.4846
7.04297
17.9891
7.98979
18.5218
8.94778
19.0804
9.91535
19.6624
10.8908
20.2659
11.8722
20.8884
12.8575
21.528
13.8446
22.1825
14.8312
22.8498
15.8151
23.5279
16.7937
24.2147
17.7646
24.9083
18.7252
25.6066
19.6729
26.3076
20.605
27.0093
21.5191
27.7099
22.4135
28.4086
23.2888
29.1064
24.1514
29.7993
25.0038
30.5413
25.7027
31.2836
31.9078
26.2914
0.817108
14.3531
1.65113
14.6271
2.50203
14.9416
3.36972
15.2947
4.25391
15.6848
5.15408
16.1103
6.0695
16.5691
6.99924
17.0594
7.94218
17.5789
8.89698
18.1255
9.86213
18.6973
10.8359
19.292
11.8166
19.9078
12.802
20.5425
13.7902
21.1944
14.7787
21.8613
15.7653
22.5413
16.7473
23.2326
17.7224
23.9333
18.6877
24.6413
19.6407
25.3546
20.5786
26.0714
21.4989
26.7897
22.3995
27.508
23.2803
28.2257
24.1413
28.9382
25.0104
29.6722
25.8307
30.4633
31.2668
26.4717
0.809622
13.5435
1.63584
13.8009
2.47876
14.0987
3.33847
14.435
4.21483
14.8085
5.10744
15.2177
6.01572
15.6609
6.93885
16.1363
7.87581
16.6419
8.82536
17.176
9.78608
17.7366
10.7563
18.3218
11.7343
18.9298
12.718
19.5588
13.7054
20.207
14.694
20.8726
15.6816
21.5538
16.6654
22.2488
17.6429
22.9558
18.6113
23.6729
19.5677
24.3982
20.5093
25.1298
21.4332
25.8657
22.337
26.6042
23.219
27.3437
24.0763
28.0809
24.9229
28.8256
25.7826
29.6036
30.4719
26.5775
0.800212
12.7433
1.61663
12.9845
2.44955
13.2658
3.29921
13.5853
4.16564
13.942
5.04861
14.3347
5.94766
14.7618
6.8621
15.2218
7.79102
15.713
8.73332
16.2337
9.68765
16.7822
10.6524
17.357
11.6259
17.9563
12.6062
18.5786
13.591
19.2222
14.5782
19.8854
15.5651
20.5669
16.5492
21.2647
17.5276
21.9774
18.4975
22.703
19.4557
23.4399
20.3994
24.1861
21.3253
24.9398
22.2306
25.6989
23.1126
26.4616
23.9681
27.2254
24.8009
27.9928
25.6298
28.7747
29.6206
26.4811
0.788912
11.9543
1.59359
12.1798
2.4145
12.4448
3.25209
12.7477
4.10655
13.0876
4.97781
13.4634
5.86557
13.8741
6.76928
14.3181
7.68818
14.7941
8.62127
15.3006
9.56731
15.8362
10.5249
16.3994
11.4922
16.9889
12.4674
17.6034
13.4483
18.2413
14.4325
18.9013
15.4174
19.5819
16.4004
20.2817
17.3785
20.9993
18.3486
21.733
19.3074
22.4811
20.2517
23.2418
21.1781
24.0134
22.0832
24.7938
22.9639
25.581
23.8165
26.3729
24.6402
27.169
25.4429
27.972
28.808
26.2555
0.775754
11.1786
1.56678
11.3888
2.37372
11.6379
3.19725
11.9242
4.03774
12.2471
4.8953
12.6059
5.76977
12.9996
6.6608
13.4271
7.56776
13.8871
8.48978
14.3786
9.42576
14.9002
10.3743
15.4509
11.3339
16.0294
12.3025
16.6347
13.2781
17.2658
14.2581
17.9212
15.24
18.6
16.221
19.3008
17.1979
20.0224
18.1675
20.7634
19.1261
21.5224
20.0703
22.2977
20.9962
23.0875
21.9002
23.8898
22.7786
24.7026
23.6276
25.5239
24.4447
26.3519
25.231
27.1858
28.0345
26.0045
0.760761
10.4178
1.53624
10.6133
2.3273
10.8468
3.13482
11.1167
3.95937
11.4225
4.80125
11.764
5.6605
12.1403
6.53691
12.5507
7.43004
12.994
8.33917
13.4695
9.26333
13.9761
10.2013
14.5129
11.1515
15.0792
12.1121
15.6741
13.0812
16.2967
14.0561
16.9463
15.0343
17.6218
16.0127
18.3223
16.9881
19.047
17.9568
19.7947
18.9152
20.5641
19.8591
21.3538
20.7845
22.1621
21.6872
22.9871
22.563
23.8268
23.4078
24.679
24.2184
25.5413
24.9926
26.4116
27.2892
25.7379
0.743939
9.67389
1.50201
9.85525
2.27528
10.0736
3.06486
10.3271
3.87155
10.6158
4.69582
10.9397
5.53791
11.2982
6.3978
11.6908
7.27523
12.1166
8.16965
12.575
9.08027
13.0654
10.006
13.5872
10.9454
14.1398
11.897
14.7226
12.8585
15.3352
13.8275
15.9772
14.8014
16.6479
15.7769
17.3468
16.7507
18.0732
17.7189
18.8265
18.6774
19.6056
19.6218
20.4094
20.5473
21.2365
21.4493
22.0852
22.3229
22.9532
23.1635
23.8383
23.967
24.7378
24.7298
25.6487
26.5676
25.4515
0.725284
8.94861
1.46409
9.11644
2.21768
9.31999
2.98743
9.55733
3.77435
9.82891
4.57911
10.1349
5.40216
10.4752
6.24367
10.8493
7.10357
11.2567
7.98153
11.6971
8.87693
12.17
9.78887
12.6753
10.7161
13.2125
11.6572
13.7815
12.6101
14.3823
13.5724
15.0149
14.5415
15.6789
15.5141
16.3742
16.4866
17.1007
17.4549
17.8581
18.4146
18.6459
19.3606
19.4634
20.2878
20.3094
21.1905
21.1824
22.0634
22.0804
22.9008
23.0009
23.6978
23.9409
24.4498
24.8967
25.8643
25.1531
0.704779
8.24383
1.42245
8.39878
2.15449
8.58795
2.90255
8.80927
3.66782
9.06363
4.45122
9.35156
5.25336
9.67306
6.07464
10.028
6.91521
10.4161
7.77492
10.8374
8.65337
11.2916
9.54988
11.7788
10.4634
12.2989
11.3926
12.8523
12.3357
13.4392
13.2907
14.0599
14.2546
14.715
15.2243
15.4045
16.196
16.129
17.1654
16.8887
18.1276
17.6837
19.0771
18.5139
20.0079
19.3785
20.9138
20.2765
21.7882
21.206
22.6246
22.1645
23.4168
23.1487
24.1591
24.1544
25.1766
24.8469
0.682404
7.56142
1.37708
7.7041
2.08572
7.8793
2.81024
8.08476
3.55205
8.32182
4.31225
8.59136
5.09167
8.89364
5.89091
9.22873
6.71031
9.59673
7.54996
9.99772
8.40968
10.4319
9.28901
10.8994
10.1872
11.4008
11.1031
11.9364
12.0354
12.5069
12.982
13.1133
13.9401
13.7568
14.9068
14.4379
15.8781
15.1577
16.8496
15.9172
17.816
16.7173
18.7713
17.5586
19.7086
18.4412
20.6207
19.3644
21.4999
20.3269
22.3382
21.3262
23.1282
22.3587
23.8629
23.4197
24.5031
24.5363
0.658148
6.90327
1.32798
7.03427
2.01143
7.19585
2.71064
7.38555
3.42723
7.60523
4.16248
7.85611
4.91741
8.1387
5.69281
8.45333
6.48923
8.80031
7.30697
9.17998
8.1461
9.59274
9.00644
10.0391
9.88751
10.5197
10.7885
11.0354
11.7082
11.5872
12.645
12.1765
13.5967
12.8051
14.5601
13.4745
15.5315
14.1863
16.5062
14.9425
17.4786
15.7449
18.4421
16.5951
19.3892
17.4941
20.3114
18.4422
21.1995
19.4388
22.044
20.4817
22.8355
21.5672
23.5653
22.6899
23.8423
24.2261
0.632028
6.27125
1.27526
6.39104
1.9318
6.53931
2.60403
6.71332
3.29375
6.91551
4.00239
7.14747
4.73115
7.40994
5.48098
7.7035
6.2526
8.02869
7.04654
8.38604
7.8631
8.77617
8.7024
9.19979
9.56429
9.6578
10.4483
10.1514
11.3537
10.6819
12.2792
11.251
13.2231
11.8612
14.1825
12.5151
15.1538
13.2151
16.1324
13.9639
17.1125
14.7648
18.0871
15.6205
19.0478
16.5334
19.9846
17.5053
20.8869
18.5365
21.7429
19.6257
22.5409
20.7692
23.2699
21.9609
23.1917
23.9205
0.604113
5.66713
1.2191
5.77606
1.84718
5.91123
2.49093
6.06956
3.15229
6.25416
3.8328
6.46695
4.5338
6.70894
5.25637
6.98094
6.00138
7.28368
6.76955
7.61788
7.56144
7.98428
8.37746
8.38377
9.21786
8.81741
10.0826
9.2866
10.9714
9.79309
11.8834
10.3391
12.8173
10.9272
13.7714
11.5611
14.742
12.2444
15.7248
12.9812
16.7139
13.7756
17.7021
14.6323
18.6801
15.5554
19.6369
16.5486
20.5595
17.6139
21.4338
18.7514
22.245
19.958
22.9788
21.227
22.5476
23.623
0.574557
5.09258
1.15988
5.19074
1.75817
5.31294
2.37214
5.45559
3.00382
5.62248
3.65483
5.81593
4.32659
6.03719
5.02026
6.28727
5.73684
6.5671
6.47721
6.87751
7.24217
7.21932
8.03245
7.59348
8.8487
8.00117
9.69138
8.44391
10.5607
8.92375
11.4565
9.44324
12.3782
10.0056
13.3244
10.6149
14.2925
11.2763
15.2787
11.995
16.2773
12.777
17.2809
13.6287
18.2798
14.5566
19.2616
15.5668
20.2115
16.664
21.1123
17.8506
21.9453
19.125
22.6916
20.4807
21.9043
23.3348
0.543615
4.54896
1.09815
4.6362
1.66558
4.74551
2.24871
4.87245
2.84958
5.02162
3.46985
5.19566
4.11096
5.39608
4.77412
5.62411
5.4604
5.88081
6.17084
6.16707
6.90646
6.48371
7.66831
6.83163
8.45747
7.21201
9.27493
7.62645
10.1215
8.07714
10.9978
8.56695
11.9038
9.09966
12.8388
9.6798
13.8017
10.3134
14.7891
11.0076
15.7961
11.77
16.8156
12.6092
17.8377
13.5344
18.8492
14.5553
19.8333
15.6799
20.7695
16.9144
21.6343
18.2603
22.4029
19.7121
21.2543
23.053
0.511666
4.0373
1.03465
4.11322
1.57044
4.20972
2.12187
4.32102
2.69094
4.45255
3.27931
4.6073
3.88838
4.787
4.51939
4.9931
5.17344
5.22675
5.85171
5.4888
6.55544
5.77997
7.28603
6.10105
8.04496
6.45308
8.83379
6.83762
9.65398
7.25695
10.5068
7.71412
11.3931
8.21337
12.3131
8.75976
13.2665
9.36008
14.2513
10.0227
15.2639
10.7574
16.2978
11.5753
17.3435
12.4887
18.3876
13.5112
19.4116
14.6559
20.3917
15.9343
21.299
17.3529
22.1013
18.9098
20.5877
22.7679
0.479201
3.5581
0.970234
3.62219
1.47385
3.70611
1.99291
3.80195
2.5293
3.91616
3.08462
4.05198
3.66024
4.21139
4.25736
4.39598
4.87717
4.60694
5.52096
4.84501
6.19025
5.11069
6.88673
5.40456
7.61233
5.72748
8.3691
6.08084
9.15909
6.46696
9.98433
6.88888
10.8465
7.35119
11.7468
7.85948
12.6857
8.42118
13.6628
9.04562
14.676
9.7442
15.7204
10.531
16.7873
11.4217
17.864
12.4346
18.9311
13.5888
19.9618
14.9035
20.9221
16.3926
21.7698
18.0621
19.8937
22.4638
0.446783
3.11131
0.905787
3.16318
1.37691
3.23498
1.86306
3.31581
2.36593
3.41329
2.88704
3.53086
3.42772
3.6707
3.9892
3.83451
4.57274
4.0234
5.17985
4.2379
5.81231
4.47823
6.47213
4.74474
7.1616
5.03801
7.88322
5.35923
8.63958
5.71059
9.43326
6.0952
10.2668
6.51765
11.1421
6.98416
12.0609
7.50236
13.0241
8.08243
14.0312
8.73711
15.0795
9.48273
16.1624
10.3388
17.268
11.329
18.378
12.4788
19.4632
13.8183
20.485
15.3708
21.389
17.1581
19.161
22.1216
0.414968
2.69635
0.842112
2.73604
1.28061
2.79649
1.73341
2.86301
2.20197
2.94472
2.68775
3.04508
3.19207
3.16639
3.71624
3.31035
4.26173
3.4779
4.83031
3.66932
5.42404
3.8845
6.04524
4.12354
6.69649
4.38676
7.38058
4.67514
8.10052
4.99064
8.85923
5.3365
9.65976
5.71711
10.5051
6.13886
11.3979
6.60954
12.3404
7.13991
13.3336
7.74389
14.377
8.43939
15.4672
9.24857
16.5948
10.2014
17.7436
11.33
18.8833
12.6786
19.9722
14.282
20.9416
16.1887
18.3784
21.7242
0.384207
2.31214
0.779843
2.3404
1.18577
2.39056
1.60495
2.44382
2.0386
2.51108
2.48811
2.59557
2.95492
2.69959
3.44053
2.82473
3.94674
2.97169
4.47562
3.14045
5.0295
3.33062
5.61099
3.54205
6.22284
3.7749
6.86797
4.03002
7.54947
4.30914
8.27055
4.61542
9.03465
4.95301
9.84539
5.32812
10.7063
5.74868
11.6206
6.22559
12.5914
6.77307
13.6202
7.41056
14.7072
8.16155
15.8464
9.06225
17.0261
10.1503
18.216
11.4887
19.3748
13.1231
20.4166
15.1469
17.5347
21.2604
0.354765
1.95737
0.719432
1.97574
1.09314
2.01686
1.47875
2.0582
1.87722
2.11261
2.29003
2.18275
2.71881
2.27082
3.16537
2.37817
3.63191
2.50516
4.12084
2.65151
4.63469
2.81676
5.17626
3.00049
5.74834
3.20282
6.3538
3.42456
6.99565
3.66729
7.67719
3.93388
8.40198
4.22822
9.17398
4.55612
9.99744
4.92521
10.8768
5.34627
11.8169
5.83296
12.8215
6.40596
13.8942
7.08887
15.0325
7.92395
16.232
8.95081
17.4634
10.2573
18.6919
11.8947
19.8103
14.0285
16.6164
20.7286
0.326724
1.63065
0.661228
1.64123
1.00349
1.6746
1.35607
1.70562
1.71976
1.74892
2.09623
1.80628
2.48736
1.87968
2.89538
1.97015
3.32283
2.07771
3.77242
2.20192
4.24683
2.34236
4.74878
2.49853
5.28105
2.67056
5.84642
2.85918
6.44783
3.06589
7.08848
3.29322
7.77194
3.54476
8.50229
3.82577
9.28429
4.14321
10.1232
4.50739
11.0253
4.93082
11.9963
5.43493
13.0439
6.04133
14.1685
6.79932
15.3749
7.74445
16.6361
8.99605
17.9319
10.5989
19.1296
12.8308
15.6054
20.1406
0.300075
1.33057
0.605593
1.33572
0.917738
1.36246
1.23848
1.38488
1.56863
1.41878
1.91008
1.46482
2.265
1.52476
2.63596
1.5992
3.02568
1.68798
3.43702
1.79058
3.87283
1.90656
4.33582
2.03553
4.82865
2.17773
5.35396
2.33388
5.91454
2.50531
6.51345
2.69431
7.15422
2.90399
7.84095
3.13904
8.57866
3.4055
9.37305
3.713
10.2318
4.07212
11.1617
4.50499
12.1745
5.02853
13.2736
5.70023
14.4744
6.54361
15.7541
7.71641
17.1156
9.23737
18.401
11.5454
14.4728
19.5335
0.274846
1.05573
0.55299
1.05757
0.83694
1.07851
1.12773
1.09409
1.4264
1.1201
1.73507
1.15616
2.05608
1.20375
2.39213
1.26314
2.74613
1.33399
3.12097
1.41574
3.5195
1.50802
3.94439
1.61064
4.3982
1.72393
4.88345
1.84862
5.40284
1.98593
5.95932
2.13782
6.55637
2.30695
7.19806
2.49735
7.88958
2.71398
8.63691
2.96568
9.44856
3.26046
10.3324
3.62114
11.3037
4.05726
12.3686
4.63535
13.5545
5.3577
14.8455
6.42543
16.2733
7.8095
17.677
10.1417
13.162
18.9877
0.251189
0.804538
0.503952
0.804808
0.762083
0.820375
1.02533
0.830843
1.29525
0.850182
1.57399
0.877411
1.86402
0.91372
2.16809
0.959079
2.48903
1.01305
2.82961
1.07515
3.19255
1.14509
3.5804
1.22279
3.99566
1.30866
4.44084
1.40344
4.91858
1.5082
5.43183
1.62457
5.98408
1.7547
6.57946
1.90196
7.22327
2.07017
7.92181
2.26714
8.68417
2.49811
9.51947
2.78584
10.4454
3.1313
11.4722
3.60854
12.6375
4.19241
13.9424
5.12056
15.4404
6.3115
17.0464
8.53572
11.5642
18.6442
0.229425
0.575113
0.458921
0.575312
0.693826
0.58547
0.932243
0.592427
1.17643
0.605992
1.42848
0.625365
1.69084
0.651356
1.96615
0.683773
2.25702
0.722179
2.566
0.766171
2.89555
0.815544
3.24803
0.870314
3.62583
0.930858
4.03143
0.997837
4.46747
1.07215
4.93695
1.15509
5.4434
1.24825
5.99111
1.35425
6.58549
1.47579
7.23338
1.61925
7.94402
1.78747
8.72885
2.00101
9.60591
2.25425
10.5936
2.62088
11.7326
3.05338
13.0604
3.79276
14.6325
4.73936
16.6053
6.563
9.4872
18.6823
0.209972
0.365141
0.418044
0.36724
0.632294
0.37122
0.848573
0.376148
1.07003
0.384529
1.29855
0.396845
1.5365
0.413415
1.78626
0.434004
2.0502
0.458246
2.33052
0.485848
2.62938
0.516686
2.94888
0.550809
3.29123
0.588516
3.65876
0.6303
4.05411
0.676806
4.48025
0.728941
4.94073
0.787773
5.43994
0.855042
5.9833
0.932434
6.57812
1.02442
7.23351
1.13208
7.96319
1.27132
8.78423
1.43322
9.72478
1.68033
10.8231
1.95504
12.1499
2.46593
13.7972
3.09207
16.2026
4.15768
6.80491
18.8848
0.192937
0.172205
0.381043
0.179134
0.577084
0.175179
0.773583
0.179648
0.974966
0.183147
1.18274
0.189067
1.39916
0.196995
1.62636
0.206804
1.86634
0.218269
2.12095
0.231234
2.392
0.245644
2.68127
0.261535
2.99071
0.279077
3.32248
0.298533
3.67905
0.320237
4.06333
0.344661
4.47877
0.372327
4.92973
0.40408
5.42146
0.440706
5.9613
0.484586
6.55797
0.535412
7.22613
0.603161
7.98133
0.678019
8.85845
0.803202
9.88865
0.924845
11.1618
1.19278
12.7735
1.48041
15.293
1.63812
3.73152
18.3664
0.172205
0.351339
0.526518
0.706166
0.889313
1.07838
1.27537
1.48218
1.70045
1.93168
2.17733
2.43886
2.71794
3.01647
3.33671
3.68137
4.0537
4.45778
4.89848
5.38307
5.91848
6.52164
7.19966
8.00286
8.92771
10.1205
11.6009
13.239
16.9705
1.16887
54.1257
1.18336
54.1257
1.20127
54.1223
1.2182
54.1233
1.22894
54.1295
1.23793
54.1312
1.25213
54.126
1.27113
54.1212
1.2888
54.1226
1.29942
54.1296
1.30646
54.1332
1.31734
54.1294
1.33631
54.1213
1.35749
54.1191
1.37382
54.1239
1.38008
54.134
1.37932
54.141
1.3755
54.1441
1.37038
54.1454
1.36435
54.1463
1.35752
54.1471
1.35019
54.1476
1.34284
54.1476
1.33621
54.1469
1.33123
54.1452
1.3292
54.1423
1.33079
54.1386
1.33461
54.1364
1.33899
54.1359
1.34228
54.1369
1.34397
54.1385
1.34442
54.1398
1.34393
54.1407
1.34265
54.1415
1.34074
54.1421
1.33834
54.1426
1.33546
54.1431
1.33215
54.1435
1.32855
54.1438
1.32481
54.144
1.32117
54.1439
1.3177
54.1437
1.31434
54.1436
1.31082
54.1438
1.3069
54.1442
1.30245
54.1447
1.29751
54.1452
1.29198
54.1458
1.28612
54.1461
1.27978
54.1466
1.27314
54.1469
1.26612
54.1472
1.25886
54.1475
1.25131
54.1478
1.24346
54.1481
1.23535
54.1483
1.22712
54.1485
1.21856
54.1488
1.20984
54.149
1.20073
54.1493
1.19132
54.1496
1.18152
54.15
1.17127
54.1505
1.16076
54.1508
1.14975
54.1512
1.13846
54.1515
1.12675
54.152
1.11476
54.1522
1.10224
54.1528
1.08957
54.1529
1.07642
54.1534
1.06279
54.1539
1.04943
54.1536
1.03466
54.155
1.02051
54.1544
1.0055
54.1552
0.990236
54.1555
0.974694
54.1558
0.958499
54.1564
0.94242
54.1563
0.925508
54.1571
0.908671
54.1571
0.890704
54.1582
0.872357
54.1586
0.853656
54.1589
0.834634
54.1593
0.815514
54.1594
0.795888
54.1599
0.776324
54.1598
0.756373
54.1602
0.736351
54.1603
0.716205
54.1604
0.695907
54.1605
0.675495
54.1606
0.655015
54.1607
0.63439
54.1609
0.613854
54.1608
0.593115
54.161
0.572453
54.1609
0.551735
54.161
0.531028
54.1609
0.51036
54.1609
0.489741
54.1609
0.469238
54.1607
0.448793
54.1607
0.428525
54.1605
0.408309
54.1604
0.38838
54.1602
0.368589
54.16
0.349081
54.1597
0.329804
54.1595
0.311011
54.159
0.292653
54.1586
0.274924
54.158
0.257678
54.1575
0.241108
54.1568
0.225324
54.156
0.210316
54.1552
0.195508
54.155
0.180585
54.1552