/*--------------------------------*- C++ -*----------------------------------*\
| =========                 |                                                 |
| \\      /  F ield         | OpenFOAM: The Open Source CFD Toolbox           |
|  \\    /   O peration     | Version:  5.x                                   |
|   \\  /    A nd           | Web:      www.OpenFOAM.org                      |
|    \\/     M anipulation  |                                                 |
\*---------------------------------------------------------------------------*/
/*   Windows 32 and 64 bit porting by blueCAPE: http://www.bluecape.com.pt   *\
|  Based on Windows porting (2.0.x v4) by Symscape: http://www.symscape.com   |
\*---------------------------------------------------------------------------*/
FoamFile
{
    version     2.0;
    format      ascii;
    class       volVectorField;
    location    "250";
    object      U;
}
// * * * * * * * * * * * * * * * * * * * * * * * * * * * * * * * * * * * * * //

dimensions      [0 1 -1 0 0 0 0];

internalField   nonuniform List<vector> 
43900
(
(1.16162 -0.000736462 -1.68047e-027)
(1.16714 0.00217987 -4.50349e-027)
(1.16972 0.0003643 1.43515e-030)
(1.16838 0.00183558 2.81792e-030)
(1.16975 0.000800728 3.67036e-030)
(1.16992 0.0020039 3.63979e-030)
(1.17015 0.00119684 6.01225e-027)
(1.17052 0.00188781 -1.20055e-026)
(1.17048 0.00166607 9.6935e-030)
(1.17015 0.0018027 -1.19764e-026)
(1.16983 0.00192137 1.19986e-026)
(1.16986 0.00191558 1.1549e-029)
(1.16994 0.00197667 -1.19409e-026)
(1.17001 0.00203651 2.49029e-029)
(1.17004 0.00208923 2.55829e-029)
(1.16995 0.00213546 2.62494e-029)
(1.17 0.0021747 -2.37739e-026)
(1.16998 0.00221728 5.49085e-029)
(1.16994 0.00225675 2.3802e-026)
(1.17001 0.00228626 2.85142e-029)
(1.16996 0.0023322 2.898e-029)
(1.16996 0.00235929 2.94365e-029)
(1.17001 0.00238846 2.98543e-029)
(1.16996 0.00243103 3.023e-029)
(1.16998 0.00244786 3.06198e-029)
(1.17003 0.00248367 -2.35063e-026)
(1.16997 0.00251512 6.25808e-029)
(1.17001 0.00253407 6.326e-029)
(1.17004 0.00256479 9.38331e-026)
(1.15869 0.011453 0)
(1.16552 -0.00497564 0)
(1.17144 0.00905626 0)
(1.1665 -0.000186992 0)
(1.16839 0.00618429 0)
(1.16797 0.00272792 0)
(1.1683 0.00489518 0)
(1.16773 0.00463519 0)
(1.16821 0.00462764 0)
(1.16888 0.00539297 0)
(1.16929 0.00528539 0)
(1.16917 0.00554796 0)
(1.16909 0.00580823 0)
(1.16903 0.00598321 0)
(1.16898 0.00614344 0)
(1.16922 0.00630308 0)
(1.1692 0.00646339 0)
(1.1692 0.00660448 0)
(1.16932 0.00673141 0)
(1.16921 0.00687319 0)
(1.16929 0.00696156 0)
(1.16938 0.00707182 0)
(1.16927 0.00718736 0)
(1.16937 0.0072408 0)
(1.1694 0.00735138 0)
(1.16929 0.00742885 0)
(1.16941 0.00747954 0)
(1.16942 0.00757421 0)
(1.16933 0.00763793 0)
(1.10209 0.0321031 0)
(1.14477 -0.017571 0)
(1.16309 0.0287856 0)
(1.1633 -0.00371626 0)
(1.16635 0.0208577 0)
(1.16432 0.00394456 0)
(1.16571 0.014988 0)
(1.16622 0.00828378 0)
(1.16647 0.0118245 0)
(1.16649 0.0104893 0)
(1.16666 0.0107626 0)
(1.16712 0.0110787 0)
(1.16726 0.0111052 0)
(1.16737 0.0111873 0)
(1.16764 0.011335 0)
(1.16753 0.0114385 0)
(1.16755 0.0115525 0)
(1.16778 0.0116522 0)
(1.16776 0.011788 0)
(1.16794 0.0118767 0)
(1.16809 0.011993 0)
(1.168 0.0121276 0)
(1.16816 0.0121952 0)
(1.16822 0.0123461 0)
(1.16816 0.0124456 0)
(1.16834 0.0125233 0)
(1.16834 0.0126796 0)
(1.16826 0.0127552 0)
(1.16841 0.012842 1.64883e-027)
(1.04087 0.0200192 0)
(1.08678 -0.00676418 0)
(1.12974 0.0201234 0)
(1.15573 0.00813886 0)
(1.16338 0.0222405 0)
(1.16608 0.0106821 0)
(1.1649 0.02059 0)
(1.16355 0.0135855 0)
(1.16452 0.0181123 0)
(1.16461 0.0157071 0)
(1.16479 0.0168342 0)
(1.16478 0.0165956 0)
(1.16505 0.0166354 0)
(1.16535 0.0167326 0)
(1.1653 0.0167389 0)
(1.16561 0.0168076 0)
(1.16606 0.0168485 0)
(1.16607 0.0169785 0)
(1.16622 0.017041 0)
(1.16631 0.0171128 0)
(1.16625 0.017256 0)
(1.16651 0.017304 0)
(1.1666 0.017468 0)
(1.16655 0.0175716 0)
(1.16676 0.0176557 0)
(1.16673 0.0178577 0)
(1.16674 0.0179079 0)
(1.16702 0.0180355 0)
(1.16702 0.0182362 1.75952e-027)
(1.00375 0.0101815 3.52414e-027)
(1.03925 -0.000913534 0)
(1.07611 0.0108095 0)
(1.11436 0.0128751 0)
(1.14466 0.0182905 0)
(1.16024 0.0173112 0)
(1.16359 0.022782 0)
(1.16454 0.0184939 0)
(1.16352 0.0216174 0)
(1.16345 0.0202326 0)
(1.16344 0.0207232 0)
(1.16362 0.020993 0)
(1.16357 0.0209613 0)
(1.16366 0.0209952 0)
(1.16411 0.0211602 0)
(1.1642 0.0212237 0)
(1.16387 0.0214153 0)
(1.16402 0.0214855 0)
(1.1643 0.0215847 0)
(1.1643 0.0217909 0)
(1.16455 0.0218419 0)
(1.1645 0.0220595 0)
(1.1644 0.0221647 0)
(1.16465 0.0222417 0)
(1.1647 0.0225084 0)
(1.16481 0.0225162 0)
(1.16507 0.0227146 0)
(1.16495 0.0229309 0)
(1.16494 0.0229486 -7.40525e-027)
(0.976438 0.00682339 -3.67813e-027)
(1.00633 0.000654277 0)
(1.03758 0.00756373 0)
(1.07 0.010987 0)
(1.10247 0.0148409 0)
(1.13281 0.0181259 0)
(1.1532 0.0220653 0)
(1.16139 0.0221316 0)
(1.16252 0.024426 0)
(1.16215 0.0228439 0)
(1.16204 0.0241779 0)
(1.16215 0.0239767 0)
(1.16233 0.0241934 0)
(1.16237 0.0244709 0)
(1.16218 0.0245474 0)
(1.16212 0.0248957 0)
(1.16261 0.025026 0)
(1.16272 0.0252349 0)
(1.16233 0.0255489 0)
(1.16244 0.0256112 0)
(1.16235 0.0259506 0)
(1.16244 0.0260748 0)
(1.16285 0.0262619 0)
(1.16277 0.0266046 0)
(1.16275 0.0266413 0)
(1.16284 0.0269446 0)
(1.16268 0.0272051 0)
(1.16286 0.027209 0)
(1.1633 0.0275717 3.91974e-027)
(0.953578 0.0052424 0)
(0.979916 0.00138821 0)
(1.00751 0.00637584 0)
(1.03617 0.00956215 0)
(1.06531 0.0128597 0)
(1.09425 0.0164556 0)
(1.12231 0.0201896 0)
(1.14559 0.0230387 0)
(1.15704 0.0256766 0)
(1.16012 0.0261788 0)
(1.16011 0.0261036 0)
(1.16004 0.0269832 0)
(1.16004 0.027079 0)
(1.16021 0.0274395 0)
(1.16005 0.0279628 0)
(1.16023 0.0281037 0)
(1.16 0.0285227 0)
(1.15971 0.0289237 0)
(1.16022 0.0290711 0)
(1.16027 0.029626 0)
(1.1604 0.0297905 0)
(1.16052 0.0300964 0)
(1.16027 0.0305748 0)
(1.16035 0.030649 0)
(1.1606 0.0311563 0)
(1.16063 0.0314057 0)
(1.16103 0.0315317 0)
(1.16122 0.0320412 0)
(1.16087 0.0322755 0)
(0.932711 0.00443228 0)
(0.956716 0.00184681 0)
(0.981877 0.00595126 0)
(1.00802 0.00897167 0)
(1.03478 0.0119862 0)
(1.0617 0.0152516 0)
(1.0883 0.0187675 0)
(1.11379 0.022302 0)
(1.137 0.0255904 0)
(1.15151 0.0279228 0)
(1.15654 0.0296861 0)
(1.15693 0.029409 0)
(1.15683 0.0302371 0)
(1.15663 0.0306181 0)
(1.15709 0.0310189 0)
(1.15682 0.031689 0)
(1.15677 0.0319877 0)
(1.15725 0.0323614 0)
(1.15703 0.0330349 0)
(1.15699 0.0332348 0)
(1.15716 0.0338051 0)
(1.15708 0.0343652 0)
(1.15733 0.0345507 0)
(1.15751 0.0351759 0)
(1.15761 0.0354744 0)
(1.15799 0.035771 0)
(1.15787 0.0364538 0)
(1.15762 0.0367211 0)
(1.15799 0.037058 0)
(0.913025 0.00383955 0)
(0.935269 0.00227508 0)
(0.958588 0.00585813 0)
(0.982833 0.00881625 0)
(1.00772 0.0117333 0)
(1.03293 0.0148237 0)
(1.05812 0.0181212 0)
(1.08284 0.0215723 0)
(1.10657 0.0250813 0)
(1.12862 0.028323 0)
(1.14516 0.031097 0)
(1.15181 0.0330945 0)
(1.15221 0.0331203 0)
(1.15225 0.034033 0)
(1.15191 0.0346772 0)
(1.15233 0.0350677 0)
(1.15277 0.0358233 0)
(1.15235 0.0364669 0)
(1.15247 0.0367435 0)
(1.15267 0.0376068 0)
(1.15258 0.0381227 0)
(1.15307 0.0383297 0)
(1.15358 0.0392579 0)
(1.15387 0.0396977 0)
(1.15368 0.0401979 0)
(1.15326 0.0410439 0)
(1.15344 0.0412497 0)
(1.15436 0.0417666 0)
(1.15502 0.042358 0)
(0.893847 0.00331085 0)
(0.914792 0.00268176 0)
(0.936741 0.00594048 0)
(0.959552 0.00887877 0)
(0.982996 0.0117682 0)
(1.00682 0.0147834 0)
(1.03076 0.0179666 0)
(1.05452 0.0212927 0)
(1.07776 0.0247263 0)
(1.10006 0.0281999 0)
(1.12077 0.0315056 0)
(1.13829 0.0344398 0)
(1.14587 0.0368176 0)
(1.14631 0.0370415 0)
(1.14656 0.038243 0)
(1.14617 0.0388574 0)
(1.14625 0.0395197 0)
(1.14711 0.040201 0)
(1.14724 0.0412714 0)
(1.14728 0.041751 0)
(1.14805 0.0422546 0)
(1.14798 0.0434643 0)
(1.14739 0.0438853 0)
(1.14702 0.0444244 0)
(1.14775 0.0454031 0)
(1.14914 0.0456275 0)
(1.15004 0.0464271 0)
(1.14975 0.0473214 0)
(1.14864 0.0479043 -1.03116e-026)
(0.875075 0.00315062 0)
(0.894947 0.00295436 0)
(0.915806 0.00614313 0)
(0.937493 0.00911716 0)
(0.959808 0.0120328 0)
(0.982537 0.0150451 0)
(1.00545 0.0181986 0)
(1.02832 0.0214758 0)
(1.05089 0.0248524 0)
(1.07285 0.028303 0)
(1.09381 0.0317761 0)
(1.11312 0.0351157 0)
(1.13038 0.0381721 0)
(1.13911 0.040752 0)
(1.13952 0.0412145 0)
(1.1402 0.0425004 0)
(1.14033 0.0432468 0)
(1.13961 0.044258 0)
(1.14016 0.0447946 0)
(1.14104 0.0457571 0)
(1.14056 0.0470782 0)
(1.14056 0.0473453 0)
(1.14203 0.0482048 0)
(1.14339 0.0495035 0)
(1.14336 0.0498062 0)
(1.14242 0.0509191 0)
(1.14168 0.0518341 0)
(1.14189 0.0522238 0)
(1.1442 0.0530509 1.08925e-026)
(0.85651 0.00308434 0)
(0.875477 0.00323819 0)
(0.89541 0.00645699 0)
(0.916164 0.00952632 0)
(0.937557 0.0125322 0)
(0.959397 0.0156165 0)
(0.981486 0.0188238 0)
(1.00362 0.0221401 0)
(1.02559 0.0255447 0)
(1.04717 0.0290176 0)
(1.06809 0.032533 0)
(1.088 0.036038 0)
(1.1064 0.0394019 0)
(1.12294 0.0425327 0)
(1.132 0.0452835 0)
(1.13217 0.0459212 0)
(1.13299 0.04735 0)
(1.13415 0.0481472 0)
(1.13416 0.0493288 0)
(1.13371 0.0505445 0)
(1.13468 0.0508621 0)
(1.13599 0.0524679 0)
(1.13512 0.0535851 0)
(1.13423 0.0541197 0)
(1.13457 0.0553537 0)
(1.13651 0.0562308 0)
(1.13817 0.0571195 0)
(1.13908 0.0582147 0)
(1.13808 0.0591019 1.19143e-026)
(0.837804 0.00301092 0)
(0.855991 0.00359191 0)
(0.875133 0.00689595 0)
(0.89509 0.0101147 0)
(0.915697 0.013275 0)
(0.936782 0.0165036 0)
(0.958167 0.019844 0)
(0.979671 0.023285 0)
(1.00111 0.026809 0)
(1.0223 0.0303993 0)
(1.04304 0.034037 0)
(1.06309 0.0376952 0)
(1.08214 0.0413231 0)
(1.09973 0.0447987 0)
(1.11561 0.0480832 0)
(1.12446 0.0509449 0)
(1.12427 0.0518248 0)
(1.12524 0.0534274 0)
(1.12585 0.0543737 0)
(1.12691 0.0556597 0)
(1.12632 0.0573904 0)
(1.12612 0.0580919 0)
(1.12747 0.0587952 0)
(1.13003 0.0606998 0)
(1.13072 0.061576 0)
(1.13018 0.0624146 0)
(1.12918 0.0636331 0)
(1.12953 0.0647758 0)
(1.13191 0.0653709 -1.25995e-026)
(0.81878 0.00300039 0)
(0.836249 0.00397472 0)
(0.854666 0.00742404 0)
(0.873911 0.0108347 0)
(0.893822 0.0141936 0)
(0.914234 0.0176138 0)
(0.934989 0.0211382 0)
(0.955924 0.0247577 0)
(0.976874 0.0284565 0)
(0.997677 0.0322207 0)
(1.01816 0.0360349 0)
(1.03815 0.0398798 0)
(1.05742 0.0437277 0)
(1.0757 0.0475256 0)
(1.09256 0.0511601 0)
(1.10776 0.0546239 0)
(1.11632 0.0575947 0)
(1.11593 0.0586061 0)
(1.11637 0.0604149 0)
(1.1171 0.0615935 0)
(1.11903 0.0623709 0)
(1.12093 0.0644165 0)
(1.12049 0.065571 0)
(1.11904 0.0666371 0)
(1.11907 0.067997 0)
(1.12116 0.069298 0)
(1.12451 0.0705368 0)
(1.12544 0.0718889 0)
(1.1243 0.0729408 -1.38755e-026)
(0.799374 0.00303234 0)
(0.816188 0.00437871 0)
(0.833945 0.00801887 0)
(0.852532 0.0116499 0)
(0.871816 0.015237 0)
(0.891635 0.0188815 0)
(0.911829 0.022622 0)
(0.932254 0.026452 0)
(0.95276 0.0303566 0)
(0.973198 0.0343233 0)
(0.993422 0.0383386 0)
(1.01328 0.0423863 0)
(1.0326 0.0464459 0)
(1.05119 0.0504877 0)
(1.06878 0.0544546 0)
(1.085 0.0582404 0)
(1.09943 0.0618972 0)
(1.10696 0.0649648 0)
(1.10714 0.0660717 0)
(1.10863 0.0677164 0)
(1.10894 0.0695789 0)
(1.10828 0.070857 0)
(1.10905 0.0722612 0)
(1.11263 0.0742372 0)
(1.11431 0.0755648 0)
(1.11378 0.0765165 0)
(1.1126 0.0779747 0)
(1.1131 0.0791919 0)
(1.11622 0.0803719 1.46749e-026)
(0.779511 0.00310741 0)
(0.795713 0.00482187 0)
(0.812865 0.00870324 0)
(0.830852 0.012596 0)
(0.849553 0.0164494 0)
(0.868834 0.0203605 0)
(0.888534 0.0243643 0)
(0.908507 0.0284522 0)
(0.928618 0.0326117 0)
(0.948733 0.0368307 0)
(0.968718 0.0410971 0)
(0.988438 0.0453966 0)
(1.00775 0.0497124 0)
(1.02651 0.0540234 0)
(1.04451 0.0582974 0)
(1.06153 0.0624712 0)
(1.07723 0.0664521 0)
(1.09107 0.0703898 0)
(1.09777 0.073325 0)
(1.09802 0.0750306 0)
(1.09813 0.0767165 0)
(1.10092 0.0788493 0)
(1.10169 0.0803541 0)
(1.10043 0.0816118 0)
(1.1011 0.0836846 0)
(1.10447 0.0851129 0)
(1.10789 0.0873394 0)
(1.10915 0.0892243 0)
(1.10749 0.0901891 0)
(0.759087 0.00321661 0)
(0.774707 0.00530246 0)
(0.791287 0.00946716 0)
(0.808718 0.0136603 0)
(0.826877 0.0178171 0)
(0.845643 0.0220307 0)
(0.864884 0.026338 0)
(0.884446 0.0307278 0)
(0.904195 0.0351857 0)
(0.924008 0.0397018 0)
(0.943763 0.0442642 0)
(0.963336 0.04886 0)
(0.982607 0.053474 0)
(1.00144 0.0580887 0)
(1.0197 0.0626818 0)
(1.0372 0.0672173 0)
(1.05373 0.0716218 0)
(1.06907 0.0758633 0)
(1.08218 0.0799845 0)
(1.08695 0.08288 0)
(1.0888 0.0851609 0)
(1.08893 0.0864158 0)
(1.09056 0.0884513 0)
(1.09474 0.0908912 0)
(1.09551 0.0922938 0)
(1.09385 0.0937433 0)
(1.09349 0.0952176 0)
(1.0951 0.0970479 0)
(1.10042 0.0991339 0)
(0.738095 0.00335324 0)
(0.753154 0.00581148 0)
(0.769186 0.0102922 0)
(0.78609 0.0148141 0)
(0.803748 0.0193044 0)
(0.822034 0.0238494 0)
(0.840833 0.0284868 0)
(0.860016 0.0332088 0)
(0.879438 0.0379974 0)
(0.898978 0.0428406 0)
(0.918524 0.0477286 0)
(0.937963 0.0526484 0)
(0.957183 0.0575855 0)
(0.976071 0.0625237 0)
(0.994505 0.0674442 0)
(1.01235 0.072323 0)
(1.02944 0.0771179 0)
(1.0456 0.0817501 0)
(1.0607 0.0862402 0)
(1.0729 0.0905755 0)
(1.07707 0.0928183 0)
(1.08038 0.0961119 0)
(1.0806 0.0971215 0)
(1.07993 0.0993421 0)
(1.08179 0.101838 0)
(1.08621 0.103943 0)
(1.08947 0.106962 0)
(1.08967 0.108049 0)
(1.08861 0.109196 0)
(0.71654 0.00351863 4.22277e-026)
(0.731052 0.0063491 0)
(0.746555 0.011177 0)
(0.762952 0.0160562 0)
(0.78013 0.0209077 0)
(0.797972 0.0258157 0)
(0.816354 0.0308138 0)
(0.835166 0.0358972 0)
(0.854287 0.0410509 0)
(0.873579 0.0462586 0)
(0.892936 0.0515094 0)
(0.912252 0.0567917 0)
(0.931425 0.0620916 0)
(0.950353 0.0673936 0)
(0.968928 0.072681 0)
(0.987037 0.0779345 0)
(1.00455 0.0831294 0)
(1.02132 0.0882202 0)
(1.0372 0.0931119 0)
(1.05231 0.0979616 0)
(1.064 0.102424 0)
(1.06713 0.104932 0)
(1.06833 0.107935 0)
(1.07277 0.110332 0)
(1.07228 0.112609 0)
(1.07239 0.113775 0)
(1.07421 0.116378 0)
(1.07779 0.118723 0)
(1.08408 0.122609 0)
(0.694447 0.0037092 1.42243e-027)
(0.708422 0.00690796 0)
(0.723408 0.0121081 0)
(0.739311 0.0173674 0)
(0.756025 0.0226022 0)
(0.773438 0.0278957 0)
(0.791431 0.0332814 0)
(0.809887 0.0387502 0)
(0.828703 0.0442906 0)
(0.847761 0.0498887 0)
(0.866939 0.0555292 0)
(0.88614 0.0612007 0)
(0.905265 0.0668892 0)
(0.924218 0.0725796 0)
(0.942902 0.0782556 0)
(0.961218 0.0838994 0)
(0.979059 0.0894911 0)
(0.996304 0.0950032 0)
(1.01282 0.10038 0)
(1.02853 0.105538 0)
(1.04364 0.110654 0)
(1.05352 0.115629 0)
(1.05642 0.117452 0)
(1.05727 0.120685 0)
(1.06147 0.123047 0)
(1.06542 0.126136 0)
(1.06658 0.12854 0)
(1.06599 0.129258 0)
(1.06696 0.131127 0)
(0.671874 0.00392499 -4.88044e-026)
(0.685319 0.00748542 0)
(0.699796 0.0130799 0)
(0.715215 0.0187398 0)
(0.731478 0.0243774 0)
(0.748474 0.0300765 0)
(0.766092 0.0358704 0)
(0.784219 0.0417492 0)
(0.802744 0.0476979 0)
(0.821571 0.0537058 0)
(0.840585 0.0597584 0)
(0.859678 0.0658392 0)
(0.878764 0.0719367 0)
(0.897749 0.0780344 0)
(0.916542 0.0841156 0)
(0.935053 0.0901624 0)
(0.953187 0.0961556 0)
(0.970842 0.102073 0)
(0.98791 0.107881 0)
(1.0043 0.113508 0)
(1.02006 0.118959 0)
(1.03465 0.124402 0)
(1.04306 0.1287 0)
(1.0478 0.132146 0)
(1.04736 0.133869 0)
(1.04963 0.136032 0)
(1.05512 0.140059 0)
(1.05871 0.143954 0)
(1.062 0.146819 0)
(0.648877 0.00416612 0)
(0.661797 0.00808104 0)
(0.67577 0.0140914 0)
(0.690712 0.0201721 0)
(0.70653 0.0262321 0)
(0.723119 0.0323574 0)
(0.740371 0.0385818 0)
(0.758179 0.0448949 0)
(0.776433 0.0512796 0)
(0.795035 0.0577244 0)
(0.81389 0.0642157 0)
(0.83289 0.0707383 0)
(0.851944 0.0772757 0)
(0.870965 0.0838132 0)
(0.889869 0.0903338 0)
(0.908571 0.0968197 0)
(0.926985 0.103252 0)
(0.945021 0.10961 0)
(0.962585 0.11587 0)
(0.979589 0.121992 0)
(0.995979 0.127886 0)
(1.01202 0.133845 0)
(1.02591 0.138943 0)
(1.03282 0.143859 0)
(1.03909 0.147519 0)
(1.03907 0.150092 0)
(1.03933 0.152588 0)
(1.04246 0.154055 0)
(1.04829 0.158515 0)
(0.625515 0.00443183 -5.98539e-026)
(0.637911 0.00869425 0)
(0.651384 0.015141 0)
(0.665853 0.0216618 0)
(0.681228 0.0281631 0)
(0.697411 0.0347344 0)
(0.714299 0.0414106 0)
(0.731788 0.0481808 0)
(0.749775 0.0550277 0)
(0.768158 0.0619357 0)
(0.786849 0.0688945 0)
(0.805756 0.0758886 0)
(0.824777 0.082899 0)
(0.843833 0.0899113 0)
(0.86284 0.0969075 0)
(0.88172 0.103869 0)
(0.900391 0.110778 0)
(0.918773 0.117614 0)
(0.936782 0.124355 0)
(0.954333 0.130974 0)
(0.971354 0.13741 0)
(0.987871 0.143629 0)
(1.00457 0.150073 0)
(1.01635 0.15491 0)
(1.02191 0.159771 0)
(1.0279 0.162146 0)
(1.03207 0.167508 0)
(1.03216 0.169796 0)
(1.03314 0.171452 5.58227e-026)
(0.601849 0.00472069 -1.78451e-027)
(0.613724 0.00932481 0)
(0.626696 0.0162274 0)
(0.640691 0.0232069 0)
(0.655623 0.0301674 0)
(0.671399 0.037204 0)
(0.687922 0.0443527 0)
(0.705091 0.0516021 0)
(0.722806 0.0589342 0)
(0.740972 0.0663335 0)
(0.759495 0.0737862 0)
(0.778291 0.0812773 0)
(0.797272 0.0887919 0)
(0.816352 0.0963103 0)
(0.835453 0.103816 0)
(0.854497 0.111289 0)
(0.873408 0.118711 0)
(0.89211 0.126061 0)
(0.910525 0.133319 0)
(0.928574 0.140464 0)
(0.946184 0.147458 0)
(0.963324 0.154228 0)
(0.980484 0.160805 0)
(0.99694 0.168004 0)
(1.00708 0.172292 0)
(1.01134 0.177662 0)
(1.01646 0.179359 0)
(1.02371 0.184564 0)
(1.02854 0.18949 1.09786e-027)
(0.57794 0.00503022 6.90819e-026)
(0.589294 0.00997188 0)
(0.601766 0.0173485 0)
(0.615286 0.0248037 0)
(0.629771 0.0322404 0)
(0.645135 0.0397601 0)
(0.661284 0.0474009 0)
(0.678124 0.055151 0)
(0.695561 0.0629921 0)
(0.713499 0.0709082 0)
(0.731849 0.0788835 0)
(0.750528 0.0869044 0)
(0.769452 0.0949529 0)
(0.788538 0.10301 0)
(0.807711 0.11106 0)
(0.826897 0.119082 0)
(0.846021 0.127058 0)
(0.86501 0.134965 0)
(0.883788 0.142785 0)
(0.902281 0.150497 0)
(0.920412 0.158079 0)
(0.93813 0.165482 0)
(0.955592 0.172727 0)
(0.973266 0.179409 0)
(0.989658 0.187727 0)
(0.998052 0.191028 0)
(1.0022 0.196554 0)
(1.0063 0.198162 0)
(1.01281 0.2025 -6.40125e-026)
(0.553851 0.00535776 0)
(0.564686 0.0106346 0)
(0.576657 0.018502 0)
(0.589698 0.0264484 0)
(0.603731 0.0343764 0)
(0.618675 0.0423953 0)
(0.634442 0.0505457 0)
(0.650941 0.0588153 0)
(0.668083 0.0671852 0)
(0.685778 0.0756393 0)
(0.703939 0.0841618 0)
(0.722484 0.092737 0)
(0.741335 0.101347 0)
(0.760412 0.109973 0)
(0.779639 0.118596 0)
(0.798943 0.127195 0)
(0.818255 0.13575 0)
(0.837503 0.144239 0)
(0.856614 0.152641 0)
(0.875515 0.160931 0)
(0.894131 0.169085 0)
(0.912397 0.177072 0)
(0.930316 0.184889 0)
(0.948104 0.192487 0)
(0.966119 0.199208 0)
(0.983287 0.208515 0)
(0.989337 0.210343 0)
(0.995481 0.216297 0)
(0.997396 0.219579 0)
(0.529647 0.00570065 0)
(0.539963 0.0113121 0)
(0.551433 0.0196856 0)
(0.563991 0.0281372 0)
(0.577567 0.0365705 0)
(0.592082 0.0451037 0)
(0.607455 0.0537797 0)
(0.623601 0.0625862 0)
(0.640434 0.0715036 0)
(0.65787 0.0805158 0)
(0.675824 0.0896068 0)
(0.694216 0.0987588 0)
(0.712973 0.107955 0)
(0.732019 0.117175 0)
(0.75128 0.126399 0)
(0.770687 0.135605 0)
(0.790169 0.144772 0)
(0.809659 0.153876 0)
(0.829089 0.162894 0)
(0.848389 0.171802 0)
(0.867491 0.180571 0)
(0.886332 0.18917 0)
(0.904883 0.197575 0)
(0.923216 0.205816 0)
(0.941057 0.213782 0)
(0.960629 0.220862 0)
(0.975883 0.230118 0)
(0.982613 0.232194 0)
(0.989338 0.237432 7.54499e-026)
(0.50539 0.00605588 0)
(0.515191 0.0120032 0)
(0.526159 0.0208965 0)
(0.538231 0.0298654 0)
(0.551342 0.0388161 0)
(0.56542 0.0478766 0)
(0.580388 0.0570926 0)
(0.596166 0.0664513 0)
(0.612674 0.075933 0)
(0.629831 0.0855213 0)
(0.647558 0.0952001 0)
(0.66578 0.104951 0)
(0.684421 0.114756 0)
(0.703411 0.124594 0)
(0.722682 0.134445 0)
(0.742164 0.144286 0)
(0.761791 0.154095 0)
(0.781497 0.163847 0)
(0.801218 0.173518 0)
(0.820888 0.183082 0)
(0.840444 0.192513 0)
(0.859827 0.201782 0)
(0.879006 0.210846 0)
(0.89801 0.219718 0)
(0.916875 0.228221 0)
(0.936373 0.237099 0)
(0.95383 0.243902 0)
(0.968351 0.252077 0)
(0.975632 0.256797 1.04919e-027)
(0.481144 0.00642068 0)
(0.490433 0.0127069 0)
(0.500899 0.0221322 0)
(0.512483 0.0316288 0)
(0.525123 0.0411076 0)
(0.538755 0.0507072 0)
(0.553306 0.0604759 0)
(0.568702 0.0704007 0)
(0.584867 0.0804616 0)
(0.601726 0.0906424 0)
(0.619205 0.100926 0)
(0.637232 0.111295 0)
(0.655736 0.12173 0)
(0.674649 0.132209 0)
(0.693901 0.142709 0)
(0.713432 0.153208 0)
(0.733176 0.163682 0)
(0.75307 0.174104 0)
(0.773051 0.18445 0)
(0.793055 0.194692 0)
(0.813023 0.204803 0)
(0.832898 0.214756 0)
(0.852639 0.224518 0)
(0.872261 0.234066 0)
(0.891897 0.243275 0)
(0.911831 0.252306 0)
(0.932562 0.262345 0)
(0.947842 0.267217 0)
(0.961541 0.276052 -1.72861e-025)
(0.45697 0.00679224 0)
(0.465752 0.0134221 0)
(0.475719 0.0233902 0)
(0.486812 0.0334234 0)
(0.498976 0.0434397 0)
(0.512152 0.0535889 0)
(0.526274 0.063922 0)
(0.541274 0.0744256 0)
(0.557079 0.0850799 0)
(0.573622 0.0958686 0)
(0.590831 0.106775 0)
(0.608639 0.11778 0)
(0.626981 0.128865 0)
(0.645792 0.140005 0)
(0.665007 0.151178 0)
(0.684562 0.162359 0)
(0.704399 0.173521 0)
(0.724456 0.184638 0)
(0.744673 0.195683 0)
(0.76499 0.206625 0)
(0.785345 0.217435 0)
(0.805683 0.228085 0)
(0.825954 0.238546 0)
(0.846147 0.248797 0)
(0.86634 0.258771 0)
(0.886474 0.268409 0)
(0.908802 0.278436 0)
(0.928939 0.287904 0)
(0.944772 0.293476 -8.83971e-028)
(0.432927 0.00716767 0)
(0.44121 0.0141477 0)
(0.45068 0.0246676 0)
(0.461281 0.0352444 0)
(0.472964 0.045806 0)
(0.485677 0.0565139 0)
(0.499358 0.0674217 0)
(0.513945 0.0785158 0)
(0.529374 0.0897766 0)
(0.545579 0.101188 0)
(0.562497 0.112733 0)
(0.580064 0.124393 0)
(0.598219 0.136146 0)
(0.616901 0.14797 0)
(0.636052 0.15984 0)
(0.65561 0.171728 0)
(0.675517 0.183607 0)
(0.695717 0.195447 0)
(0.71615 0.207218 0)
(0.736759 0.218889 0)
(0.757485 0.230427 0)
(0.77827 0.241799 0)
(0.799061 0.252975 0)
(0.819821 0.26393 0)
(0.840556 0.27464 0)
(0.861145 0.284989 0)
(0.882794 0.295449 0)
(0.906783 0.305396 0)
(0.927447 0.315515 9.85289e-026)
(0.409075 0.00754381 0)
(0.416867 0.0148818 0)
(0.425843 0.0259602 0)
(0.435952 0.0370855 0)
(0.44715 0.0481984 0)
(0.45939 0.0594723 0)
(0.472619 0.0709633 0)
(0.486779 0.0826579 0)
(0.501812 0.0945369 0)
(0.517659 0.106585 0)
(0.534262 0.118784 0)
(0.551564 0.131117 0)
(0.569506 0.14356 0)
(0.588035 0.156089 0)
(0.607093 0.168679 0)
(0.626627 0.181301 0)
(0.646581 0.193924 0)
(0.6669 0.206517 0)
(0.68753 0.219046 0)
(0.708414 0.231476 0)
(0.729496 0.243771 0)
(0.750718 0.255896 0)
(0.772025 0.267812 0)
(0.793367 0.279487 0)
(0.814708 0.290898 0)
(0.835945 0.301962 0)
(0.857556 0.312814 0)
(0.880722 0.32364 0)
(0.906863 0.334129 1.05609e-025)
(0.38547 0.00791734 0)
(0.39278 0.0156219 0)
(0.40127 0.0272634 0)
(0.410887 0.0389395 0)
(0.421596 0.0506072 0)
(0.433355 0.0624522 0)
(0.446119 0.0745329 0)
(0.459836 0.0868361 0)
(0.474455 0.0993432 0)
(0.489922 0.112039 0)
(0.506186 0.124908 0)
(0.523196 0.13793 0)
(0.540899 0.151083 0)
(0.559245 0.164341 0)
(0.578183 0.177677 0)
(0.597664 0.19106 0)
(0.617639 0.204457 0)
(0.638055 0.217835 0)
(0.658861 0.231154 0)
(0.680005 0.244378 0)
(0.701431 0.257464 0)
(0.723084 0.270373 0)
(0.744907 0.283062 0)
(0.766846 0.29549 0)
(0.788849 0.307622 0)
(0.81084 0.319398 0)
(0.832964 0.330822 0)
(0.855775 0.341964 0)
(0.881159 0.353529 -1.11663e-025)
(0.362167 0.00828477 0)
(0.369009 0.0163652 0)
(0.377019 0.0285713 0)
(0.386146 0.0407976 0)
(0.396361 0.053021 0)
(0.407632 0.0654399 0)
(0.419919 0.0781146 0)
(0.433177 0.0910322 0)
(0.447362 0.104176 0)
(0.462426 0.117531 0)
(0.478325 0.131082 0)
(0.495013 0.14481 0)
(0.512446 0.158693 0)
(0.530581 0.172705 0)
(0.549371 0.186815 0)
(0.568769 0.200988 0)
(0.588736 0.215193 0)
(0.609224 0.229389 0)
(0.630186 0.243537 0)
(0.651572 0.257591 0)
(0.673332 0.271507 0)
(0.695412 0.285237 0)
(0.717756 0.298733 0)
(0.740307 0.311945 0)
(0.76301 0.324829 0)
(0.785798 0.337329 0)
(0.808694 0.349406 0)
(0.831884 0.361037 0)
(0.856372 0.372587 1.18357e-025)
(0.339223 0.00864252 0)
(0.345609 0.0171081 0)
(0.353148 0.0298771 0)
(0.361787 0.0426498 0)
(0.371507 0.055427 0)
(0.382281 0.0684197 0)
(0.394078 0.08169 0)
(0.406861 0.0952258 0)
(0.42059 0.109012 0)
(0.435227 0.123035 0)
(0.450732 0.137282 0)
(0.467069 0.151733 0)
(0.484198 0.166366 0)
(0.502084 0.181154 0)
(0.520693 0.196065 0)
(0.53998 0.211064 0)
(0.559909 0.226114 0)
(0.580441 0.241171 0)
(0.601535 0.25619 0)
(0.623148 0.271122 0)
(0.645232 0.285914 0)
(0.667737 0.300511 0)
(0.69061 0.314858 0)
(0.713792 0.328895 0)
(0.737227 0.342568 0)
(0.760852 0.35582 0)
(0.784637 0.368589 0)
(0.80859 0.380884 0)
(0.833233 0.392523 -2.49821e-025)
(0.31669 0.00898681 0)
(0.322636 0.0178458 0)
(0.329713 0.0311723 0)
(0.337868 0.0444836 0)
(0.347089 0.0578093 0)
(0.35736 0.0713726 0)
(0.368655 0.0852369 0)
(0.380944 0.0993916 0)
(0.394196 0.113824 0)
(0.408378 0.128523 0)
(0.42346 0.143476 0)
(0.439411 0.158665 0)
(0.456202 0.174068 0)
(0.473804 0.189656 0)
(0.49219 0.205398 0)
(0.511326 0.221261 0)
(0.531182 0.237198 0)
(0.551728 0.253163 0)
(0.572928 0.269107 0)
(0.594748 0.284973 0)
(0.617145 0.3007 0)
(0.640074 0.316225 0)
(0.663484 0.331482 0)
(0.68732 0.346401 0)
(0.711522 0.360915 0)
(0.736026 0.374956 0)
(0.760775 0.388459 0)
(0.785724 0.401394 0)
(0.810953 0.41368 7.56627e-028)
(0.294622 0.00931378 0)
(0.300146 0.0185725 0)
(0.306771 0.0324465 0)
(0.314446 0.0462843 0)
(0.323166 0.060149 0)
(0.332926 0.0742756 0)
(0.343706 0.0887286 0)
(0.355483 0.103499 0)
(0.368233 0.118577 0)
(0.381933 0.133956 0)
(0.396558 0.149623 0)
(0.412088 0.165563 0)
(0.4285 0.181755 0)
(0.445774 0.19817 0)
(0.463893 0.214781 0)
(0.482834 0.231545 0)
(0.502575 0.248415 0)
(0.523095 0.265345 0)
(0.544369 0.282275 0)
(0.56637 0.299142 0)
(0.589064 0.315878 0)
(0.612413 0.332407 0)
(0.636371 0.34865 0)
(0.660885 0.364525 0)
(0.685893 0.379948 0)
(0.711329 0.394837 0)
(0.737121 0.409114 0)
(0.763194 0.42271 0)
(0.789464 0.435615 1.21903e-027)
(0.273073 0.0096194 0)
(0.278191 0.0192808 0)
(0.284377 0.033687 0)
(0.291576 0.048034 0)
(0.299795 0.0624235 0)
(0.309035 0.0771016 0)
(0.319286 0.0921335 0)
(0.330532 0.107513 0)
(0.342757 0.123234 0)
(0.355944 0.139292 0)
(0.370078 0.15568 0)
(0.385145 0.172382 0)
(0.401132 0.189381 0)
(0.41803 0.206649 0)
(0.43583 0.224159 0)
(0.454528 0.241864 0)
(0.474103 0.25972 0)
(0.494549 0.277674 0)
(0.515853 0.295661 0)
(0.538 0.31361 0)
(0.560967 0.331443 0)
(0.584726 0.34907 0)
(0.609238 0.366397 0)
(0.634455 0.383324 0)
(0.660316 0.399748 0)
(0.68675 0.415567 0)
(0.713675 0.430683 0)
(0.740995 0.444998 0)
(0.768598 0.458485 1.45234e-025)
(0.252097 0.00989951 0)
(0.256828 0.0199614 0)
(0.262587 0.0348785 0)
(0.269314 0.0497114 0)
(0.277029 0.0646059 0)
(0.285742 0.0798184 0)
(0.295451 0.0954146 0)
(0.306147 0.111391 0)
(0.31782 0.127747 0)
(0.330462 0.144481 0)
(0.344067 0.16159 0)
(0.358628 0.179062 0)
(0.374143 0.196881 0)
(0.390612 0.215024 0)
(0.408037 0.233458 0)
(0.426426 0.252148 0)
(0.445776 0.271049 0)
(0.466089 0.290093 0)
(0.48737 0.309217 0)
(0.509616 0.328341 0)
(0.53282 0.347373 0)
(0.556968 0.366211 0)
(0.582033 0.384743 0)
(0.607974 0.402845 0)
(0.634736 0.420391 0)
(0.662242 0.437251 0)
(0.690404 0.453299 0)
(0.719106 0.468411 0)
(0.748221 0.48253 -1.49347e-025)
(0.231749 0.0101498 0)
(0.236111 0.0206035 0)
(0.241454 0.0360032 0)
(0.247714 0.0512921 0)
(0.254923 0.0666659 0)
(0.263102 0.08239 0)
(0.272255 0.0985298 0)
(0.28238 0.115086 0)
(0.293476 0.132062 0)
(0.305541 0.149463 0)
(0.318578 0.167288 0)
(0.332588 0.185531 0)
(0.347579 0.204179 0)
(0.36356 0.223213 0)
(0.380544 0.242603 0)
(0.398553 0.262323 0)
(0.417607 0.282316 0)
(0.437716 0.302519 0)
(0.458902 0.322865 0)
(0.481185 0.343266 0)
(0.504576 0.363618 0)
(0.529079 0.383802 0)
(0.554683 0.403684 0)
(0.581363 0.423115 0)
(0.60907 0.441936 0)
(0.63773 0.459981 0)
(0.667243 0.477089 0)
(0.697478 0.493097 0)
(0.728282 0.507911 1.57845e-025)
(0.212083 0.0103658 0)
(0.216094 0.0211944 0)
(0.221033 0.0370413 0)
(0.22683 0.0527494 0)
(0.233531 0.0685704 0)
(0.241168 0.0847769 0)
(0.24975 0.101434 0)
(0.259285 0.118546 0)
(0.269777 0.136123 0)
(0.281234 0.154174 0)
(0.293663 0.172703 0)
(0.307076 0.191711 0)
(0.321488 0.21119 0)
(0.336919 0.231125 0)
(0.353392 0.251495 0)
(0.370941 0.272268 0)
(0.389614 0.2934 0)
(0.409432 0.314839 0)
(0.430439 0.336497 0)
(0.452677 0.358286 0)
(0.476184 0.380092 0)
(0.500986 0.401779 0)
(0.527101 0.423186 0)
(0.55452 0.444133 0)
(0.583212 0.464422 0)
(0.613109 0.483841 0)
(0.644102 0.502177 0)
(0.676043 0.51922 0)
(0.708743 0.534811 0)
(0.193154 0.0105435 0)
(0.196831 0.0217207 0)
(0.201375 0.0379721 0)
(0.206712 0.0540559 0)
(0.212902 0.0702859 0)
(0.219988 0.0869398 0)
(0.227988 0.104081 0)
(0.236913 0.121719 0)
(0.246778 0.139869 0)
(0.257595 0.158545 0)
(0.26938 0.177759 0)
(0.282149 0.197516 0)
(0.295926 0.217815 0)
(0.310742 0.23865 0)
(0.32663 0.260007 0)
(0.343637 0.281858 0)
(0.361822 0.304177 0)
(0.381253 0.326905 0)
(0.401974 0.349962 0)
(0.424063 0.373255 0)
(0.447588 0.396661 0)
(0.472611 0.420026 0)
(0.49918 0.443164 0)
(0.527321 0.465857 0)
(0.557026 0.487857 0)
(0.58824 0.508893 0)
(0.620856 0.528683 0)
(0.654702 0.546947 0)
(0.689546 0.563447 1.6413e-025)
(0.175018 0.0106796 0)
(0.178371 0.0221687 0)
(0.18253 0.0387758 0)
(0.187407 0.0551859 0)
(0.193084 0.0717812 0)
(0.199611 0.0888416 0)
(0.207015 0.106428 0)
(0.215316 0.124554 0)
(0.224532 0.143241 0)
(0.234682 0.16251 0)
(0.245786 0.182376 0)
(0.257868 0.202853 0)
(0.270958 0.22395 0)
(0.285092 0.245668 0)
(0.300318 0.268006 0)
(0.316692 0.290948 0)
(0.334286 0.314468 0)
(0.353199 0.338529 0)
(0.373513 0.363069 0)
(0.395325 0.387977 0)
(0.418744 0.413131 0)
(0.443873 0.438363 0)
(0.470809 0.463463 0)
(0.499621 0.488171 0)
(0.530341 0.512181 0)
(0.562946 0.535146 0)
(0.597335 0.556691 0)
(0.633316 0.576437 0)
(0.670605 0.594038 -5.58692e-027)
(0.157724 0.0107725 0)
(0.160762 0.0225258 0)
(0.164539 0.0394359 0)
(0.168957 0.056118 0)
(0.174116 0.0730298 0)
(0.180079 0.0904499 0)
(0.186879 0.108436 0)
(0.194541 0.127005 0)
(0.203091 0.146184 0)
(0.212552 0.165998 0)
(0.222947 0.186472 0)
(0.234303 0.207625 0)
(0.246654 0.229476 0)
(0.260044 0.252042 0)
(0.274528 0.275333 0)
(0.290175 0.29935 0)
(0.307073 0.324079 0)
(0.325332 0.349503 0)
(0.345089 0.375567 0)
(0.366468 0.402183 0)
(0.38962 0.429224 0)
(0.414703 0.456515 0)
(0.441872 0.483824 0)
(0.471261 0.510852 0)
(0.502963 0.537226 0)
(0.537005 0.562509 0)