/*--------------------------------*- C++ -*----------------------------------*\
| =========                 |                                                 |
| \\      /  F ield         | OpenFOAM: The Open Source CFD Toolbox           |
|  \\    /   O peration     | Version:  5.x                                   |
|   \\  /    A nd           | Web:      www.OpenFOAM.org                      |
|    \\/     M anipulation  |                                                 |
\*---------------------------------------------------------------------------*/
/*   Windows 32 and 64 bit porting by blueCAPE: http://www.bluecape.com.pt   *\
|  Based on Windows porting (2.0.x v4) by Symscape: http://www.symscape.com   |
\*---------------------------------------------------------------------------*/
FoamFile
{
    version     2.0;
    format      ascii;
    class       volScalarField;
    location    "50";
    object      epsilon;
}
// * * * * * * * * * * * * * * * * * * * * * * * * * * * * * * * * * * * * * //

dimensions      [0 2 -3 0 0 0 0];

internalField   nonuniform List<scalar> 
43900
(
0.00155316
0.00151971
0.00151975
0.00151966
0.00151967
0.00151967
0.00151967
0.00151967
0.00151967
0.00151967
0.00151967
0.00151967
0.00151967
0.00151967
0.00151968
0.00151968
0.00151968
0.00151968
0.00151968
0.00151968
0.00151968
0.00151968
0.00151968
0.00151968
0.00151968
0.00151968
0.00151968
0.00151968
0.00151968
9.78077e-005
3.18612e-005
3.15964e-005
3.27363e-005
3.27551e-005
3.27563e-005
3.2757e-005
3.27586e-005
3.276e-005
3.27611e-005
3.27621e-005
3.27632e-005
3.27641e-005
3.27651e-005
3.2766e-005
3.27669e-005
3.27678e-005
3.27686e-005
3.27693e-005
3.27701e-005
3.27708e-005
3.27715e-005
3.27722e-005
3.27728e-005
3.27735e-005
3.27741e-005
3.27747e-005
3.27752e-005
3.27756e-005
0.0164281
0.000530872
7.30218e-006
1.5004e-006
1.44664e-006
1.44607e-006
1.44651e-006
1.44659e-006
1.44677e-006
1.44691e-006
1.44704e-006
1.44717e-006
1.44729e-006
1.44739e-006
1.44749e-006
1.44759e-006
1.44768e-006
1.44776e-006
1.44783e-006
1.4479e-006
1.44797e-006
1.44803e-006
1.44809e-006
1.44814e-006
1.4482e-006
1.44823e-006
1.44828e-006
1.44832e-006
1.44836e-006
0.0813311
0.0113717
0.000507714
5.20899e-006
6.12971e-007
5.84555e-007
5.84495e-007
5.84546e-007
5.84601e-007
5.84648e-007
5.84688e-007
5.8472e-007
5.84747e-007
5.84771e-007
5.84787e-007
5.84797e-007
5.84804e-007
5.84804e-007
5.848e-007
5.84788e-007
5.84775e-007
5.84752e-007
5.84729e-007
5.84699e-007
5.84665e-007
5.8461e-007
5.84557e-007
5.84499e-007
5.84446e-007
0.123976
0.0321979
0.004003
9.55737e-005
1.61557e-006
1.21505e-006
1.21399e-006
1.21409e-006
1.21427e-006
1.2144e-006
1.21452e-006
1.21463e-006
1.21471e-006
1.21479e-006
1.21484e-006
1.21488e-006
1.2149e-006
1.2149e-006
1.21489e-006
1.21487e-006
1.21482e-006
1.21478e-006
1.21471e-006
1.21462e-006
1.21451e-006
1.21436e-006
1.2142e-006
1.21402e-006
1.21388e-006
0.136848
0.0404851
0.00718684
0.000308583
4.39516e-006
3.02487e-006
3.02192e-006
3.02203e-006
3.02227e-006
3.02245e-006
3.0226e-006
3.02273e-006
3.02284e-006
3.02293e-006
3.02297e-006
3.02299e-006
3.023e-006
3.02299e-006
3.02295e-006
3.02287e-006
3.02277e-006
3.02271e-006
3.02258e-006
3.02241e-006
3.02223e-006
3.02199e-006
3.02173e-006
3.02144e-006
3.02123e-006
0.139875
0.0429211
0.00837286
0.000431596
6.30591e-006
4.15094e-006
4.14629e-006
4.1463e-006
4.14636e-006
4.14641e-006
4.14643e-006
4.14644e-006
4.14645e-006
4.14644e-006
4.14643e-006
4.14638e-006
4.14636e-006
4.1463e-006
4.14623e-006
4.14614e-006
4.14607e-006
4.14599e-006
4.1459e-006
4.14576e-006
4.14565e-006
4.1455e-006
4.14534e-006
4.14516e-006
4.145e-006
0.138427
0.0427786
0.00849721
0.000455636
7.00856e-006
4.58571e-006
4.58011e-006
4.58006e-006
4.58009e-006
4.58007e-006
4.58007e-006
4.58006e-006
4.58005e-006
4.58e-006
4.57998e-006
4.57995e-006
4.57991e-006
4.57987e-006
4.57983e-006
4.57978e-006
4.57971e-006
4.57967e-006
4.57962e-006
4.57954e-006
4.57947e-006
4.57939e-006
4.57929e-006
4.5792e-006
4.5791e-006
0.135679
0.042035
0.00837321
0.000448707
7.09338e-006
4.73079e-006
4.72522e-006
4.72518e-006
4.72518e-006
4.72517e-006
4.72516e-006
4.72516e-006
4.72513e-006
4.72511e-006
4.7251e-006
4.7251e-006
4.72505e-006
4.72504e-006
4.72501e-006
4.72499e-006
4.72495e-006
4.72493e-006
4.7249e-006
4.72487e-006
4.72483e-006
4.72478e-006
4.72474e-006
4.72472e-006
4.72468e-006
0.13278
0.0409031
0.00805038
0.000422619
6.98919e-006
4.77429e-006
4.76869e-006
4.7687e-006
4.76866e-006
4.76869e-006
4.76864e-006
4.76863e-006
4.76862e-006
4.76865e-006
4.7686e-006
4.76862e-006
4.76861e-006
4.76858e-006
4.76855e-006
4.76856e-006
4.76855e-006
4.76854e-006
4.76849e-006
4.7685e-006
4.76849e-006
4.76848e-006
4.76847e-006
4.76842e-006
4.76843e-006
0.129752
0.039766
0.00770087
0.000392332
6.89641e-006
4.78693e-006
4.78079e-006
4.78082e-006
4.78077e-006
4.78082e-006
4.78075e-006
4.78074e-006
4.78072e-006
4.78078e-006
4.78074e-006
4.7807e-006
4.78073e-006
4.78071e-006
4.7807e-006
4.7807e-006
4.7807e-006
4.78069e-006
4.78064e-006
4.78065e-006
4.78065e-006
4.78066e-006
4.78065e-006
4.78059e-006
4.78061e-006
0.126387
0.0385281
0.00734372
0.000364201
6.83607e-006
4.79103e-006
4.78413e-006
4.78416e-006
4.7841e-006
4.78415e-006
4.78411e-006
4.7841e-006
4.78407e-006
4.78413e-006
4.7841e-006
4.78402e-006
4.78402e-006
4.78405e-006
4.78405e-006
4.78404e-006
4.78403e-006
4.78402e-006
4.78401e-006
4.78401e-006
4.78399e-006
4.784e-006
4.78398e-006
4.78394e-006
4.78394e-006
0.122744
0.0371966
0.00696829
0.000335983
6.7747e-006
4.79296e-006
4.78524e-006
4.78524e-006
4.7852e-006
4.78522e-006
4.78521e-006
4.7852e-006
4.78517e-006
4.7852e-006
4.7852e-006
4.78513e-006
4.78507e-006
4.78513e-006
4.78513e-006
4.78512e-006
4.78507e-006
4.78509e-006
4.78509e-006
4.78508e-006
4.78502e-006
4.78504e-006
4.78503e-006
4.78502e-006
4.785e-006
0.118859
0.0357849
0.00657802
0.000308028
6.72002e-006
4.79455e-006
4.78586e-006
4.78582e-006
4.7858e-006
4.78581e-006
4.7858e-006
4.78579e-006
4.78577e-006
4.78578e-006
4.78577e-006
4.78572e-006
4.78564e-006
4.78571e-006
4.78571e-006
4.7857e-006
4.78562e-006
4.78567e-006
4.78567e-006
4.78566e-006
4.78556e-006
4.78558e-006
4.78558e-006
4.78558e-006
4.78554e-006
0.114714
0.0342907
0.00617434
0.000280641
6.67557e-006
4.79634e-006
4.78647e-006
4.78641e-006
4.78637e-006
4.78637e-006
4.78637e-006
4.78637e-006
4.78636e-006
4.78635e-006
4.78631e-006
4.78628e-006
4.78622e-006
4.78627e-006
4.78627e-006
4.78627e-006
4.78618e-006
4.78621e-006
4.78621e-006
4.7862e-006
4.78609e-006
4.78611e-006
4.78611e-006
4.78608e-006
4.78604e-006
0.110297
0.0327116
0.00575827
0.000253986
6.63947e-006
4.79851e-006
4.78722e-006
4.78713e-006
4.78711e-006
4.78711e-006
4.7871e-006
4.7871e-006
4.78709e-006
4.78707e-006
4.78701e-006
4.78699e-006
4.78695e-006
4.78697e-006
4.78697e-006
4.78696e-006
4.78687e-006
4.78689e-006
4.78688e-006
4.78687e-006
4.78678e-006
4.78678e-006
4.78677e-006
4.78671e-006
4.78669e-006
0.105606
0.031049
0.00533194
0.000228274
6.60978e-006
4.80118e-006
4.78817e-006
4.78807e-006
4.78806e-006
4.78805e-006
4.78805e-006
4.78804e-006
4.78801e-006
4.78799e-006
4.78795e-006
4.78793e-006
4.78789e-006
4.78788e-006
4.78787e-006
4.78785e-006
4.78777e-006
4.78776e-006
4.78776e-006
4.78774e-006
4.78769e-006
4.78767e-006
4.78763e-006
4.78751e-006
4.78748e-006
0.100648
0.0293075
0.00489843
0.000203744
6.58522e-006
4.80444e-006
4.78944e-006
4.78928e-006
4.78926e-006
4.78925e-006
4.78924e-006
4.78922e-006
4.78918e-006
4.78916e-006
4.78914e-006
4.78912e-006
4.78908e-006
4.78906e-006
4.78903e-006
4.78901e-006
4.78894e-006
4.78892e-006
4.7889e-006
4.78885e-006
4.78875e-006
4.78873e-006
4.7887e-006
4.78861e-006
4.78856e-006
0.0954338
0.027494
0.00446148
0.000180628
6.56485e-006
4.80841e-006
4.79105e-006
4.79084e-006
4.79083e-006
4.79082e-006
4.7908e-006
4.79076e-006
4.79071e-006
4.7907e-006
4.79068e-006
4.79065e-006
4.79059e-006
4.79055e-006
4.79051e-006
4.79048e-006
4.79043e-006
4.7904e-006
4.79035e-006
4.7903e-006
4.79017e-006
4.7901e-006
4.79004e-006
4.78997e-006
4.78991e-006
0.0899825
0.025618
0.00402542
0.000159125
6.54782e-006
4.81327e-006
4.79318e-006
4.79291e-006
4.79288e-006
4.79285e-006
4.79281e-006
4.7928e-006
4.79278e-006
4.79273e-006
4.79269e-006
4.79262e-006
4.79255e-006
4.7925e-006
4.79246e-006
4.79239e-006
4.79231e-006
4.79222e-006
4.79214e-006
4.79206e-006
4.79192e-006
4.79184e-006
4.79177e-006
4.79169e-006
4.79161e-006
0.0843198
0.0236916
0.00359499
0.000139383
6.53343e-006
4.81927e-006
4.79597e-006
4.79557e-006
4.79553e-006
4.79549e-006
4.79547e-006
4.79541e-006
4.79534e-006
4.79525e-006
4.79518e-006
4.79513e-006
4.79505e-006
4.79496e-006
4.79488e-006
4.79481e-006
4.79467e-006
4.79458e-006
4.79449e-006
4.79439e-006
4.79426e-006
4.79416e-006
4.79409e-006
4.79396e-006
4.79376e-006
0.0784794
0.0217296
0.00317529
0.0001215
6.5214e-006
4.82657e-006
4.7995e-006
4.79897e-006
4.79891e-006
4.79886e-006
4.79879e-006
4.7987e-006
4.79862e-006
4.79854e-006
4.79845e-006
4.79838e-006
4.79828e-006
4.79817e-006
4.79807e-006
4.79792e-006
4.79774e-006
4.79757e-006
4.79745e-006
4.79734e-006
4.79719e-006
4.79712e-006
4.79697e-006
4.79675e-006
4.79656e-006
0.0725028
0.0197495
0.00277147
0.00010551
6.51162e-006
4.83539e-006
4.80401e-006
4.8033e-006
4.80322e-006
4.80313e-006
4.80304e-006
4.80299e-006
4.80291e-006
4.80279e-006
4.80267e-006
4.80249e-006
4.8023e-006
4.80213e-006
4.80195e-006
4.80185e-006
4.80157e-006
4.80146e-006
4.80133e-006
4.80109e-006
4.80101e-006
4.8007e-006
4.80047e-006
4.80039e-006
4.79995e-006
0.0664386
0.0177711
0.0023886
9.13852e-005
6.50411e-006
4.84616e-006
4.8098e-006
4.80881e-006
4.8087e-006
4.80861e-006
4.80852e-006
4.80836e-006
4.80819e-006
4.80801e-006
4.80782e-006
4.80762e-006
4.80737e-006
4.8072e-006
4.80705e-006
4.80671e-006
4.80662e-006
4.80631e-006
4.80598e-006
4.80595e-006
4.80545e-006
4.80534e-006
4.8052e-006
4.80453e-006
4.80442e-006
0.0603423
0.0158163
0.00203136
7.90441e-005
6.49903e-006
4.85921e-006
4.81709e-006
4.81575e-006
4.8156e-006
4.81546e-006
4.81525e-006
4.81505e-006
4.81484e-006
4.81463e-006
4.81449e-006
4.81414e-006
4.81401e-006
4.81374e-006
4.81332e-006
4.81329e-006
4.81272e-006
4.81249e-006
4.81239e-006
4.81143e-006
4.81157e-006
4.81111e-006
4.81001e-006
4.81035e-006
4.80948e-006
0.0542751
0.0139085
0.00170376
6.83601e-005
6.49646e-006
4.87491e-006
4.82615e-006
4.82437e-006
4.82414e-006
4.82394e-006
4.82378e-006
4.82355e-006
4.82336e-006
4.82316e-006
4.82271e-006
4.82255e-006
4.82199e-006
4.82152e-006
4.82149e-006
4.82043e-006
4.82055e-006
4.82025e-006
4.81888e-006
4.81949e-006
4.81809e-006
4.81742e-006
4.81804e-006
4.81604e-006
4.81646e-006
0.0483024
0.0120717
0.00140885
5.91759e-005
6.49637e-006
4.89374e-006
4.83756e-006
4.8352e-006
4.8349e-006
4.83468e-006
4.83437e-006
4.83414e-006
4.83378e-006
4.83319e-006
4.83312e-006
4.83231e-006
4.83206e-006
4.83192e-006
4.83044e-006
4.8311e-006
4.82988e-006
4.82883e-006
4.82982e-006
4.82703e-006
4.82779e-006
4.82785e-006
4.82471e-006
4.82641e-006
4.82441e-006
0.042492
0.0103297
0.0011486
5.13215e-005
6.49885e-006
4.91625e-006
4.85165e-006
4.84843e-006
4.84809e-006
4.84766e-006
4.84746e-006
4.8469e-006
4.84639e-006
4.84627e-006
4.84511e-006
4.8452e-006
4.84459e-006
4.84288e-006
4.84407e-006
4.84139e-006
4.8418e-006
4.84248e-006
4.83869e-006
4.84082e-006
4.83897e-006
4.8359e-006
4.83855e-006
4.83461e-006
4.83488e-006
0.0369119
0.00870489
0.00092364
4.46283e-005
6.50412e-006
4.9428e-006
4.86873e-006
4.86458e-006
4.86379e-006
4.8636e-006
4.86286e-006
4.86267e-006
4.86232e-006
4.86096e-006
4.86157e-006
4.86001e-006
4.85916e-006
4.86002e-006
4.85625e-006
4.85813e-006
4.8573e-006
4.85313e-006
4.85605e-006
4.85274e-006
4.85085e-006
4.85362e-006
4.84849e-006
4.84972e-006
4.84883e-006
0.0316276
0.00721679
0.000733317
3.89389e-005
6.51235e-006
4.97421e-006
4.88963e-006
4.88384e-006
4.88349e-006
4.88258e-006
4.88256e-006
4.88171e-006
4.88077e-006
4.88132e-006
4.87863e-006
4.87939e-006
4.87929e-006
4.87525e-006
4.87774e-006
4.87499e-006
4.87168e-006
4.87498e-006
4.87137e-006
4.86906e-006
4.87204e-006
4.86555e-006
4.86682e-006
4.86574e-006
4.86071e-006
0.0266995
0.00588093
0.000575728
3.41134e-005
6.52398e-006
5.01094e-006
4.9145e-006
4.90775e-006
4.90607e-006
4.90643e-006
4.90501e-006
4.90516e-006
4.90485e-006
4.90183e-006
4.90386e-006
4.9016e-006
4.89879e-006
4.9012e-006
4.89808e-006
4.89559e-006
4.89885e-006
4.89303e-006
4.89075e-006
4.89568e-006
4.88695e-006
4.88774e-006
4.88685e-006
4.88172e-006
4.8838e-006
0.0221797
0.00470748
0.000447951
3.00298e-005
6.53984e-006
5.0531e-006
4.94461e-006
4.93475e-006
4.93467e-006
4.93256e-006
4.93369e-006
4.93195e-006
4.93064e-006
4.93242e-006
4.92762e-006
4.92878e-006
4.92937e-006
4.92486e-006
4.92377e-006
4.9274e-006
4.9194e-006
4.91949e-006
4.92365e-006
4.91301e-006
4.91615e-006
4.91454e-006
4.90625e-006
4.90903e-006
4.9031e-006
0.0181094
0.00370035
0.000346349
2.65818e-005
6.55997e-006
5.10199e-006
4.97914e-006
4.96878e-006
4.96506e-006
4.96675e-006
4.96373e-006
4.96484e-006
4.96491e-006
4.96018e-006
4.96453e-006
4.95979e-006
4.95761e-006
4.96056e-006
4.95999e-006
4.95108e-006
4.95588e-006
4.95496e-006
4.94463e-006
4.94971e-006
4.94458e-006
4.93785e-006
4.94211e-006
4.93262e-006
4.93337e-006
0.014516
0.00285685
0.000266928
2.36758e-005
6.58455e-006
5.15699e-006
5.02126e-006
5.00468e-006
5.00514e-006
5.00171e-006
5.00397e-006
5.00262e-006
5.00027e-006
5.00336e-006
4.99561e-006
5.00334e-006
5.00103e-006
4.99013e-006
4.99446e-006
4.99913e-006
4.98856e-006
4.98351e-006
4.99019e-006
4.98225e-006
4.97841e-006
4.98062e-006
4.96851e-006
4.97176e-006
4.96534e-006
0.0114111
0.00216794
0.000205696
2.12275e-005
6.61309e-006
5.21931e-006
5.06724e-006
5.05125e-006
5.04544e-006
5.04794e-006
5.04619e-006
5.04486e-006
5.0467e-006
5.04395e-006
5.04994e-006
5.03746e-006
5.03904e-006
5.05032e-006
5.03807e-006
5.03027e-006
5.03865e-006
5.04254e-006
5.02526e-006
5.02566e-006
5.02816e-006
5.01801e-006
5.01924e-006
5.00513e-006
5.00536e-006
0.00878947
0.00161925
0.000158939
1.91608e-005
6.64477e-006
5.28767e-006
5.12172e-006
5.09839e-006
5.09744e-006
5.09502e-006
5.09529e-006
5.09722e-006
5.09605e-006
5.09675e-006
5.09086e-006
5.10085e-006
5.10177e-006
5.08785e-006
5.09244e-006
5.09782e-006
5.08888e-006
5.07783e-006
5.08923e-006
5.08319e-006
5.06839e-006
5.06906e-006
5.06311e-006
5.06812e-006
5.04957e-006
0.00662953
0.00119268
0.000123419
1.7408e-005
6.67802e-006
5.36192e-006
5.18183e-006
5.15537e-006
5.1506e-006
5.15185e-006
5.15161e-006
5.15404e-006
5.15083e-006
5.15163e-006
5.16229e-006
5.15034e-006
5.14905e-006
5.16111e-006
5.16028e-006
5.14425e-006
5.15273e-006
5.15604e-006
5.1372e-006
5.1423e-006
5.14022e-006
5.14046e-006
5.12901e-006
5.10851e-006
5.11699e-006
0.00489518
0.000868423
9.64648e-005
1.59109e-005
6.70896e-006
5.44368e-006
5.24623e-006
5.21803e-006
5.21312e-006
5.21099e-006
5.21853e-006
5.21154e-006
5.21816e-006
5.22444e-006
5.21184e-006
5.22799e-006
5.22949e-006
5.21942e-006
5.21677e-006
5.23681e-006
5.21933e-006
5.21124e-006
5.22769e-006
5.21711e-006
5.21624e-006
5.19499e-006
5.20174e-006
5.19941e-006
5.17119e-006
0.00353903
0.000626761
7.59568e-005
1.46181e-005
6.73934e-006
5.52398e-006
5.32421e-006
5.28171e-006
5.27961e-006
5.28588e-006
5.27645e-006
5.29131e-006
5.29219e-006
5.28526e-006
5.30049e-006
5.29414e-006
5.29791e-006
5.31083e-006
5.31502e-006
5.29576e-006
5.3181e-006
5.3145e-006
5.2986e-006
5.29899e-006
5.28832e-006
5.30622e-006
5.28657e-006
5.26508e-006
5.2747e-006
0.00250669
0.000449589
6.02734e-005
1.34914e-005
6.75914e-006
5.61711e-006
5.39254e-006
5.36148e-006
5.35437e-006
5.34704e-006
5.36825e-006
5.36267e-006
5.36108e-006
5.37676e-006
5.38019e-006
5.38893e-006
5.38274e-006
5.39107e-006
5.39602e-006
5.41849e-006
5.39398e-006
5.41866e-006
5.40242e-006
5.38895e-006
5.41197e-006
5.38302e-006
5.39389e-006
5.39064e-006
5.35768e-006
0.00174144
0.000321337
4.81986e-005
1.24946e-005
6.77818e-006
5.69499e-006
5.48776e-006
5.43054e-006
5.42751e-006
5.44288e-006
5.42944e-006
5.44539e-006
5.46566e-006
5.45673e-006
5.46591e-006
5.47132e-006
5.49893e-006
5.50379e-006
5.49516e-006
5.49481e-006
5.52663e-006
5.5095e-006
5.53536e-006
5.54656e-006
5.5054e-006
5.52394e-006
5.50327e-006
5.50566e-006
5.49332e-006
0.00118855
0.000229339
3.88341e-005
1.16101e-005
6.77725e-006
5.79235e-006
5.55548e-006
5.52203e-006
5.5168e-006
5.50286e-006
5.53615e-006
5.53514e-006
5.53048e-006
5.5718e-006
5.56619e-006
5.57142e-006
5.60225e-006
5.59136e-006
5.62786e-006
5.64373e-006
5.636e-006
5.6593e-006
5.64746e-006
5.65699e-006
5.68505e-006
5.65196e-006
5.66373e-006
5.63324e-006
5.64173e-006
0.000798659
0.000163741
3.15235e-005
1.08138e-005
6.77445e-006
5.86168e-006
5.65704e-006
5.59893e-006
5.58829e-006
5.61774e-006
5.60043e-006
5.61602e-006
5.66859e-006
5.64568e-006
5.66792e-006
5.70913e-006
5.69123e-006
5.74729e-006
5.75023e-006
5.75312e-006
5.80214e-006
5.78777e-006
5.82903e-006
5.81592e-006
5.82078e-006
5.84994e-006
5.81532e-006
5.83841e-006
5.80118e-006
0.000529766
0.000117137
2.57838e-005
1.01018e-005
6.75429e-006
5.94753e-006
5.73072e-006
5.68264e-006
5.6938e-006
5.67453e-006
5.71611e-006
5.73065e-006
5.7246e-006
5.76831e-006
5.79111e-006
5.80604e-006
5.85054e-006
5.84569e-006
5.87784e-006
5.93852e-006
5.93116e-006
5.99546e-006
5.97446e-006
6.00845e-006
6.02259e-006
6.02655e-006
6.06662e-006
6.02361e-006
6.03798e-006
0.000347963
8.40929e-005
2.12641e-005
9.4614e-006
6.72473e-006
6.01241e-006
5.81186e-006
5.78175e-006
5.75099e-006
5.79445e-006
5.79027e-006
5.79661e-006
5.85085e-006
5.86611e-006
5.9196e-006
5.91006e-006
5.93054e-006
6.02908e-006
6.03908e-006
6.06692e-006
6.12359e-006
6.13316e-006
6.23649e-006
6.23393e-006
6.25296e-006
6.27536e-006
6.26868e-006
6.29788e-006
6.2587e-006
0.000227123
6.06979e-005
1.77038e-005
8.8912e-006
6.68891e-006
6.06562e-006
5.90648e-006
5.83778e-006
5.86884e-006
5.85544e-006
5.87845e-006
5.92061e-006
5.93734e-006
5.99338e-006
5.98681e-006
6.04817e-006
6.12526e-006
6.13347e-006
6.20127e-006
6.21856e-006
6.31809e-006
6.40091e-006
6.40274e-006
6.48591e-006
6.52792e-006
6.55882e-006
6.61127e-006
6.57851e-006
6.60875e-006
0.00014793
4.41764e-005
1.49066e-005
8.39141e-006
6.63647e-006
6.13504e-006
5.94793e-006
5.94933e-006
5.92213e-006
5.94904e-006
5.97598e-006
6.00883e-006
6.02703e-006
6.04661e-006
6.15397e-006
6.19178e-006
6.20884e-006
6.28437e-006
6.32701e-006
6.44121e-006
6.47936e-006
6.55033e-006
6.73207e-006
6.74317e-006
6.83349e-006
6.87034e-006
6.90317e-006
7.00543e-006
6.95065e-006
9.66065e-005
3.25406e-005
1.27211e-005
7.95053e-006
6.59528e-006
6.15009e-006
6.05345e-006
5.9886e-006
6.01766e-006
6.03461e-006
6.05556e-006
6.0643e-006
6.12456e-006
6.21098e-006
6.21846e-006
6.29987e-006
6.36762e-006
6.40305e-006
6.51643e-006
6.5795e-006
6.73127e-006
6.78854e-006
6.87023e-006
7.12784e-006
7.1556e-006
7.29776e-006
7.35298e-006
7.38587e-006
7.48412e-006
6.36048e-005
2.4354e-005
1.1019e-005
7.57955e-006
6.52936e-006
6.20834e-006
6.07671e-006
6.08459e-006
6.07903e-006
6.08825e-006
6.11807e-006
6.19262e-006
6.22963e-006
6.25094e-006
6.3511e-006
6.3664e-006
6.49566e-006
6.59253e-006
6.63612e-006
6.80183e-006
6.86761e-006
7.07397e-006
7.1477e-006
7.28085e-006
7.65312e-006
7.70434e-006
7.89398e-006
8.00075e-006
8.0225e-006
4.24806e-005
1.85969e-005
9.70593e-006
7.25636e-006
6.48911e-006
6.20807e-006
6.15734e-006
6.11756e-006
6.14306e-006
6.17833e-006
6.19405e-006
6.23276e-006
6.27361e-006
6.37636e-006
6.4027e-006
6.55951e-006
6.57222e-006
6.6903e-006
6.83577e-006
6.91089e-006
7.10352e-006
7.21857e-006
7.54036e-006
7.6819e-006
7.85859e-006
8.38457e-006
8.43101e-006
8.67446e-006
8.80771e-006
2.89834e-005
1.45551e-005
8.69741e-006
6.99646e-006
6.42634e-006
6.23946e-006
6.17366e-006
6.18997e-006
6.1916e-006
6.21365e-006
6.26699e-006
6.29713e-006
6.37656e-006
6.41736e-006
6.54102e-006
6.5806e-006
6.75491e-006
6.79254e-006
6.9481e-006
7.09657e-006
7.21924e-006
7.49317e-006
7.67103e-006
8.07673e-006
8.39521e-006
8.65456e-006
9.43847e-006
9.46891e-006
9.78921e-006
2.03512e-005
1.17217e-005
7.93276e-006
6.77581e-006
6.38766e-006
6.23875e-006
6.2255e-006
6.21251e-006
6.25611e-006
6.264e-006
6.31374e-006
6.36712e-006
6.41065e-006
6.49791e-006
6.57315e-006
6.68637e-006
6.75054e-006
6.99249e-006
7.06291e-006
7.20141e-006
7.49617e-006
7.65762e-006
7.99035e-006
8.21215e-006
8.77173e-006
9.26612e-006
9.75859e-006
1.09751e-005
1.10146e-005
1.48238e-005
9.74551e-006
7.3597e-006
6.60566e-006
6.34175e-006
6.25104e-006
6.25088e-006
6.24928e-006
6.29091e-006
6.30891e-006
6.35389e-006
6.40345e-006
6.49109e-006
6.53253e-006
6.63692e-006
6.71304e-006
6.86725e-006
6.95216e-006
7.22507e-006
7.33236e-006
7.59468e-006
7.86403e-006
8.21461e-006
8.6078e-006
8.95982e-006
9.7447e-006
1.06163e-005
1.14467e-005
1.3346e-005
1.12719e-005
8.37167e-006
6.93406e-006
6.46704e-006
6.30447e-006
6.26019e-006
6.26549e-006
6.26943e-006
6.33538e-006
6.32267e-006
6.44551e-006
6.44047e-006
6.52642e-006
6.61029e-006
6.71945e-006
6.77545e-006
6.95745e-006
7.0431e-006
7.22276e-006
7.41577e-006
7.6785e-006
7.93557e-006
8.36353e-006
8.71106e-006
9.39442e-006
1.00204e-005
1.14804e-005
1.24953e-005
1.49686e-005
9.00827e-006
7.43709e-006
6.63322e-006
6.36876e-006
6.2827e-006
6.26577e-006
6.29588e-006
6.28084e-006
6.37609e-006
6.35519e-006
6.47966e-006
6.46622e-006
6.59812e-006
6.6195e-006
6.75789e-006
6.81906e-006
7.01907e-006
7.144e-006
7.45964e-006
7.95055e-006
9.09011e-006
1.21747e-005
1.74742e-005
3.14277e-005
4.70535e-005
8.85965e-005
0.000114542
0.000175838
0.000167724
7.55847e-006
6.80408e-006
6.41177e-006
6.28311e-006
6.25246e-006
6.26713e-006
6.27307e-006
6.29847e-006
6.37783e-006
6.38928e-006
6.51409e-006
6.56e-006
6.8394e-006
7.11378e-006
8.37609e-006
1.10266e-005
2.02834e-005
3.82425e-005
9.23919e-005
0.000179816
0.000357963
0.000738321
0.00119661
0.00215127
0.00303129
0.005027
0.00631755
0.0096769
0.00992003
6.70935e-006
6.40937e-006
6.27244e-006
6.25954e-006
6.26486e-006
6.30873e-006
6.39103e-006
6.55201e-006
7.1956e-006
8.35427e-006
1.37998e-005
2.1295e-005
5.42152e-005
0.000101051
0.000266294
0.000487304
0.00105887
0.0017486
0.0032768
0.00505325
0.00811763
0.0123344
0.0177606
0.0258888
0.0348654
0.0510975
0.0653287
0.0982448
0.118097
6.17855e-006
6.23565e-006
6.39951e-006
6.8455e-006
7.968e-006
1.15386e-005
2.1427e-005
3.65164e-005
9.80124e-005
0.000179085
0.00045916
0.000743272
0.00161885
0.00248345
0.00471239
0.00699466
0.0114501
0.0161877
0.0241197
0.0331827
0.0466918
0.0630866
0.0862
0.11563
0.156673
0.214217
0.289635
0.42107
0.565888
6.30112e-006
8.60064e-006
1.56335e-005
3.44647e-005
7.72034e-005
0.000182304
0.000420927
0.00072701
0.00158448
0.00253539
0.0048508
0.00699477
0.0118586
0.0162337
0.0252353
0.0342371
0.0487366
0.0644361
0.088343
0.115241
0.154775
0.200079
0.267909
0.347676
0.473673
0.62641
0.889316
1.22394
1.78479
0.00151968
0.00151968
0.00151969
0.00151969
0.00151969
0.00151969
0.00151969
0.00151969
0.00151969
0.00151969
0.00151969
0.00151969
0.00151969
0.00151969
0.00151969
0.00151969
0.00151969
0.00151969
0.00151969
0.00151969
0.00151969
0.00151969
0.00151969
0.00151969
0.00151969
0.00151969
0.0015197
0.0015197
0.0015197
0.0015197
0.0015197
0.0015197
0.0015197
0.0015197
0.0015197
0.0015197
0.0015197
0.0015197
0.0015197
0.0015197
0.0015197
0.0015197
0.0015197
0.0015197
0.0015197
0.0015197
0.0015197
0.0015197
0.0015197
0.0015197
0.0015197
0.0015197
0.0015197
0.0015197
0.0015197
0.00151971
0.00151971
0.00151971
0.00151971
0.00151971
0.00151971
0.00151971
0.00151971
0.00151971
0.00151971
0.00151971
0.00151971
0.00151971
0.00151971
0.00151971
0.00151971
0.00151971
0.00151971
0.00151971
0.00151971
0.00151971
0.00151971
0.00151971
0.00151971
0.00151971
0.00151971
0.00151971
0.00151971
0.00151971
0.00151971
0.00151971
0.00151971
0.00151971
0.00151971
0.00151971
0.00151972
0.00151972
0.00151972
0.00151972
0.00151972
0.00151972
0.00151972
0.00151972
0.00151972
0.00151972
0.00151972
0.00151972
0.00151972
0.00151972
0.00151972
0.00151972
0.00151972
0.00151972
0.00151972
0.00151972
0.00151972
0.00151972
0.00151972
0.00151972
0.00151972
0.00151972
0.00151972
0.00151972
0.00151972
0.00151972
0.00151972
0.00151972
0.00151972
0.00151972
0.00151972
0.00151972
0.00151972
0.00151972
0.00151972
0.00151972
0.00151972
0.00151972
0.00151972
0.00151972
0.00151972
0.00151972
0.00151972
0.00151981
0.00154195
3.27762e-005
3.27771e-005
3.27777e-005
3.27784e-005
3.2779e-005
3.27796e-005
3.27802e-005
3.27807e-005
3.27813e-005
3.27818e-005
3.27824e-005
3.27829e-005
3.27834e-005
3.27839e-005
3.27844e-005
3.27849e-005
3.27854e-005
3.27858e-005
3.27863e-005
3.27868e-005
3.27873e-005
3.27877e-005
3.27882e-005
3.27887e-005
3.27892e-005
3.27896e-005
3.27901e-005
3.27906e-005
3.2791e-005
3.27915e-005
3.2792e-005
3.27924e-005
3.27929e-005
3.27934e-005
3.27938e-005
3.27943e-005
3.27948e-005
3.27952e-005
3.27957e-005
3.27961e-005
3.27966e-005
3.27971e-005
3.27975e-005
3.2798e-005
3.27984e-005
3.27989e-005
3.27994e-005
3.27998e-005
3.28003e-005
3.28007e-005
3.28011e-005
3.28016e-005
3.2802e-005
3.28025e-005
3.28029e-005
3.28033e-005
3.28038e-005
3.28042e-005
3.28046e-005
3.2805e-005
3.28055e-005
3.28059e-005
3.28063e-005
3.28067e-005
3.28071e-005
3.28075e-005
3.28079e-005
3.28083e-005
3.28087e-005
3.2809e-005
3.28094e-005
3.28098e-005
3.28102e-005
3.28105e-005
3.28109e-005
3.28113e-005
3.28116e-005
3.2812e-005
3.28123e-005
3.28127e-005
3.2813e-005
3.28133e-005
3.28137e-005
3.2814e-005
3.28143e-005
3.28146e-005
3.28149e-005
3.28152e-005
3.28155e-005
3.28158e-005
3.28161e-005
3.28164e-005
3.28167e-005
3.2817e-005
3.28172e-005
3.28175e-005
3.28177e-005
3.2818e-005
3.28182e-005
3.28184e-005
3.28186e-005
3.28188e-005
3.2819e-005
3.28192e-005
3.28194e-005
3.28195e-005
3.28197e-005
3.28198e-005
3.28199e-005
3.28199e-005
3.282e-005
3.282e-005
3.282e-005
3.28201e-005
3.28203e-005
3.28206e-005
3.2821e-005
3.28214e-005
3.28217e-005
3.2822e-005
3.28222e-005
3.28224e-005
3.28226e-005
3.28227e-005
3.28228e-005
3.28229e-005
3.28229e-005
3.2823e-005
3.28231e-005
3.28232e-005
3.28233e-005
3.28235e-005
3.28236e-005
3.2824e-005
3.28244e-005
3.28245e-005
3.28239e-005
3.1807e-005
3.37826e-005
1.44841e-006
1.44846e-006
1.44851e-006
1.44855e-006
1.44859e-006
1.44863e-006
1.44867e-006
1.44871e-006
1.44874e-006
1.44878e-006
1.44881e-006
1.44884e-006
1.44888e-006
1.44891e-006
1.44894e-006
1.44897e-006
1.449e-006
1.44903e-006
1.44905e-006
1.44908e-006
1.44911e-006
1.44914e-006
1.44917e-006
1.4492e-006
1.44923e-006
1.44925e-006
1.44928e-006
1.44931e-006
1.44934e-006
1.44937e-006
1.4494e-006
1.44943e-006
1.44946e-006
1.44949e-006
1.44952e-006
1.44955e-006
1.44958e-006
1.44961e-006
1.44964e-006
1.44966e-006
1.44969e-006
1.44972e-006
1.44975e-006
1.44978e-006
1.44981e-006
1.44984e-006
1.44987e-006
1.4499e-006
1.44993e-006
1.44996e-006
1.44999e-006
1.45002e-006
1.45005e-006
1.45008e-006
1.45011e-006
1.45014e-006
1.45017e-006
1.4502e-006
1.45023e-006
1.45026e-006
1.45029e-006
1.45032e-006
1.45035e-006
1.45037e-006
1.4504e-006
1.45043e-006
1.45046e-006
1.45049e-006
1.45051e-006
1.45054e-006
1.45057e-006
1.45059e-006
1.45062e-006
1.45065e-006
1.45067e-006
1.4507e-006
1.45073e-006
1.45075e-006
1.45078e-006
1.4508e-006
1.45083e-006
1.45085e-006
1.45088e-006
1.4509e-006
1.45092e-006
1.45095e-006
1.45097e-006
1.45099e-006
1.45102e-006
1.45104e-006
1.45106e-006
1.45108e-006
1.4511e-006
1.45112e-006
1.45114e-006
1.45116e-006
1.45118e-006
1.4512e-006
1.45121e-006
1.45123e-006
1.45124e-006
1.45126e-006
1.45127e-006
1.45129e-006
1.4513e-006
1.45131e-006
1.45132e-006
1.45133e-006
1.45133e-006
1.45134e-006
1.45134e-006
1.45135e-006
1.45135e-006
1.45135e-006
1.45136e-006
1.45136e-006
1.45137e-006
1.45137e-006
1.45137e-006
1.45137e-006
1.45137e-006
1.45136e-006
1.45135e-006
1.45133e-006
1.45131e-006
1.45129e-006
1.45127e-006
1.45124e-006
1.45121e-006
1.45117e-006
1.45113e-006
1.45109e-006
1.45105e-006
1.45098e-006
1.45098e-006
1.4508e-006
1.45902e-006
5.02592e-006
0.000493213
5.84383e-007
5.84309e-007
5.84226e-007
5.84143e-007
5.84057e-007
5.83963e-007
5.83869e-007
5.8377e-007
5.83663e-007
5.83556e-007
5.83446e-007
5.8333e-007
5.83211e-007
5.8309e-007
5.82965e-007
5.82836e-007
5.82706e-007
5.82568e-007
5.82433e-007
5.82292e-007
5.82153e-007
5.82006e-007
5.8186e-007
5.81711e-007
5.8156e-007
5.81409e-007
5.81257e-007
5.81102e-007
5.80948e-007
5.80791e-007
5.80634e-007
5.80476e-007
5.8032e-007
5.80158e-007
5.8e-007
5.79838e-007
5.79679e-007
5.79518e-007
5.79358e-007
5.792e-007
5.79039e-007
5.78877e-007
5.78719e-007
5.78562e-007
5.78406e-007
5.78247e-007
5.78089e-007
5.77933e-007
5.77779e-007
5.77627e-007
5.77475e-007
5.77326e-007
5.77175e-007
5.77027e-007
5.76881e-007
5.76737e-007
5.76595e-007
5.7645e-007
5.76308e-007
5.76171e-007
5.76032e-007
5.75898e-007
5.75764e-007
5.75634e-007
5.75502e-007
5.75375e-007
5.75246e-007
5.75121e-007
5.74997e-007
5.74879e-007
5.74759e-007
5.74642e-007
5.74525e-007
5.7441e-007
5.74297e-007
5.74187e-007
5.74078e-007
5.73974e-007
5.7387e-007
5.73767e-007
5.73665e-007
5.73566e-007
5.73467e-007
5.73371e-007
5.73277e-007
5.73183e-007
5.73095e-007
5.73009e-007
5.72922e-007
5.72837e-007
5.72753e-007
5.72671e-007
5.72592e-007
5.72513e-007
5.72438e-007
5.72364e-007
5.7229e-007
5.72218e-007
5.72147e-007
5.7208e-007
5.72015e-007
5.71952e-007
5.71887e-007
5.71827e-007
5.71764e-007
5.71707e-007
5.71648e-007
5.71593e-007
5.71537e-007
5.71483e-007
5.7143e-007
5.71381e-007
5.71328e-007
5.71275e-007
5.71224e-007
5.71173e-007
5.7112e-007
5.71068e-007
5.71019e-007
5.70967e-007
5.70922e-007
5.70874e-007
5.70827e-007
5.70782e-007
5.70733e-007
5.70692e-007
5.70644e-007
5.70598e-007
5.7055e-007
5.70504e-007
5.70455e-007
5.70409e-007
5.70354e-007
5.70313e-007
5.70242e-007
5.70563e-007
7.75273e-007
7.11998e-005
0.0050988
1.21369e-006
1.21346e-006
1.21322e-006
1.21298e-006
1.21273e-006
1.21246e-006
1.21218e-006
1.21189e-006
1.21159e-006
1.21126e-006
1.21093e-006
1.21059e-006
1.21023e-006
1.20986e-006
1.20948e-006
1.20909e-006
1.20868e-006
1.20827e-006
1.20785e-006
1.20742e-006
1.20699e-006
1.20655e-006
1.20609e-006
1.20563e-006
1.20517e-006
1.20472e-006
1.20424e-006
1.20378e-006
1.2033e-006
1.20282e-006
1.20234e-006
1.20186e-006
1.20137e-006
1.20088e-006
1.2004e-006
1.19989e-006
1.19941e-006
1.19892e-006
1.19844e-006
1.19793e-006
1.19744e-006