/*--------------------------------*- C++ -*----------------------------------*\
| =========                 |                                                 |
| \\      /  F ield         | OpenFOAM: The Open Source CFD Toolbox           |
|  \\    /   O peration     | Version:  5.x                                   |
|   \\  /    A nd           | Web:      www.OpenFOAM.org                      |
|    \\/     M anipulation  |                                                 |
\*---------------------------------------------------------------------------*/
/*   Windows 32 and 64 bit porting by blueCAPE: http://www.bluecape.com.pt   *\
|  Based on Windows porting (2.0.x v4) by Symscape: http://www.symscape.com   |
\*---------------------------------------------------------------------------*/
FoamFile
{
    version     2.0;
    format      ascii;
    class       volScalarField;
    location    "50";
    object      k;
}
// * * * * * * * * * * * * * * * * * * * * * * * * * * * * * * * * * * * * * //

dimensions      [0 2 -2 0 0 0 0];

internalField   nonuniform List<scalar> 
43900
(
0.0010142
0.000990169
0.00099022
0.000990115
0.000990117
0.000990118
0.000990119
0.00099012
0.000990121
0.000990122
0.000990123
0.000990124
0.000990124
0.000990125
0.000990126
0.000990126
0.000990127
0.000990128
0.000990128
0.000990129
0.00099013
0.00099013
0.000990131
0.000990131
0.000990132
0.000990132
0.000990133
0.000990133
0.000990133
0.000234856
3.9429e-005
3.81722e-005
4.0847e-005
4.08862e-005
4.08876e-005
4.08886e-005
4.08906e-005
4.08923e-005
4.08938e-005
4.08951e-005
4.08964e-005
4.08977e-005
4.08989e-005
4.09e-005
4.09011e-005
4.09022e-005
4.09032e-005
4.09042e-005
4.09052e-005
4.09061e-005
4.0907e-005
4.09078e-005
4.09086e-005
4.09094e-005
4.09102e-005
4.09109e-005
4.09116e-005
4.0912e-005
0.0946671
0.00478631
5.5716e-005
3.84098e-006
3.47249e-006
3.46851e-006
3.4693e-006
3.46948e-006
3.46981e-006
3.47008e-006
3.47034e-006
3.47057e-006
3.47079e-006
3.47099e-006
3.47117e-006
3.47134e-006
3.4715e-006
3.47164e-006
3.47177e-006
3.47189e-006
3.472e-006
3.47209e-006
3.47218e-006
3.47226e-006
3.47234e-006
3.47235e-006
3.47241e-006
3.47246e-006
3.47249e-006
0.472962
0.101408
0.0065814
7.43984e-005
6.36182e-006
5.99069e-006
5.99005e-006
5.9906e-006
5.99131e-006
5.99189e-006
5.99233e-006
5.99266e-006
5.99292e-006
5.99316e-006
5.99327e-006
5.99331e-006
5.99331e-006
5.99322e-006
5.99307e-006
5.99281e-006
5.99253e-006
5.99211e-006
5.9917e-006
5.99118e-006
5.99061e-006
5.98976e-006
5.98892e-006
5.98801e-006
5.98715e-006
0.745916
0.283815
0.0512742
0.00165907
4.69933e-005
3.96251e-005
3.96146e-005
3.96205e-005
3.9629e-005
3.96356e-005
3.96414e-005
3.96469e-005
3.96507e-005
3.96546e-005
3.9657e-005
3.96593e-005
3.96598e-005
3.96602e-005
3.96597e-005
3.96587e-005
3.96563e-005
3.96547e-005
3.96514e-005
3.96473e-005
3.96419e-005
3.9635e-005
3.96269e-005
3.96186e-005
3.96121e-005
0.836133
0.355718
0.0915441
0.00550519
0.000161416
0.000133647
0.000133599
0.000133607
0.000133618
0.000133628
0.000133636
0.000133642
0.000133648
0.000133652
0.000133654
0.000133655
0.000133656
0.000133655
0.000133653
0.000133649
0.000133644
0.000133641
0.000133634
0.000133626
0.000133616
0.000133604
0.000133591
0.000133576
0.000133565
0.860864
0.377661
0.106409
0.00774308
0.000236535
0.000190809
0.00019071
0.000190711
0.000190714
0.000190716
0.000190718
0.000190718
0.000190719
0.000190718
0.000190717
0.000190715
0.000190714
0.000190711
0.000190707
0.000190702
0.000190699
0.000190695
0.00019069
0.000190683
0.000190677
0.00019067
0.000190661
0.000190652
0.000190644
0.856336
0.377786
0.108336
0.0082118
0.00026507
0.000213303
0.000213179
0.000213177
0.000213179
0.000213177
0.000213178
0.000213177
0.000213176
0.000213174
0.000213173
0.000213172
0.000213169
0.000213167
0.000213165
0.000213163
0.000213159
0.000213157
0.000213154
0.000213151
0.000213146
0.000213142
0.000213137
0.000213133
0.000213128
0.845706
0.373862
0.107325
0.00812706
0.000271752
0.000220907
0.000220781
0.00022078
0.00022078
0.000220779
0.000220779
0.000220779
0.000220777
0.000220776
0.000220776
0.000220776
0.000220773
0.000220772
0.000220771
0.00022077
0.000220768
0.000220767
0.000220765
0.000220764
0.000220762
0.000220759
0.000220757
0.000220757
0.000220754
0.831596
0.365917
0.10397
0.00771937
0.00027079
0.000223199
0.000223072
0.000223073
0.000223071
0.000223072
0.00022307
0.000223069
0.000223069
0.00022307
0.000223068
0.000223069
0.000223068
0.000223067
0.000223066
0.000223066
0.000223066
0.000223065
0.000223062
0.000223063
0.000223062
0.000223062
0.000223061
0.000223059
0.000223059
0.816786
0.357795
0.100038
0.00719814
0.00026884
0.000223847
0.000223708
0.000223711
0.000223708
0.00022371
0.000223707
0.000223707
0.000223706
0.000223709
0.000223706
0.000223704
0.000223706
0.000223705
0.000223705
0.000223705
0.000223705
0.000223704
0.000223702
0.000223702
0.000223703
0.000223703
0.000223702
0.000223699
0.000223701
0.800361
0.348975
0.0960511
0.0067154
0.000267116
0.000224032
0.00022388
0.000223882
0.000223879
0.000223882
0.000223879
0.000223879
0.000223878
0.000223881
0.000223879
0.000223874
0.000223876
0.000223877
0.000223877
0.000223877
0.000223876
0.000223876
0.000223875
0.000223875
0.000223874
0.000223876
0.000223874
0.000223872
0.000223873
0.782513
0.339439
0.0918393
0.00623033
0.000265384
0.000224098
0.000223932
0.000223933
0.000223931
0.000223932
0.000223931
0.00022393
0.000223929
0.000223931
0.000223931
0.000223926
0.000223925
0.000223928
0.000223928
0.000223928
0.000223925
0.000223927
0.000223927
0.000223926
0.000223923
0.000223925
0.000223924
0.000223923
0.000223922
0.763345
0.329245
0.0874197
0.00574652
0.000263798
0.000224139
0.000223956
0.000223956
0.000223955
0.000223955
0.000223954
0.000223954
0.000223952
0.000223953
0.000223953
0.00022395
0.000223947
0.000223951
0.000223951
0.000223951
0.000223947
0.00022395
0.00022395
0.000223949
0.000223944
0.000223946
0.000223946
0.000223945
0.000223943
0.742744
0.318357
0.0827995
0.00526868
0.000262438
0.00022418
0.000223976
0.000223975
0.000223974
0.000223974
0.000223974
0.000223974
0.000223973
0.000223973
0.000223971
0.00022397
0.000223968
0.000223971
0.000223971
0.000223971
0.000223967
0.000223969
0.000223969
0.000223968
0.000223962
0.000223965
0.000223965
0.000223962
0.00022396
0.720605
0.306733
0.0779825
0.00479976
0.000261273
0.00022423
0.000224002
0.000223999
0.000223999
0.000223999
0.000223999
0.000223998
0.000223997
0.000223997
0.000223994
0.000223993
0.000223993
0.000223995
0.000223995
0.000223994
0.00022399
0.000223992
0.000223992
0.000223991
0.000223987
0.000223988
0.000223987
0.000223983
0.000223983
0.696873
0.294355
0.0729845
0.00434358
0.000260265
0.000224292
0.000224032
0.000224031
0.00022403
0.00022403
0.00022403
0.00022403
0.000224028
0.000224027
0.000224026
0.000224025
0.000224024
0.000224024
0.000224023
0.000224022
0.000224018
0.000224019
0.000224019
0.000224019
0.000224017
0.000224016
0.000224016
0.00022401
0.00022401
0.671522
0.281225
0.0678323
0.00390459
0.000259393
0.000224368
0.000224074
0.00022407
0.00022407
0.000224069
0.000224069
0.000224069
0.000224066
0.000224066
0.000224066
0.000224065
0.000224062
0.000224062
0.000224061
0.00022406
0.000224057
0.000224057
0.000224057
0.000224055
0.000224049
0.000224049
0.000224049
0.000224046
0.000224045
0.644547
0.267359
0.0625614
0.00348728
0.000258636
0.000224461
0.000224126
0.000224122
0.000224122
0.000224122
0.000224121
0.000224119
0.000224117
0.000224117
0.000224116
0.000224115
0.000224112
0.000224111
0.00022411
0.000224109
0.000224108
0.000224107
0.000224105
0.000224103
0.000224096
0.000224093
0.000224091
0.000224089
0.000224088
0.615972
0.252787
0.0572161
0.00309576
0.000257975
0.000224577
0.000224196
0.000224191
0.00022419
0.000224188
0.000224187
0.000224187
0.000224187
0.000224186
0.000224184
0.000224181
0.000224177
0.000224176
0.000224175
0.000224173
0.000224169
0.000224165
0.000224162
0.000224159
0.000224151
0.000224148
0.000224146
0.000224146
0.000224145
0.58585
0.237562
0.0518474
0.00273339
0.000257394
0.000224724
0.000224289
0.00022428
0.000224279
0.000224277
0.000224277
0.000224275
0.000224273
0.000224268
0.000224265
0.000224263
0.000224261
0.000224258
0.000224255
0.000224252
0.000224245
0.000224242
0.000224239
0.000224236
0.000224231
0.000224228
0.000224226
0.000224223
0.000224216
0.554273
0.221754
0.0465141
0.00240273
0.00025689
0.000224903
0.000224404
0.000224393
0.000224391
0.000224389
0.000224387
0.000224383
0.00022438
0.000224377
0.000224374
0.000224372
0.000224369
0.000224365
0.000224362
0.000224356
0.000224347
0.00022434
0.000224336
0.000224334
0.00022433
0.000224328
0.000224324
0.000224316
0.000224309
0.521371
0.205458
0.0412797
0.00210525
0.000256459
0.00022512
0.000224551
0.000224537
0.000224535
0.000224532
0.000224528
0.000224527
0.000224525
0.000224521
0.000224517
0.000224509
0.000224501
0.000224494
0.000224488
0.000224485
0.000224474
0.00022447
0.000224468
0.000224461
0.000224458
0.000224447
0.000224439
0.000224436
0.000224422
0.48731
0.188789
0.0362108
0.00184127
0.00025611
0.000225391
0.000224741
0.000224722
0.000224718
0.000224715
0.000224712
0.000224706
0.000224699
0.000224693
0.000224686
0.000224678
0.000224669
0.000224663
0.000224659
0.000224648
0.000224644
0.000224633
0.000224622
0.000224622
0.000224605
0.000224603
0.000224599
0.000224576
0.000224571
0.452305
0.171891
0.0313745
0.00161005
0.000255853
0.000225723
0.000224979
0.000224953
0.000224949
0.000224944
0.000224936
0.000224928
0.00022492
0.000224914
0.000224909
0.000224897
0.000224893
0.000224884
0.000224871
0.00022487
0.000224851
0.000224843
0.00022484
0.000224809
0.000224811
0.000224792
0.000224754
0.000224766
0.000224738
0.416606
0.15493
0.0268346
0.00140983
0.000255696
0.000226127
0.000225272
0.00022524
0.000225234
0.000225226
0.000225221
0.000225214
0.000225209
0.000225202
0.000225188
0.00022518
0.000225158
0.000225142
0.00022514
0.000225106
0.00022511
0.0002251
0.000225054
0.000225073
0.000225023
0.000224998
0.000225019
0.000224955
0.000224969
0.380506
0.138095
0.0226476
0.0012381
0.000255655
0.000226616
0.000225645
0.000225604
0.000225596
0.000225587
0.000225578
0.000225569
0.000225555
0.000225536
0.000225532
0.000225502
0.000225494
0.000225491
0.000225444
0.000225465
0.000225423
0.000225388
0.00022542
0.000225327
0.00022535
0.000225352
0.000225246
0.000225304
0.000225239
0.344338
0.121594
0.0188594
0.00109189
0.000255735
0.00022721
0.000226104
0.000226046
0.000226037
0.000226023
0.000226015
0.000225994
0.000225977
0.000225972
0.000225934
0.000225934
0.000225911
0.000225854
0.000225894
0.000225809
0.000225823
0.000225846
0.00022572
0.00022579
0.000225729
0.000225624
0.000225712
0.00022558
0.000225589
0.308464
0.105649
0.0155012
0.000968075
0.000255959
0.000227917
0.000226655
0.000226582
0.000226557
0.000226548
0.000226522
0.000226516
0.000226505
0.000226463
0.000226485
0.000226432
0.0002264
0.000226427
0.000226304
0.000226366
0.000226339
0.000226202
0.000226299
0.00022619
0.000226126
0.000226215
0.000226045
0.000226084
0.000226053
0.273274
0.0904841
0.0125873
0.000863614
0.000256335
0.000228764
0.000227329
0.000227222
0.000227215
0.000227189
0.000227187
0.000227157
0.000227124
0.000227142
0.000227053
0.000227076
0.000227072
0.000226939
0.00022702
0.00022693
0.00022682
0.000226927
0.000226808
0.000226731
0.000226827
0.000226614
0.000226654
0.000226617
0.000226451
0.239173
0.0763175
0.010114
0.000775741
0.000256882
0.000229768
0.000228129
0.000228019
0.000227973
0.000227986
0.00022794
0.000227944
0.000227933
0.000227834
0.0002279
0.000227825
0.000227731
0.000227808
0.000227705
0.000227623
0.000227729
0.000227534
0.000227458
0.000227619
0.000227329
0.000227353
0.000227323
0.000227153
0.000227219
0.20657
0.0633427
0.00805997
0.000702035
0.000257637
0.000230926
0.000229093
0.000228916
0.000228923
0.000228858
0.000228894
0.000228836
0.000228791
0.000228849
0.000228693
0.00022873
0.000228749
0.0002286
0.000228564
0.000228681
0.000228418
0.000228421
0.000228556
0.000228202
0.000228304
0.000228249
0.000227976
0.000228064
0.000227869
0.175864
0.051714
0.00638941
0.000640408
0.000258614
0.00023229
0.000230199
0.000230046
0.000229944
0.000230001
0.000229903
0.000229937
0.000229937
0.000229779
0.000229918
0.000229764
0.000229691
0.000229787
0.000229766
0.000229473
0.000229631
0.0002296
0.000229257
0.000229422
0.000229253
0.000229027
0.00022916
0.000228848
0.000228868
0.147419
0.0415316
0.00505604
0.000589065
0.000259834
0.000233848
0.000231549
0.000231245
0.00023128
0.000231173
0.000231248
0.000231203
0.000231125
0.000231221
0.000230968
0.000231215
0.000231137
0.000230776
0.000230917
0.00023107
0.000230721
0.000230551
0.000230767
0.000230507
0.000230373
0.000230439
0.000230042
0.000230145
0.000229932
0.121548
0.0328308
0.00400836
0.000546412
0.000261315
0.000235646
0.000233017
0.000232782
0.00023263
0.000232713
0.000232655
0.000232611
0.000232669
0.000232578
0.000232768
0.00023236
0.000232411
0.000232776
0.000232374
0.000232109
0.00023238
0.000232504
0.000231934
0.00023194
0.000232021
0.000231691
0.000231724
0.000231254
0.000231255
0.0984834
0.0255782
0.00319458
0.000511019
0.000263069
0.000237658
0.00023475
0.000234346
0.000234352
0.000234283
0.000234289
0.000234347
0.000234307
0.000234326
0.000234137
0.000234459
0.000234484
0.000234024
0.000234168
0.000234345
0.000234047
0.000233679
0.000234047
0.000233851
0.000233359
0.000233373
0.000233177
0.000233337
0.000232731
0.078363
0.0196784
0.00256668
0.000481609
0.000265078
0.000239896
0.000236666
0.00023622
0.000236126
0.000236172
0.000236163
0.000236236
0.000236128
0.00023615
0.000236484
0.000236097
0.000236053
0.000236443
0.000236414
0.000235884
0.000236151
0.000236258
0.000235637
0.000235793
0.000235721
0.000235723
0.000235348
0.000234671
0.000234938
0.0612121
0.0149878
0.00208308
0.000457056
0.000267249
0.000242438
0.000238731
0.000238278
0.00023821
0.000238145
0.000238384
0.000238158
0.000238364
0.000238557
0.000238152
0.00023866
0.000238702
0.00023837
0.000238282
0.000238923
0.000238361
0.000238086
0.000238608
0.000238265
0.000238228
0.000237521
0.000237727
0.00023765
0.000236723
0.0469425
0.0113336
0.00170959
0.000436303
0.000269661
0.000245022
0.000241241
0.0002404
0.000240399
0.000240631
0.000240331
0.000240799
0.000240822
0.000240595
0.000241071
0.000240866
0.000240981
0.000241377
0.000241502
0.000240873
0.00024158
0.000241466
0.000240945
0.000240943
0.000240593
0.000241155
0.000240527
0.000239806
0.000240103
0.0353609
0.00853454
0.00141934
0.000418547
0.000272006
0.00024812
0.000243483
0.000243008
0.000242889
0.000242678
0.00024335
0.000243174
0.000243121
0.000243612
0.00024372
0.00024399
0.000243788
0.000244042
0.000244188
0.000244881
0.000244087
0.000244848
0.000244335
0.000243893
0.000244611
0.000243673
0.000243996
0.000243882
0.000242809
0.026191
0.00641795
0.00119175
0.000402952
0.000274571
0.000250864
0.000246595
0.000245327
0.000245306
0.00024583
0.000245407
0.000245905
0.000246548
0.000246265
0.000246544
0.000246711
0.000247577
0.00024773
0.000247454
0.000247416
0.000248401
0.000247862
0.000248657
0.000248977
0.00024765
0.000248217
0.000247558
0.000247614
0.000247214
0.0191038
0.00483132
0.0010114
0.000389093
0.000276698
0.000254336
0.000248899
0.000248322
0.000248256
0.000247862
0.000248909
0.000248878
0.000248712
0.000250018
0.00024985
0.00025001
0.000250962
0.000250618
0.000251746
0.000252262
0.000252
0.000252691
0.000252301
0.000252583
0.00025342
0.000252376
0.000252706
0.000251733
0.000251963
0.0137504
0.00364784
0.000866958
0.000376331
0.000278938
0.000257044
0.000252295
0.000250903
0.000250661
0.000251615
0.000251054
0.00025154
0.000253212
0.000252477
0.00025316
0.000254451
0.000253906
0.000255649
0.000255735
0.000255816
0.000257299
0.000256853
0.000258106
0.000257692
0.000257833
0.000258671
0.000257576
0.000258239
0.000257067
0.00979123
0.00276688
0.000750068
0.000364532
0.000280478
0.000260341
0.000254864
0.000253717
0.000254123
0.000253526
0.000254853
0.000255309
0.000255099
0.000256465
0.000257184
0.000257648
0.000259016
0.000258843
0.000259828
0.000261706
0.000261493
0.000263458
0.000262814
0.000263819
0.000264197
0.000264312
0.000265474
0.000264133
0.000264519
0.006918
0.00211115
0.000654727
0.000353301
0.000281807
0.000263034
0.000257695
0.000256998
0.000256091
0.000257484
0.000257346
0.000257532
0.000259227
0.000259702
0.000261345
0.000261048
0.000261658
0.000264708
0.000265032
0.000265888
0.000267595
0.000267861
0.000270973
0.000270929
0.000271519
0.000272053
0.000271837
0.000272659
0.000271438
0.00486661
0.00162286
0.000576551
0.000342604
0.000282609
0.000265356
0.000260959
0.000258965
0.00025997
0.000259537
0.000260244
0.000261567
0.000262088
0.000263816
0.000263592
0.000265477
0.000267895
0.000268135
0.000270161
0.000270697
0.000273711
0.000276276
0.000276258
0.000278633
0.000279912
0.000280995
0.000282412
0.000281414
0.00028222
0.0034218
0.00125955
0.000512308
0.000332491
0.00028261
0.000268136
0.000262528
0.000262647
0.000261783
0.000262629
0.000263483
0.000264487
0.000265065
0.000265648
0.000268978
0.000270141
0.000270637
0.000272935
0.000274233
0.000277665
0.000278813
0.000280933
0.000286455
0.000286785
0.000289321
0.000290318
0.000291312
0.000294229
0.000292606
0.00241522
0.00098958
0.000459585
0.000322726
0.000282504
0.000269046
0.000266161
0.000264046
0.000264974
0.000265492
0.000266123
0.000266369
0.000268228
0.000270942
0.000271148
0.000273621
0.00027574
0.000276808
0.000280236
0.000282138
0.000286679
0.000288335
0.000290756
0.000298326
0.000299158
0.000303236
0.000304827
0.000305716
0.000308332
0.00171955
0.000789026
0.000416287
0.000313815
0.000281634
0.000271437
0.000267051
0.000267273
0.000267061
0.000267324
0.000268217
0.000270535
0.000271664
0.000272312
0.000275408
0.000275865
0.000279789
0.00028278
0.000284091
0.000289024
0.000290998
0.000297112
0.000299303
0.00030311
0.000313752
0.000315293
0.000320612
0.000323932
0.000324406
0.00124134
0.000640083
0.000380997
0.000305346
0.000280762
0.000271566
0.00026983
0.000268429
0.000269183
0.000270264
0.000270752
0.000271916
0.000273178
0.000276375
0.000277173
0.000281961
0.000282342
0.000285879
0.000290332
0.000292548
0.000298218
0.000301619
0.000310988
0.000315247
0.00032013
0.000334775
0.000336034
0.000342485
0.000346752
0.000913745
0.000529736
0.000352346
0.000297978
0.000279219
0.000272796
0.000270436
0.000270863
0.000270869
0.000271504
0.0002731
0.000274058
0.000276546
0.000277777
0.000281581
0.000282788
0.000288095
0.000289205
0.000293809
0.000298391
0.000301946
0.00030992
0.000315054
0.000326648
0.000335884
0.000342881
0.000364281
0.00036482
0.00037264
0.000689751
0.000448242
0.000329422
0.000291283
0.000278055
0.000272807
0.000272174
0.000271655
0.000272977
0.000273211
0.000274702
0.000276351
0.000277677
0.000280403
0.000282666
0.000286212
0.000288157
0.000295467
0.00029755
0.000301635
0.000310401
0.000315073
0.000324693
0.000330907
0.000346594
0.000360282
0.000373357
0.00040547
0.000405711
0.000537061
0.000388548
0.00031137
0.000285796
0.000276558
0.000273197
0.00027304
0.000272922
0.000274134
0.000274679
0.000276046
0.000277571
0.000280298
0.000281579
0.00028479
0.000287124
0.000291831
0.000294417
0.000302603
0.000305782
0.000313425
0.000321326
0.000331295
0.000342632
0.000352262
0.00037392
0.000397713
0.000418823
0.000467621
0.000433213
0.000345172
0.000297368
0.000281119
0.000275244
0.000273453
0.00027353
0.000273615
0.000275574
0.00027519
0.000278959
0.000278848
0.000281463
0.000284051
0.000287425
0.000289159
0.000294694
0.000297322
0.000302637
0.000308398
0.000316118
0.000323748
0.000335649
0.000345234
0.000363909
0.000379846
0.000417045
0.000441779
0.000501001
0.000363684
0.000314489
0.000287088
0.000277661
0.000274391
0.00027363
0.000274484
0.000274001
0.000276895
0.000276293
0.000280101
0.000279738
0.000283733
0.000284423
0.000288649
0.000290456
0.000296326
0.000299462
0.000307175
0.000316567
0.000335916
0.00038286
0.000446107
0.00060567
0.00075828
0.00114065
0.00134078
0.00173206
0.00162763
0.000317348
0.000293122
0.000279367
0.000274578
0.00027328
0.00027366
0.000273812
0.000274555
0.000276971
0.000277311
0.000280982
0.000282097
0.000289189
0.000293828
0.000316009
0.000353191
0.00048209
0.000698199
0.0013372
0.00227254
0.0039584
0.00755043
0.011047
0.0182225
0.023488
0.0351918
0.0407597
0.0545257
0.0510413
0.00028926
0.000279287
0.000274324
0.000273672
0.000273777
0.000275152
0.000277363
0.000280937
0.00029454
0.000314321
0.000404041
0.000505847
0.000950687
0.00149964
0.00338072
0.00556243
0.0109122
0.0164955
0.0281342
0.0404812
0.0584917
0.0829194
0.108213
0.146365
0.17872
0.240364
0.279421
0.379849
0.38948
0.000271574
0.000273569
0.000278874
0.00029239
0.000320356
0.000401315
0.000592219
0.000801791
0.00167648
0.00261196
0.00572458
0.0082893
0.0159254
0.0223081
0.0379026
0.0523266
0.0766401
0.101382
0.136648
0.176019
0.225254
0.285689
0.35441
0.445697
0.542742
0.693441
0.830515
1.11733
1.27191
0.000275125
0.000341571
0.000516074
0.000928938
0.00161598
0.00321535
0.00596941
0.00861588
0.0159529
0.0225265
0.037761
0.0493574
0.0745223
0.0942568
0.132289
0.168607
0.217862
0.271332
0.340582
0.418742
0.515012
0.628181
0.766093
0.936225
1.14409
1.42364
1.76145
2.27981
2.77432
0.000990134
0.000990135
0.000990135
0.000990136
0.000990136
0.000990137
0.000990137
0.000990137
0.000990138
0.000990138
0.000990139
0.000990139
0.000990139
0.00099014
0.00099014
0.000990141
0.000990141
0.000990141
0.000990142
0.000990142
0.000990142
0.000990143
0.000990143
0.000990143
0.000990144
0.000990144
0.000990144
0.000990145
0.000990145
0.000990146
0.000990146
0.000990146
0.000990147
0.000990147
0.000990147
0.000990148
0.000990148
0.000990148
0.000990149
0.000990149
0.000990149
0.00099015
0.00099015
0.00099015
0.000990151
0.000990151
0.000990151
0.000990152
0.000990152
0.000990152
0.000990153
0.000990153
0.000990153
0.000990154
0.000990154
0.000990154
0.000990155
0.000990155
0.000990155
0.000990155
0.000990156
0.000990156
0.000990156
0.000990157
0.000990157
0.000990157
0.000990158
0.000990158
0.000990158
0.000990158
0.000990159
0.000990159
0.000990159
0.000990159
0.00099016
0.00099016
0.00099016
0.000990161
0.000990161
0.000990161
0.000990161
0.000990162
0.000990162
0.000990162
0.000990162
0.000990162
0.000990163
0.000990163
0.000990163
0.000990163
0.000990164
0.000990164
0.000990164
0.000990164
0.000990164
0.000990165
0.000990165
0.000990165
0.000990165
0.000990165
0.000990165
0.000990166
0.000990166
0.000990166
0.000990166
0.000990166
0.000990166
0.000990166
0.000990166
0.000990166
0.000990166
0.000990166
0.000990166
0.000990166
0.000990167
0.000990167
0.000990167
0.000990168
0.000990168
0.000990168
0.000990168
0.000990168
0.000990169
0.000990169
0.000990169
0.000990169
0.000990169
0.000990169
0.000990169
0.000990169
0.000990169
0.000990169
0.00099017
0.00099017
0.00099017
0.000990171
0.000990172
0.00099027
0.00100816
4.09129e-005
4.0914e-005
4.09148e-005
4.09156e-005
4.09164e-005
4.09172e-005
4.09179e-005
4.09186e-005
4.09193e-005
4.092e-005
4.09207e-005
4.09214e-005
4.0922e-005
4.09227e-005
4.09234e-005
4.0924e-005
4.09246e-005
4.09253e-005
4.09259e-005
4.09265e-005
4.09272e-005
4.09278e-005
4.09284e-005
4.0929e-005
4.09297e-005
4.09303e-005
4.09309e-005
4.09315e-005
4.09321e-005
4.09328e-005
4.09334e-005
4.0934e-005
4.09346e-005
4.09353e-005
4.09359e-005
4.09365e-005
4.09371e-005
4.09377e-005
4.09383e-005
4.0939e-005
4.09396e-005
4.09402e-005
4.09408e-005
4.09414e-005
4.0942e-005
4.09426e-005
4.09432e-005
4.09438e-005
4.09444e-005
4.0945e-005
4.09456e-005
4.09462e-005
4.09468e-005
4.09474e-005
4.0948e-005
4.09486e-005
4.09491e-005
4.09497e-005
4.09503e-005
4.09508e-005
4.09514e-005
4.09519e-005
4.09525e-005
4.0953e-005
4.09536e-005
4.09541e-005
4.09546e-005
4.09551e-005
4.09557e-005
4.09562e-005
4.09567e-005
4.09572e-005
4.09577e-005
4.09582e-005
4.09586e-005
4.09591e-005
4.09596e-005
4.09601e-005
4.09605e-005
4.0961e-005
4.09614e-005
4.09619e-005
4.09623e-005
4.09627e-005
4.09632e-005
4.09636e-005
4.0964e-005
4.09644e-005
4.09648e-005
4.09652e-005
4.09656e-005
4.0966e-005
4.09663e-005
4.09667e-005
4.0967e-005
4.09674e-005
4.09677e-005
4.0968e-005
4.09683e-005
4.09686e-005
4.09689e-005
4.09692e-005
4.09694e-005
4.09697e-005
4.09699e-005
4.09701e-005
4.09703e-005
4.09704e-005
4.09706e-005
4.09707e-005
4.09709e-005
4.0971e-005
4.09711e-005
4.09713e-005
4.09717e-005
4.09721e-005
4.09726e-005
4.0973e-005
4.09733e-005
4.09736e-005
4.09739e-005
4.09741e-005
4.09742e-005
4.09743e-005
4.09744e-005
4.09745e-005
4.09746e-005
4.09746e-005
4.09747e-005
4.09748e-005
4.09749e-005
4.09751e-005
4.09753e-005
4.09757e-005
4.09761e-005
4.09762e-005
4.09728e-005
3.85765e-005
4.21741e-005
3.47255e-006
3.47261e-006
3.47264e-006
3.47268e-006
3.47271e-006
3.47273e-006
3.47275e-006
3.47277e-006
3.47277e-006
3.47278e-006
3.47278e-006
3.47278e-006
3.47277e-006
3.47276e-006
3.47275e-006
3.47274e-006
3.47272e-006
3.4727e-006
3.47269e-006
3.47267e-006
3.47265e-006
3.47262e-006
3.4726e-006
3.47257e-006
3.47254e-006
3.47252e-006
3.47249e-006
3.47246e-006
3.47243e-006
3.47241e-006
3.47238e-006
3.47235e-006
3.47232e-006
3.47229e-006
3.47226e-006
3.47223e-006
3.4722e-006
3.47217e-006
3.47215e-006
3.47212e-006
3.47209e-006
3.47206e-006
3.47204e-006
3.47201e-006
3.47198e-006
3.47195e-006
3.47193e-006
3.4719e-006
3.47187e-006
3.47185e-006
3.47183e-006
3.4718e-006
3.47178e-006
3.47176e-006
3.47174e-006
3.47172e-006
3.4717e-006
3.47168e-006
3.47165e-006
3.47164e-006
3.47162e-006
3.4716e-006
3.47159e-006
3.47157e-006
3.47155e-006
3.47153e-006
3.47152e-006
3.4715e-006
3.47149e-006
3.47148e-006
3.47147e-006
3.47145e-006
3.47144e-006
3.47143e-006
3.47142e-006
3.47141e-006
3.4714e-006
3.47139e-006
3.47139e-006
3.47138e-006
3.47137e-006
3.47136e-006
3.47136e-006
3.47135e-006
3.47134e-006
3.47134e-006
3.47134e-006
3.47133e-006
3.47133e-006
3.47132e-006
3.47132e-006
3.47131e-006
3.47131e-006
3.4713e-006
3.4713e-006
3.4713e-006
3.47129e-006
3.47129e-006
3.47128e-006
3.47128e-006
3.47127e-006
3.47126e-006
3.47126e-006
3.47125e-006
3.47124e-006
3.47123e-006
3.47122e-006
3.47121e-006
3.4712e-006
3.47119e-006
3.47117e-006
3.47116e-006
3.47114e-006
3.47112e-006
3.47111e-006
3.47109e-006
3.47107e-006
3.47105e-006
3.47102e-006
3.47099e-006
3.47096e-006
3.47092e-006
3.47087e-006
3.47082e-006
3.47076e-006
3.47071e-006
3.47064e-006
3.47057e-006
3.47049e-006
3.47041e-006
3.47031e-006
3.47022e-006
3.47013e-006
3.46998e-006
3.46995e-006
3.4697e-006
3.52761e-006
3.19037e-005
0.00368687
5.98616e-006
5.98499e-006
5.98371e-006
5.9824e-006
5.98107e-006
5.97962e-006
5.97815e-006
5.97662e-006
5.97499e-006
5.97335e-006
5.97166e-006
5.96988e-006
5.96808e-006
5.96623e-006
5.96431e-006
5.96235e-006
5.96036e-006
5.95827e-006
5.9562e-006
5.95406e-006
5.95193e-006
5.9497e-006
5.94747e-006
5.94522e-006
5.94293e-006
5.94062e-006
5.93831e-006
5.93595e-006
5.93361e-006
5.93122e-006
5.92883e-006
5.92643e-006
5.92405e-006
5.9216e-006
5.91918e-006
5.91673e-006
5.9143e-006
5.91187e-006
5.90944e-006
5.90704e-006
5.90458e-006
5.90214e-006
5.89973e-006
5.89734e-006
5.89497e-006
5.89256e-006
5.89016e-006
5.88779e-006
5.88545e-006
5.88314e-006
5.88084e-006
5.87857e-006
5.87629e-006
5.87405e-006
5.87182e-006
5.86964e-006
5.86748e-006
5.86529e-006
5.86314e-006
5.86105e-006
5.85894e-006
5.8569e-006
5.85487e-006
5.8529e-006
5.8509e-006
5.84898e-006
5.84703e-006
5.84514e-006
5.84326e-006
5.84146e-006
5.83965e-006
5.83787e-006
5.8361e-006
5.83436e-006
5.83265e-006
5.83097e-006
5.82932e-006
5.82775e-006
5.82616e-006
5.8246e-006
5.82306e-006
5.82156e-006
5.82007e-006
5.81861e-006
5.81718e-006
5.81577e-006
5.81443e-006
5.81313e-006
5.81182e-006
5.81052e-006
5.80926e-006
5.80802e-006
5.80682e-006
5.80563e-006
5.80449e-006
5.80338e-006
5.80226e-006
5.80118e-006
5.80011e-006
5.79911e-006
5.79813e-006
5.79718e-006
5.7962e-006
5.79531e-006
5.79437e-006
5.79353e-006
5.79265e-006
5.79183e-006
5.791e-006
5.79019e-006
5.7894e-006
5.78866e-006
5.78787e-006
5.78709e-006
5.78632e-006
5.78556e-006
5.78478e-006
5.78402e-006
5.78331e-006
5.78258e-006
5.78194e-006
5.78127e-006
5.78063e-006
5.78002e-006
5.77937e-006
5.77882e-006
5.7782e-006
5.77762e-006
5.77702e-006
5.77646e-006
5.77583e-006
5.77546e-006
5.77451e-006
5.7746e-006
5.77295e-006
5.77777e-006
8.05512e-006
0.000840234
0.0395067
3.96029e-005
3.95916e-005
3.95804e-005
3.95688e-005
3.9557e-005
3.9544e-005
3.95307e-005
3.9517e-005
3.95025e-005
3.9487e-005
3.94711e-005
3.94549e-005
3.94377e-005
3.94203e-005
3.94019e-005
3.93832e-005
3.93638e-005
3.93445e-005
3.93243e-005
3.93033e-005
3.92828e-005
3.92618e-005
3.92397e-005
3.92182e-005
3.91959e-005
3.91743e-005
3.91517e-005
3.91293e-005
3.91064e-005
3.90834e-005
3.90605e-005
3.9038e-005
3.90142e-005
3.89909e-005
3.89677e-005
3.89437e-005
3.89205e-005
3.88971e-005
3.88745e-005
3.88499e-005
3.88261e-005
3.88036e-005
3.87801e-005
3.87567e-005
3.87335e-005
3.87106e-005
3.86877e-005
3.86652e-005
3.86423e-005
3.86204e-005
3.8598e-005
3.85759e-005
3.85544e-005
3.85328e-005
3.85117e-005
3.84905e-005
3.84693e-005
3.84487e-005
3.84284e-005
3.84083e-005
3.83879e-005
3.83682e-005
3.83496e-005
3.83297e-005
3.83105e-005
3.82923e-005
3.82735e-005
3.82552e-005
3.82375e-005
3.82199e-005
3.82024e-005
3.81852e-005
3.81682e-005
3.81518e-005
3.81355e-005
3.81191e-005
3.81035e-005
3.80883e-005
3.80731e-005
3.80575e-005
3.80429e-005
3.80284e-005
3.80142e-005
3.8e-005
3.79863e-005
3.79731e-005
3.79605e-005
3.79473e-005
3.79349e-005
3.79226e-005
3.79103e-005
3.7899e-005
3.78871e-005
3.78755e-005
3.78649e-005
3.78539e-005
3.78434e-005
3.78327e-005
3.78229e-005
3.78134e-005
3.78037e-005
3.77942e-005
3.77856e-005
3.77764e-005
3.77679e-005
3.77591e-005
3.77504e-005
3.77423e-005
3.77349e-005
3.77275e-005
3.77201e-005
3.7713e-005
3.77058e-005
3.76992e-005
3.76925e-005
3.76855e-005
3.7679e-005
3.76716e-005
3.76641e-005
3.76567e-005
3.76495e-005
3.76427e-005
3.76349e-005
3.76283e-005
3.76218e-005
3.76147e-005
3.7609e-005
3.76018e-005
3.75948e-005
3.75888e-005
3.75807e-005
3.75745e-005
3.75662e-005
3.75611e-005
3.75492e-005
3.76354e-005
0.000102033
0.0109793
0.17754
0.00013355
0.000133531
0.000133512
0.000133492
0.000133471
0.000133448
0.000133425
0.000133401
0.000133375
0.000133348
0.000133321
0.000133291