/*--------------------------------*- C++ -*----------------------------------*\
| =========                 |                                                 |
| \\      /  F ield         | OpenFOAM: The Open Source CFD Toolbox           |
|  \\    /   O peration     | Version:  5.x                                   |
|   \\  /    A nd           | Web:      www.OpenFOAM.org                      |
|    \\/     M anipulation  |                                                 |
\*---------------------------------------------------------------------------*/
/*   Windows 32 and 64 bit porting by blueCAPE: http://www.bluecape.com.pt   *\
|  Based on Windows porting (2.0.x v4) by Symscape: http://www.symscape.com   |
\*---------------------------------------------------------------------------*/
FoamFile
{
    version     2.0;
    format      ascii;
    class       volScalarField;
    location    "50";
    object      nut;
}
// * * * * * * * * * * * * * * * * * * * * * * * * * * * * * * * * * * * * * //

dimensions      [0 2 -1 0 0 0 0];

internalField   nonuniform List<scalar> 
43900
(
5.96037e-005
5.80632e-005
5.80675e-005
5.80586e-005
5.80587e-005
5.80588e-005
5.80588e-005
5.80589e-005
5.8059e-005
5.80591e-005
5.80592e-005
5.80592e-005
5.80593e-005
5.80593e-005
5.80594e-005
5.80594e-005
5.80595e-005
5.80595e-005
5.80596e-005
5.80596e-005
5.80597e-005
5.80597e-005
5.80598e-005
5.80598e-005
5.80598e-005
5.80599e-005
5.80599e-005
5.806e-005
5.806e-005
5.07543e-005
4.39149e-006
4.15049e-006
4.58704e-006
4.59321e-006
4.59336e-006
4.5935e-006
4.59372e-006
4.59392e-006
4.59408e-006
4.59424e-006
4.59438e-006
4.59453e-006
4.59466e-006
4.5948e-006
4.59492e-006
4.59504e-006
4.59516e-006
4.59527e-006
4.59537e-006
4.59548e-006
4.59558e-006
4.59567e-006
4.59576e-006
4.59585e-006
4.59594e-006
4.59602e-006
4.5961e-006
4.59615e-006
0.0490967
0.00388377
3.82605e-005
8.8495e-007
7.50177e-007
7.48756e-007
7.48869e-007
7.48901e-007
7.48954e-007
7.48997e-007
7.49038e-007
7.49074e-007
7.49107e-007
7.49139e-007
7.49167e-007
7.49191e-007
7.49214e-007
7.49232e-007
7.49249e-007
7.49263e-007
7.49276e-007
7.49284e-007
7.49292e-007
7.49299e-007
7.49305e-007
7.49293e-007
7.49293e-007
7.49292e-007
7.49287e-007
0.247536
0.0813884
0.00767822
9.56347e-005
5.94245e-006
5.52549e-006
5.52488e-006
5.5254e-006
5.5262e-006
5.52682e-006
5.52725e-006
5.52756e-006
5.52779e-006
5.528e-006
5.52806e-006
5.52803e-006
5.52797e-006
5.5278e-006
5.52757e-006
5.5272e-006
5.52681e-006
5.52625e-006
5.5257e-006
5.52503e-006
5.5243e-006
5.52326e-006
5.5222e-006
5.52107e-006
5.52e-006
0.403909
0.225158
0.0591093
0.00259198
0.000123024
0.000116303
0.000116343
0.000116367
0.0001164
0.000116426
0.000116449
0.00011647
0.000116485
0.0001165
0.00011651
0.000116519
0.000116521
0.000116523
0.000116521
0.000116517
0.000116508
0.000116502
0.000116489
0.000116474
0.000116453
0.000116426
0.000116395
0.000116363
0.000116338
0.459786
0.281293
0.104946
0.00883923
0.000533532
0.000531444
0.000531577
0.000531621
0.00053167
0.000531714
0.000531749
0.000531777
0.000531802
0.000531822
0.000531832
0.000531835
0.000531837
0.000531836
0.000531824
0.000531806
0.000531783
0.000531769
0.000531741
0.000531702
0.00053166
0.000531606
0.000531545
0.000531479
0.000531431
0.47684
0.299072
0.12171
0.0125024
0.000798519
0.000789396
0.000789455
0.000789468
0.000789479
0.000789489
0.000789497
0.000789498
0.0007895
0.000789498
0.000789494
0.000789483
0.000789478
0.000789464
0.000789448
0.000789426
0.00078941
0.000789392
0.00078937
0.000789337
0.00078931
0.000789275
0.000789238
0.000789197
0.000789158
0.476772
0.300267
0.124311
0.0133199
0.000902264
0.000892957
0.000893007
0.000893002
0.000893008
0.000893001
0.000893004
0.000893003
0.000892997
0.000892987
0.000892982
0.000892978
0.000892967
0.000892958
0.000892947
0.000892936
0.000892918
0.00089291
0.000892898
0.000892882
0.000892861
0.000892842
0.000892819
0.000892798
0.000892774
0.474425
0.299263
0.123808
0.0132479
0.000936992
0.000928382
0.000928419
0.000928414
0.000928416
0.000928412
0.00092841
0.000928411
0.000928404
0.0009284
0.0009284
0.000928399
0.000928386
0.000928382
0.000928376
0.000928374
0.000928361
0.00092836
0.000928351
0.000928348
0.000928333
0.000928321
0.00092831
0.000928311
0.000928297
0.468744
0.294613
0.120849
0.0126899
0.000944237
0.000939115
0.000939145
0.000939152
0.000939143
0.000939149
0.000939137
0.000939137
0.000939134
0.000939142
0.00093913
0.000939136
0.000939131
0.000939122
0.000939121
0.000939122
0.000939121
0.000939118
0.000939106
0.000939107
0.000939106
0.000939102
0.000939101
0.000939092
0.000939089
0.462747
0.289733
0.116958
0.0118858
0.000943207
0.000942077
0.000942122
0.000942134
0.000942123
0.000942133
0.000942116
0.000942116
0.000942113
0.000942128
0.000942115
0.000942103
0.000942114
0.000942111
0.000942109
0.000942108
0.00094211
0.000942107
0.000942098
0.000942099
0.000942101
0.000942105
0.000942098
0.000942086
0.000942094
0.456156
0.284481
0.113066
0.0111441
0.000939372
0.000942829
0.000942907
0.000942921
0.000942909
0.000942921
0.000942908
0.000942905
0.000942905
0.000942918
0.00094291
0.000942881
0.000942894
0.000942901
0.0009429
0.000942899
0.000942896
0.000942896
0.000942892
0.000942892
0.000942887
0.000942898
0.000942887
0.000942881
0.000942886
0.448977
0.27878
0.108936
0.0103979
0.000935629
0.000943004
0.000943128
0.000943136
0.000943127
0.000943134
0.000943125
0.000943122
0.000943121
0.00094313
0.000943128
0.000943099
0.000943101
0.000943118
0.000943118
0.000943117
0.000943106
0.000943114
0.000943113
0.000943111
0.000943094
0.000943109
0.000943103
0.0009431
0.000943094
0.441216
0.272634
0.10456
0.00964855
0.000932
0.000943037
0.000943205
0.000943212
0.00094321
0.000943211
0.000943204
0.000943204
0.000943196
0.000943204
0.0009432
0.000943184
0.000943177
0.000943197
0.000943197
0.000943197
0.000943179
0.000943193
0.000943193
0.000943193
0.000943164
0.000943181
0.00094318
0.000943173
0.000943164
0.432815
0.266007
0.0999327
0.00890215
0.000928556
0.000943034
0.00094326
0.000943261
0.000943257
0.00094326
0.00094326
0.000943259
0.000943253
0.000943256
0.000943244
0.00094324
0.000943238
0.000943254
0.000943254
0.000943253
0.000943236
0.000943246
0.000943246
0.000943244
0.000943215
0.000943232
0.000943232
0.000943217
0.000943209
0.423714
0.258858
0.0950485
0.00816341
0.00092533
0.000943027
0.000943325
0.000943324
0.000943321
0.000943324
0.000943323
0.000943321
0.000943316
0.000943312
0.000943298
0.000943297
0.000943304
0.000943315
0.000943315
0.000943313
0.000943294
0.000943306
0.000943306
0.000943304
0.000943287
0.000943295
0.000943294
0.000943272
0.000943271
0.413866
0.251153
0.0899122
0.00743844
0.000922333
0.000943022
0.000943397
0.000943404
0.000943402
0.000943399
0.0009434
0.0009434
0.000943393
0.00094339
0.000943387
0.000943385
0.000943378
0.000943379
0.000943379
0.000943376
0.000943355
0.000943364
0.000943366
0.000943369
0.000943361
0.000943361
0.000943363
0.000943339
0.000943341
0.403235
0.242869
0.0845393
0.00673455
0.000919576
0.000943022
0.000943496
0.000943498
0.000943497
0.000943495
0.000943496
0.000943496
0.000943485
0.000943488
0.000943489
0.000943485
0.000943469
0.000943469
0.000943468
0.000943466
0.000943455
0.000943457
0.000943458
0.000943453
0.000943426
0.000943429
0.000943433
0.00094343
0.000943428
0.391786
0.233988
0.0789545
0.00605943
0.000917053
0.000943026
0.000943616
0.000943624
0.000943624
0.000943627
0.000943624
0.000943616
0.000943607
0.00094361
0.000943611
0.000943608
0.00094359
0.000943587
0.000943587
0.000943587
0.000943585
0.000943584
0.00094358
0.000943571
0.000943537
0.000943528
0.000943519
0.000943522
0.000943527
0.379495
0.224496
0.0731926
0.0054205
0.000914749
0.000943047
0.000943789
0.000943801
0.000943799
0.00094379
0.000943786
0.000943789
0.000943792
0.000943791
0.000943783
0.00094377
0.000943751
0.000943751
0.000943752
0.000943746
0.000943734
0.000943717
0.000943708
0.000943696
0.000943661
0.000943651
0.000943648
0.000943659
0.00094367
0.366341
0.214389
0.0672975
0.00482431
0.00091264
0.000943102
0.000944019
0.000944028
0.000944023
0.000944015
0.000944016
0.000944017
0.000944007
0.000943986
0.000943975
0.000943971
0.000943964
0.000943956
0.000943947
0.000943936
0.00094391
0.000943897
0.000943894
0.00094389
0.000943868
0.000943865
0.000943863
0.00094386
0.000943844
0.352318
0.203674
0.0613238
0.00427636
0.000910745
0.000943182
0.000944294
0.000944307
0.000944304
0.000944297
0.000944289
0.000944276
0.000944268
0.000944256
0.000944248
0.000944246
0.000944238
0.000944227
0.00094422
0.000944204
0.000944158
0.000944137
0.00094413
0.000944126
0.000944127
0.000944127
0.000944117
0.000944096
0.000944069
0.337428
0.192367
0.0553356
0.00378054
0.000909053
0.000943279
0.000944641
0.000944671
0.000944667
0.000944655
0.000944644
0.000944646
0.000944645
0.000944635
0.00094462
0.000944589
0.000944556
0.000944534
0.00094452
0.000944512
0.00094448
0.000944469
0.00094447
0.00094446
0.000944449
0.000944418
0.000944401
0.000944393
0.000944354
0.321687
0.180502
0.0494053
0.00333889
0.000907629
0.000943446
0.000945102
0.000945138
0.000945128
0.000945123
0.000945116
0.000945094
0.000945073
0.000945051
0.000945035
0.000945002
0.000944973
0.00094496
0.000944952
0.000944928
0.000944913
0.000944887
0.000944856
0.00094486
0.000944821
0.000944819
0.000944812
0.000944756
0.000944734
0.305128
0.16813
0.0436122
0.00295156
0.000906518
0.000943685
0.000945673
0.000945722
0.000945715
0.000945703
0.000945675
0.000945644
0.000945618
0.000945611
0.000945597
0.000945568
0.000945559
0.000945534
0.000945507
0.000945505
0.000945459
0.000945436
0.000945429
0.000945355
0.000945351
0.000945277
0.000945177
0.000945206
0.000945138
0.287801
0.155323
0.0380386
0.00261683
0.000905763
0.000944015
0.000946362
0.000946443
0.000946431
0.000946408
0.000946397
0.000946382
0.000946381
0.000946354
0.000946327
0.000946295
0.000946217
0.000946173
0.000946168
0.000946087
0.000946098
0.00094607
0.000945949
0.000945989
0.000945851
0.000945772
0.000945828
0.000945676
0.000945717
0.269772
0.142178
0.0327659
0.00233137
0.00090548
0.000944462
0.000947259
0.000947372
0.000947363
0.000947338
0.000947314
0.000947292
0.000947241
0.000947195
0.000947181
0.000947082
0.000947064
0.000947065
0.000946961
0.000947007
0.0009469
0.000946806
0.000946881
0.000946652
0.000946695
0.000946698
0.000946426
0.000946577
0.00094642
0.251134
0.128819
0.0278696
0.00209075
0.000905706
0.000945072
0.000948354
0.000948496
0.000948486
0.000948455
0.000948423
0.000948358
0.000948313
0.000948293
0.000948203
0.000948191
0.000948114
0.000947968
0.000948077
0.000947884
0.000947921
0.000947982
0.000947662
0.000947835
0.000947683
0.000947404
0.000947625
0.000947292
0.000947307
0.231998
0.1154
0.0234137
0.00188995
0.000906558
0.000945848
0.000949636
0.000949832
0.000949783
0.000949743
0.000949664
0.000949651
0.00094963
0.000949541
0.000949607
0.000949472
0.000949371
0.000949429
0.000949134
0.000949282
0.00094922
0.000948884
0.00094913
0.000948857
0.000948694
0.000948901
0.000948472
0.000948558
0.000948474
0.212506
0.102104
0.0194455
0.00172384
0.000908076
0.000946881
0.00095121
0.000951439
0.000951453
0.000951413
0.000951398
0.000951308
0.000951219
0.00095126
0.00095104
0.000951087
0.000951069
0.000950747
0.000950939
0.000950718
0.000950443
0.0009507
0.000950402
0.000950205
0.000950433
0.000949911
0.000949998
0.000949902
0.000949491
0.192825
0.0891341
0.0159908
0.00158764
0.000910323
0.000948206
0.000953065
0.000953458
0.000953398
0.00095344
0.000953334
0.000953335
0.000953307
0.000953063
0.000953218
0.000953035
0.000952794
0.000952969
0.000952712
0.000952513
0.00095276
0.00095226
0.000952071
0.000952455
0.00095173
0.000951782
0.000951701
0.000951277
0.000951425
0.17315
0.0767091
0.0130521
0.00147709
0.000913468
0.000949798
0.000955289
0.000955716
0.000955793
0.000955662
0.000955741
0.000955595
0.000955474
0.000955613
0.000955241
0.000955322
0.000955364
0.000954997
0.000954903
0.000955178
0.00095453
0.00095454
0.000954861
0.000953972
0.00095421
0.000954066
0.000953393
0.00095359
0.000953109
0.153706
0.0650454
0.0106084
0.00138858
0.000917585
0.000951838
0.000957844
0.000958563
0.000958434
0.000958583
0.000958349
0.000958415
0.000958403
0.000958
0.000958317
0.000957948
0.000957761
0.000957995
0.000957928
0.000957204
0.000957593
0.000957512
0.000956655
0.000957042
0.000956631
0.000956041
0.000956329
0.000955562
0.000955587
0.134742
0.0543392
0.00861923
0.00131906
0.0009228
0.00095436
0.000960986
0.000961637
0.000961836
0.000961611
0.000961794
0.00096168
0.000961485
0.000961688
0.000961074
0.000961641
0.00096144
0.000960529
0.000960876
0.000961247
0.000960372
0.000959933
0.000960449
0.00095981
0.000959433
0.000959559
0.000958585
0.000958815
0.000958283
0.116522
0.0447462
0.00702993
0.00126585
0.00092932
0.000957526
0.000964375
0.000965474
0.000965331
0.000965535
0.000965389
0.000965284
0.00096541
0.000965185
0.000965612
0.000964613
0.000964735
0.000965609
0.000964614
0.00096391
0.000964549
0.000964838
0.000963414
0.000963387
0.000963578
0.000962786
0.000962821
0.000961624
0.000961591
0.0993129
0.0363639
0.00577886
0.0012266
0.00093735
0.000961351
0.00096836
0.000969452
0.000969675
0.000969569
0.000969566
0.000969678
0.00096957
0.000969597
0.000969146
0.000969915
0.000969945
0.000968787
0.000969104
0.000969546
0.000968785
0.000967841
0.000968713
0.000968245
0.000966988
0.000966975
0.000966491
0.000966861
0.000965377
0.0833645
0.0292213
0.00480401
0.00119918
0.000946984
0.000965984
0.000972817
0.000974127
0.000974251
0.000974398
0.000974367
0.000974509
0.000974224
0.000974259
0.000974999
0.000974064
0.000973949
0.000974883
0.0009748
0.000973456
0.000974061
0.000974314
0.000972757
0.000973077
0.000972873
0.000972851
0.000971916
0.000970212
0.000970808
0.0688888
0.0232801
0.00404841
0.00118164
0.00095812
0.000971739
0.000977715
0.000979271
0.000979636
0.000979504
0.000980047
0.000979507
0.000979953
0.000980367
0.0009794
0.000980546
0.000980608
0.000979768
0.00097954
0.000981055
0.00097971
0.000978969
0.000980176
0.000979342
0.0009792
0.00097738
0.000977798
0.000977605
0.00097529
0.056039
0.0184448
0.00346307
0.00117201
0.000971097
0.000978137
0.00098376
0.000984778
0.000985158
0.000985888
0.000985194
0.00098625
0.000986278
0.000985711
0.000986767
0.000986275
0.000986516
0.000987355
0.000987597
0.000986032
0.000987662
0.0009874
0.000986094
0.000985999
0.000985127
0.000986388
0.000984908
0.000983009
0.000983647
0.0448939
0.014581
0.00300809
0.00116862
0.000985167
0.0009864
0.000989431
0.000991288
0.000991632
0.000991262
0.000992828
0.000992419
0.00099228
0.000993392
0.000993633
0.000994224
0.000993722
0.000994249
0.000994531
0.000996031
0.000994083
0.000995735
0.000994548
0.00099343
0.000995036
0.000992727
0.000993358
0.00099303
0.000990366
0.0354517
0.0115365
0.00265203
0.00116957
0.00100101
0.000994551
0.000997275
0.00099745
0.000997833
0.000999269
0.000998302
0.000999424
0.00100093
0.00100026
0.00100085
0.00100121
0.0010032
0.00100355
0.00100288
0.00100264
0.00100483
0.00100358
0.00100531
0.00100586
0.00100261
0.00100382
0.00100225
0.00100227
0.00100128
0.0276353
0.00916002
0.0023707
0.00117358
0.00101672
0.00100509
0.00100362
0.00100502
0.00100544
0.00100479
0.0010072
0.00100713
0.00100663
0.0010097
0.00100935
0.0010097
0.0010118
0.001011
0.0010135
0.0010148
0.00101408
0.00101545
0.00101444
0.001015
0.00101669
0.00101424
0.00101478
0.00101243
0.00101275
0.0213064
0.00731402
0.00214588
0.00117871
0.00103368
0.00101446
0.00101268
0.00101192
0.0010119
0.00101427
0.00101288
0.00101398
0.00101798
0.00101618
0.00101768
0.00102066
0.00101949
0.00102345
0.00102362
0.00102375
0.00102691
0.00102589
0.00102859
0.00102761
0.00102787
0.0010294
0.00102679
0.001028
0.00102523
0.0162867
0.00588203
0.0019638
0.0011839
0.00104824
0.00102563
0.00102012
0.00101951
0.00102077
0.00101943
0.00102264
0.0010237
0.00102309
0.00102625
0.00102794
0.001029
0.00103204
0.00103153
0.00103371
0.00103799
0.00103758
0.00104194
0.0010405
0.00104254
0.00104308
0.0010433
0.00104554
0.00104239
0.00104295
0.0123786
0.00477002
0.00181433
0.00118735
0.00106284
0.00103567
0.00102835
0.00102812
0.00102633
0.00102975
0.00102939
0.00102975
0.00103367
0.00103477
0.00103843
0.00103774
0.001039
0.00104598
0.00104681
0.00104875
0.00105243
0.00105288
0.00105963
0.00105972
0.0010611
0.00106148
0.00106092
0.0010624
0.00105949
0.00938502
0.00390508
0.00168986
0.00118813
0.00107463
0.00104478
0.00103767
0.0010339
0.00103642
0.00103534
0.00103691
0.00104002
0.00104122
0.00104514
0.00104451
0.00104875
0.0010545
0.00105497
0.00105927
0.00106052
0.00106719
0.00107321
0.00107277
0.0010773
0.00108021
0.00108346
0.00108573
0.00108345
0.00108467
0.00712354
0.00323207
0.00158462
0.00118568
0.00108313
0.00105472
0.00104287
0.00104357
0.00104147
0.00104347
0.00104553
0.00104776
0.00104917
0.00105037
0.00105809
0.00106074
0.00106171
0.00106684
0.00106976
0.00107725
0.00107978
0.00108439
0.001097
0.00109772
0.00110245
0.00110411
0.0011064
0.00111219
0.00110862
0.00543436
0.00270844
0.00149434
0.001179
0.00108908
0.00105929
0.00105324
0.0010478
0.00105008
0.00105123
0.00105258
0.001053
0.00105725
0.00106374
0.00106408
0.00106957
0.00107464
0.00107699
0.00108463
0.00108886
0.00109885
0.0011022
0.00110746
0.00112374
0.00112564
0.00113401
0.00113732
0.00113888
0.00114325
0.00418391
0.00230067
0.00141542
0.00116935
0.00109331
0.00106808
0.00105624
0.00105662
0.00105591
0.0010564
0.00105828
0.00106369
0.00106621
0.00106765
0.00107484
0.00107583
0.00108463
0.00109166
0.00109457
0.00110531
0.00110973
0.0011231
0.00112797
0.00113569
0.00115765
0.00116128
0.00117194
0.00118038
0.00118062
0.0032646
0.00198278
0.00134601
0.0011564
0.00109328
0.00106915
0.00106421
0.00106004
0.00106158
0.00106402
0.00106515
0.00106765
0.00107057
0.00107812
0.00107989
0.00109081
0.00109164
0.00109941
0.0011098
0.00111456
0.00112677
0.00113425
0.00115435
0.00116433
0.00117368
0.00120301
0.0012054
0.00121698
0.00122862
0.00259265
0.00173518
0.00128467
0.00114218
0.00109186
0.00107343
0.00106618
0.00106673
0.0010665
0.0010677
0.00107109
0.00107346
0.00107942
0.00108213
0.00109095
0.0010937
0.00110585
0.00110821
0.00111816
0.00112918
0.0011366
0.00115366
0.00116455
0.00118896
0.00120945
0.0012226
0.00126536
0.00126503
0.00127665
0.00210395
0.00154268
0.00123119
0.00112697
0.00108934
0.00107363
0.00107093
0.00106908
0.00107198
0.00107248
0.00107567
0.0010795
0.00108248
0.00108902
0.001094
0.00110262
0.00110703
0.00112365
0.00112818
0.00113708
0.00115678
0.00116673
0.00118747
0.00120004
0.00123254
0.00126075
0.0012856
0.00134819
0.00134495
0.00175117
0.0013942
0.00118559
0.00111286
0.00108544
0.00107459
0.00107338
0.00107273
0.00107511
0.00107632
0.00107936
0.00108287
0.00108935
0.00109235
0.00109983
0.00110525
0.00111615
0.00112214
0.00114064
0.00114769
0.00116412
0.00118165
0.0012025
0.00122745
0.00124645
0.00129131
0.00134093
0.00137919
0.00147462
0.00149847
0.00128086
0.00114774
0.00109981
0.00108151
0.00107503
0.00107473
0.00107472
0.00107881
0.00107797
0.00108659
0.00108658
0.00109247
0.00109854
0.00110652
0.00111065
0.0011234
0.00112962
0.00114126
0.00115428
0.00117129
0.00118872
0.00121234
0.0012314
0.0012687
0.00129591
0.00136349
0.00140574
0.00150917
0.00132145
0.00119688
0.00111827
0.00108947
0.00107854
0.00107546
0.00107701
0.00107579
0.00108223
0.00108107
0.00108974
0.00108917
0.0010981
0.00109988
0.00110961
0.00111347
0.00112591
0.00112975
0.0011384
0.00113442
0.00111721
0.00108359
0.001025
0.00105051
0.00109979
0.00132168
0.00141252
0.00153552
0.00142154
0.00119916
0.0011365
0.00109551
0.00107994
0.00107499
0.00107546
0.00107564
0.00107712
0.00108252
0.00108324
0.0010908
0.00109178
0.00110049
0.00109227
0.001073
0.00101817
0.00103124
0.00114724
0.00174181
0.00258486
0.00393953
0.00694929
0.00917863
0.013892
0.0163797
0.0221725
0.0236677
0.0276509
0.0236359
0.00112238
0.00109529
0.00107978
0.00107686
0.00107677
0.00108005
0.00108335
0.00108414
0.00108508
0.00106434
0.00106468
0.00108144
0.00150036
0.00200296
0.00386277
0.00571442
0.010121
0.014005
0.0217401
0.0291862
0.0379316
0.0501693
0.0593391
0.0744744
0.082451
0.101761
0.107562
0.132177
0.115604
0.00107432
0.00108018
0.00109374
0.00112399
0.0011592
0.00125621
0.00147314
0.00158444
0.00258082
0.0034286
0.00642341
0.00832015
0.0140999
0.0180348
0.0274372
0.0352308
0.0461685
0.0571454
0.069675
0.0840333
0.0978021
0.116437
0.131144
0.154615
0.169213
0.202026
0.214332
0.266841
0.257292
0.00108115
0.00122088
0.00153324
0.00225341
0.00304423
0.0051039
0.00761903
0.0091897
0.0144555
0.018013
0.0264554
0.0313454
0.0421485
0.0492549
0.0624141
0.0747307
0.0876493
0.102829
0.118172
0.136939
0.154233
0.177505
0.19716
0.226897
0.248705
0.291195
0.313997
0.382191
0.388121
5.806e-005
5.80601e-005
5.80601e-005
5.80601e-005
5.80602e-005
5.80602e-005
5.80602e-005
5.80603e-005
5.80603e-005
5.80603e-005
5.80604e-005
5.80604e-005
5.80604e-005
5.80605e-005
5.80605e-005
5.80605e-005
5.80606e-005
5.80606e-005
5.80606e-005
5.80606e-005
5.80607e-005
5.80607e-005
5.80607e-005
5.80607e-005
5.80608e-005
5.80608e-005
5.80608e-005
5.80609e-005
5.80609e-005
5.80609e-005
5.80609e-005
5.8061e-005
5.8061e-005
5.8061e-005
5.8061e-005
5.80611e-005
5.80611e-005
5.80611e-005
5.80611e-005
5.80612e-005
5.80612e-005
5.80612e-005
5.80612e-005
5.80613e-005
5.80613e-005
5.80613e-005
5.80613e-005
5.80614e-005
5.80614e-005
5.80614e-005
5.80614e-005
5.80615e-005
5.80615e-005
5.80615e-005
5.80615e-005
5.80616e-005
5.80616e-005
5.80616e-005
5.80616e-005
5.80617e-005
5.80617e-005
5.80617e-005
5.80617e-005
5.80618e-005
5.80618e-005
5.80618e-005
5.80618e-005
5.80619e-005
5.80619e-005
5.80619e-005
5.80619e-005
5.80619e-005
5.8062e-005
5.8062e-005
5.8062e-005
5.8062e-005
5.8062e-005
5.80621e-005
5.80621e-005
5.80621e-005
5.80621e-005
5.80621e-005
5.80622e-005
5.80622e-005
5.80622e-005
5.80622e-005
5.80622e-005
5.80622e-005
5.80623e-005
5.80623e-005
5.80623e-005
5.80623e-005
5.80623e-005
5.80623e-005
5.80624e-005
5.80624e-005
5.80624e-005
5.80624e-005
5.80624e-005
5.80624e-005
5.80624e-005
5.80624e-005
5.80625e-005
5.80625e-005
5.80625e-005
5.80625e-005
5.80625e-005
5.80625e-005
5.80625e-005
5.80625e-005
5.80625e-005
5.80625e-005
5.80625e-005
5.80625e-005
5.80625e-005
5.80625e-005
5.80626e-005
5.80626e-005
5.80626e-005
5.80626e-005
5.80627e-005
5.80627e-005
5.80627e-005
5.80627e-005
5.80627e-005
5.80627e-005
5.80627e-005
5.80627e-005
5.80627e-005
5.80627e-005
5.80627e-005
5.80627e-005
5.80628e-005
5.80628e-005
5.80628e-005
5.80628e-005
5.8063e-005
5.80713e-005
5.93243e-005
4.59625e-006
4.59637e-006
4.59647e-006
4.59656e-006
4.59665e-006
4.59674e-006
4.59682e-006
4.59691e-006
4.59699e-006
4.59707e-006
4.59715e-006
4.59723e-006
4.59731e-006
4.59738e-006
4.59746e-006
4.59754e-006
4.59761e-006
4.59769e-006
4.59776e-006
4.59784e-006
4.59791e-006
4.59798e-006
4.59806e-006
4.59813e-006
4.59821e-006
4.59828e-006
4.59835e-006
4.59843e-006
4.5985e-006
4.59858e-006
4.59865e-006
4.59873e-006
4.5988e-006
4.59887e-006
4.59895e-006
4.59902e-006
4.5991e-006
4.59917e-006
4.59924e-006
4.59932e-006
4.59939e-006
4.59946e-006
4.59954e-006
4.59961e-006
4.59968e-006
4.59976e-006
4.59983e-006
4.5999e-006
4.59997e-006
4.60004e-006
4.60011e-006
4.60019e-006
4.60026e-006
4.60033e-006
4.6004e-006
4.60046e-006
4.60053e-006
4.6006e-006
4.60067e-006
4.60074e-006
4.6008e-006
4.60087e-006
4.60093e-006
4.601e-006
4.60106e-006
4.60113e-006
4.60119e-006
4.60125e-006
4.60131e-006
4.60137e-006
4.60143e-006
4.60149e-006
4.60155e-006
4.60161e-006
4.60167e-006
4.60173e-006
4.60178e-006
4.60184e-006
4.60189e-006
4.60195e-006
4.602e-006
4.60206e-006
4.60211e-006
4.60216e-006
4.60221e-006
4.60226e-006
4.60231e-006
4.60236e-006
4.6024e-006
4.60245e-006
4.6025e-006
4.60254e-006
4.60259e-006
4.60263e-006
4.60267e-006
4.60271e-006
4.60275e-006
4.60279e-006
4.60282e-006
4.60286e-006
4.60289e-006
4.60292e-006
4.60295e-006
4.60298e-006
4.60301e-006
4.60303e-006
4.60306e-006
4.60308e-006
4.6031e-006
4.60312e-006
4.60314e-006
4.60317e-006
4.6032e-006
4.60324e-006
4.60328e-006
4.60333e-006
4.60338e-006
4.60342e-006
4.60345e-006
4.60348e-006
4.6035e-006
4.60352e-006
4.60353e-006
4.60354e-006
4.60355e-006
4.60356e-006
4.60356e-006
4.60357e-006
4.60357e-006
4.60358e-006
4.60359e-006
4.60361e-006
4.60362e-006
4.60366e-006
4.60371e-006
4.6037e-006
4.60302e-006
4.2108e-006
4.7385e-006
7.49286e-007
7.49284e-007
7.49277e-007
7.4927e-007
7.49261e-007
7.49249e-007
7.49238e-007
7.49225e-007
7.49209e-007
7.49194e-007
7.49178e-007
7.49159e-007
7.4914e-007
7.49121e-007
7.49101e-007
7.49079e-007
7.49058e-007
7.49034e-007
7.49012e-007
7.48988e-007
7.48965e-007
7.48939e-007
7.48914e-007
7.48887e-007
7.48861e-007
7.48835e-007
7.48809e-007
7.48782e-007
7.48755e-007
7.48728e-007
7.487e-007
7.48673e-007
7.48646e-007
7.48618e-007
7.4859e-007
7.48563e-007
7.48535e-007
7.48507e-007
7.4848e-007
7.48452e-007
7.48425e-007
7.48397e-007
7.4837e-007
7.48342e-007
7.48316e-007
7.48288e-007
7.48261e-007
7.48234e-007
7.48208e-007
7.48182e-007
7.48157e-007
7.48131e-007
7.48107e-007
7.48082e-007
7.48057e-007
7.48033e-007
7.48009e-007
7.47985e-007
7.47961e-007
7.47938e-007
7.47915e-007
7.47893e-007
7.47871e-007
7.4785e-007
7.47828e-007
7.47806e-007
7.47783e-007
7.47764e-007
7.47743e-007
7.47724e-007
7.47705e-007
7.47686e-007
7.47667e-007
7.47648e-007
7.4763e-007
7.47613e-007
7.47595e-007
7.47579e-007
7.47563e-007
7.47546e-007
7.4753e-007
7.47514e-007
7.47499e-007
7.47483e-007
7.47469e-007
7.47454e-007
7.47441e-007
7.47428e-007
7.47415e-007
7.47401e-007
7.47388e-007
7.47375e-007
7.47363e-007
7.4735e-007
7.47339e-007
7.47327e-007
7.47316e-007
7.47304e-007
7.47293e-007
7.47282e-007
7.47272e-007
7.47262e-007
7.47252e-007
7.47242e-007
7.47232e-007
7.47223e-007
7.47213e-007
7.47204e-007
7.47195e-007
7.47186e-007
7.47178e-007
7.4717e-007
7.47162e-007
7.47152e-007
7.47143e-007
7.47133e-007
7.47121e-007
7.4711e-007
7.47098e-007
7.47085e-007
7.47074e-007
7.47061e-007
7.47048e-007
7.47033e-007
7.47018e-007
7.47005e-007
7.4699e-007
7.46973e-007
7.46955e-007
7.46937e-007
7.46917e-007
7.46899e-007
7.46879e-007
7.46854e-007
7.4684e-007
7.46825e-007
7.67609e-007
1.82267e-005
0.00248041
5.51876e-006
5.51731e-006
5.51572e-006
5.5141e-006
5.51245e-006
5.51066e-006
5.50885e-006
5.50697e-006
5.50497e-006
5.50295e-006
5.50088e-006
5.4987e-006
5.49649e-006
5.49422e-006
5.49187e-006
5.48948e-006
5.48704e-006
5.48449e-006
5.48196e-006
5.47933e-006
5.47672e-006
5.47401e-006
5.47127e-006
5.46854e-006
5.46574e-006
5.46292e-006
5.4601e-006
5.45722e-006
5.45436e-006
5.45143e-006
5.44851e-006
5.44559e-006
5.44267e-006
5.43969e-006
5.43674e-006
5.43375e-006
5.43079e-006
5.42782e-006
5.42485e-006
5.42192e-006
5.41892e-006
5.41595e-006
5.41301e-006
5.4101e-006
5.4072e-006
5.40427e-006
5.40135e-006
5.39846e-006
5.39561e-006
5.3928e-006
5.38999e-006
5.38723e-006
5.38445e-006
5.38172e-006
5.37901e-006
5.37635e-006
5.37372e-006
5.37106e-006
5.36844e-006
5.36589e-006
5.36333e-006
5.36085e-006
5.35838e-006
5.35598e-006
5.35354e-006
5.35122e-006
5.34885e-006
5.34655e-006
5.34426e-006
5.34207e-006
5.33986e-006
5.3377e-006
5.33555e-006
5.33343e-006
5.33135e-006
5.32932e-006
5.32731e-006
5.3254e-006
5.32347e-006
5.32157e-006
5.3197e-006
5.31787e-006
5.31607e-006
5.31429e-006
5.31256e-006
5.31085e-006
5.30922e-006
5.30763e-006
5.30604e-006
5.30447e-006
5.30294e-006
5.30143e-006
5.29998e-006
5.29854e-006
5.29715e-006
5.2958e-006
5.29445e-006
5.29314e-006
5.29185e-006
5.29063e-006
5.28945e-006
5.2883e-006
5.28713e-006
5.28604e-006
5.28492e-006
5.2839e-006
5.28285e-006
5.28186e-006
5.28086e-006
5.27989e-006
5.27894e-006
5.27804e-006
5.27709e-006
5.27615e-006
5.27522e-006
5.27431e-006
5.27337e-006
5.27247e-006
5.27163e-006
5.27078e-006
5.27002e-006
5.26925e-006
5.26851e-006
5.26781e-006
5.26709e-006
5.26647e-006
5.26579e-006
5.26514e-006
5.2645e-006
5.26391e-006
5.26319e-006
5.26295e-006
5.26172e-006
5.26226e-006
5.25993e-006
5.26574e-006
7.53237e-006
0.00089241
0.0275496
0.000116302
0.000116258
0.000116215
0.00011617
0.000116125
0.000116075
0.000116023
0.00011597
0.000115915
0.000115855
0.000115793
0.00011573
0.000115664
0.000115597
0.000115526
0.000115454
0.000115378
0.000115304
0.000115226
0.000115145
0.000115065
0.000114984
0.000114899
0.000114816
0.00011473
0.000114646
0.000114559
0.000114473
0.000114384
0.000114295
0.000114207
0.00011412
0.000114028
0.000113938
0.000113849
0.000113756
0.000113667
0.000113576
0.000113489
0.000113394
0.000113302
0.000113216
0.000113125
0.000113035
0.000112945
0.000112857
0.000112769
0.000112682
0.000112594
0.00011251
0.000112423
0.000112338
0.000112255
0.000112172
0.000112091
0.00011201
0.000111928
0.000111849
0.000111771
0.000111693
0.000111615
0.000111539
0.000111468
0.000111391
0.000111318
0.000111248
0.000111176
0.000111105
0.000111037
0.00011097
0.000110903
0.000110837
0.000110771
0.000110709
0.000110646
0.000110583
0.000110523
0.000110465
0.000110407
0.000110346
0.000110291
0.000110235
0.000110181
0.000110126
0.000110073
0.000110023
0.000109974
0.000109923
0.000109876
0.000109829
0.000109782
0.000109739
0.000109693
0.000109648
0.000109608
0.000109566
0.000109526
0.000109485
0.000109447
0.000109411
0.000109374
0.000109337
0.000109305
0.00010927
0.000109237
0.000109203
0.00010917
0.000109139
0.000109111
0.000109083
0.000109055
0.000109028
0.000109
0.000108975
0.00010895
0.000108922
0.000108898
0.000108869
0.000108841
0.000108813
0.000108785
0.000108759
0.000108729
0.000108703
0.000108679
0.000108651
0.00010863
0.000108602
0.000108576
0.000108553
0.000108522
0.000108498
0.000108467
0.000108448
0.000108401
0.000108391
0.000173829
0.0118397
0.12437
0.000531364
0.000531276
0.000531191
0.000531103
0.000531007
0.000530906
0.000530803
0.000530693
0.000530577
0.000530455
0.000530333
0.0005302
0.00053006
0.000529922
0.000529775
0.000529625
0.00052947
0.000529314
0.000529148
0.000528986
0.00052882
0.000528652
0.000528482
0.000528303
0.00052813
0.00052795
0.000527773
0.000527592
0.00052741
0.000527227
0.000527037
0.000526854
0.000526671
0.000526484
0.000526293
0.000526106
0.000525919
0.00052573
0.00052554
0.000525357
0.000525169
0.00052498
0.000524796
0.000524613
0.000524433
0.000524245
0.000524064
0.000523881
0.000523702
0.000523524
0.000523347
0.00052317
0.000522998
0.000522824