/*--------------------------------*- C++ -*----------------------------------*\
| =========                 |                                                 |
| \\      /  F ield         | OpenFOAM: The Open Source CFD Toolbox           |
|  \\    /   O peration     | Version:  5.x                                   |
|   \\  /    A nd           | Web:      www.OpenFOAM.org                      |
|    \\/     M anipulation  |                                                 |
\*---------------------------------------------------------------------------*/
/*   Windows 32 and 64 bit porting by blueCAPE: http://www.bluecape.com.pt   *\
|  Based on Windows porting (2.0.x v4) by Symscape: http://www.symscape.com   |
\*---------------------------------------------------------------------------*/
FoamFile
{
    version     2.0;
    format      ascii;
    class       volScalarField;
    location    "50";
    object      p;
}
// * * * * * * * * * * * * * * * * * * * * * * * * * * * * * * * * * * * * * //

dimensions      [0 2 -2 0 0 0 0];

internalField   nonuniform List<scalar> 
43900
(
0.487186
0.486891
0.486951
0.486682
0.48661
0.486424
0.486252
0.48607
0.485874
0.485667
0.48545
0.485224
0.484988
0.484742
0.484488
0.484226
0.483956
0.483678
0.483392
0.483099
0.4828
0.482493
0.482181
0.481862
0.481537
0.481206
0.480869
0.480527
0.48018
0.486138
0.488358
0.486825
0.487338
0.48682
0.486747
0.486563
0.486335
0.486101
0.485853
0.485592
0.485321
0.485039
0.484748
0.484449
0.484142
0.483828
0.483507
0.483179
0.482846
0.482506
0.482161
0.48181
0.481455
0.481094
0.480729
0.480359
0.479985
0.479606
0.482786
0.494734
0.486266
0.4909
0.48734
0.488447
0.487281
0.487
0.486547
0.486105
0.485679
0.485262
0.484852
0.484448
0.484047
0.483652
0.48326
0.482871
0.482483
0.482095
0.481706
0.481315
0.480921
0.480524
0.480122
0.479717
0.479308
0.478897
0.478482
0.480026
0.496712
0.489382
0.492837
0.489539
0.490767
0.489242
0.489231
0.488639
0.488191
0.487749
0.487314
0.486885
0.486462
0.486042
0.485625
0.485208
0.484791
0.484375
0.48396
0.483544
0.483129
0.482714
0.4823
0.481885
0.481469
0.48105
0.48063
0.480206
0.485265
0.495226
0.493525
0.493272
0.492664
0.493153
0.492399
0.492492
0.492124
0.491866
0.491585
0.491291
0.490984
0.490668
0.490341
0.490005
0.48966
0.489307
0.488946
0.488578
0.488202
0.48782
0.48743
0.487035
0.486633
0.486224
0.485809
0.485388
0.484959
0.491608
0.495142
0.49479
0.494457
0.49437
0.494428
0.494183
0.494148
0.493982
0.493828
0.493652
0.493459
0.493249
0.493022
0.492779
0.49252
0.492245
0.491956
0.491652
0.491333
0.491001
0.490655
0.490296
0.489924
0.489539
0.489142
0.488734
0.488314
0.487882
0.495828
0.496695
0.496513
0.496293
0.496203
0.496148
0.496017
0.495909
0.495765
0.495609
0.495435
0.495244
0.495035
0.49481
0.494567
0.494309
0.494034
0.493743
0.493436
0.493114
0.492776
0.492424
0.492057
0.491675
0.49128
0.49087
0.490448
0.490013
0.489565
0.501907
0.501841
0.50162
0.501415
0.501294
0.501189
0.501053
0.500908
0.50074
0.500555
0.500352
0.500131
0.499891
0.499634
0.499358
0.499065
0.498754
0.498426
0.498081
0.497719
0.497339
0.496944
0.496532
0.496103
0.495659
0.495199
0.494724
0.494234
0.493729
0.509324
0.508999
0.508764
0.508603
0.508501
0.508403
0.50828
0.508135
0.507965
0.507773
0.507557
0.507319
0.507058
0.506776
0.506471
0.506145
0.505797
0.505429
0.505039
0.504629
0.504199
0.503749
0.503279
0.50279
0.502282
0.501755
0.50121
0.500646
0.500065
0.517159
0.516634
0.516394
0.516242
0.51614
0.516037
0.515908
0.515752
0.515568
0.515357
0.515119
0.514854
0.514563
0.514246
0.513903
0.513534
0.51314
0.512722
0.512279
0.511812
0.511321
0.510806
0.510269
0.509709
0.509126
0.508522
0.507896
0.50725
0.506582
0.525819
0.525218
0.524925
0.524733
0.524599
0.524464
0.524301
0.524107
0.523882
0.523627
0.523342
0.523027
0.522681
0.522306
0.521901
0.521468
0.521005
0.520514
0.519995
0.519448
0.518873
0.518272
0.517644
0.51699
0.516311
0.515606
0.514877
0.514124
0.513347
0.535883
0.535191
0.534845
0.534618
0.534456
0.53429
0.534092
0.533857
0.533587
0.533281
0.532939
0.532562
0.53215
0.531704
0.531223
0.530708
0.53016
0.529579
0.528964
0.528318
0.52764
0.52693
0.52619
0.52542
0.52462
0.523791
0.522934
0.522048
0.521136
0.547267
0.546475
0.546081
0.545823
0.545635
0.545441
0.545207
0.54493
0.54461
0.544248
0.543844
0.543397
0.54291
0.542381
0.541813
0.541204
0.540555
0.539868
0.539142
0.538378
0.537578
0.536741
0.535868
0.53496
0.534017
0.533041
0.532032
0.530991
0.529919
0.559881
0.558979
0.558527
0.558231
0.558012
0.557782
0.557505
0.557176
0.556797
0.556368
0.555889
0.555361
0.554783
0.554158
0.553484
0.552764
0.551997
0.551184
0.550327
0.549425
0.54848
0.547492
0.546463
0.545393
0.544283
0.543134
0.541948
0.540724
0.539464
0.573755
0.572725
0.572207
0.571865
0.571607
0.571333
0.571003
0.570612
0.570162
0.569652
0.569083
0.568457
0.567772
0.567031
0.566234
0.565381
0.564474
0.563513
0.5625
0.561435
0.560319
0.559154
0.557941
0.556681
0.555374
0.554023
0.552628
0.55119
0.549712
0.588928
0.587752
0.587158
0.586764
0.586461
0.586136
0.585743
0.585279
0.584744
0.584139
0.583465
0.582722
0.581911
0.581034
0.580091
0.579083
0.578011
0.576876
0.57568
0.574424
0.573109
0.571737
0.570308
0.568825
0.56729
0.565702
0.564065
0.562379
0.560647
0.605412
0.604073
0.603395
0.602942
0.602588
0.602202
0.601736
0.601186
0.600553
0.599837
0.599039
0.598161
0.597203
0.596167
0.595053
0.593863
0.592599
0.591262
0.589853
0.588375
0.586828
0.585214
0.583536
0.581796
0.579994
0.578133
0.576216
0.574243
0.572218
0.623212
0.621691
0.620921
0.620403
0.619989
0.619533
0.618982
0.618332
0.617584
0.616739
0.615798
0.614762
0.613632
0.612411
0.6111
0.609699
0.608212
0.60664
0.604985
0.603249
0.601434
0.599542
0.597576
0.595537
0.593429
0.591254
0.589014
0.586712
0.58435
0.642324
0.6406
0.639729
0.639139
0.638657
0.638121
0.637471
0.636705
0.635824
0.63483
0.633722
0.632504
0.631177
0.629743
0.628203
0.626559
0.624815
0.622972
0.621033
0.619
0.616877
0.614665
0.612367
0.609988
0.607528
0.604993
0.602384
0.599705
0.59696
0.66273
0.660784
0.659805
0.659135
0.658576
0.657946
0.657184
0.656285
0.655251
0.654085
0.652787
0.651359
0.649805
0.648125
0.646323
0.644401
0.642362
0.640209
0.637945
0.635573
0.633096
0.630518
0.627843
0.625074
0.622215
0.619269
0.616241
0.613134
0.609953
0.684398
0.682208
0.681115
0.680358
0.679713
0.678977
0.678086
0.677035
0.675827
0.674465
0.672949
0.671283
0.66947
0.667511
0.66541
0.663171
0.660796
0.65829
0.655655
0.652897
0.650019
0.647026
0.643921
0.64071
0.637397
0.633986
0.630483
0.626892
0.623219
0.707275
0.704821
0.70361
0.702759
0.702018
0.701163
0.700126
0.698903
0.697499
0.695914
0.694153
0.692217
0.69011
0.687835
0.685396
0.682797
0.680043
0.677136
0.674084
0.670889
0.667558
0.664095
0.660506
0.656797
0.652973
0.649039
0.645002
0.640868
0.636642
0.731287
0.72855
0.727221
0.726271
0.725423
0.724434
0.723233
0.721819
0.720193
0.71836
0.716322
0.714083
0.711646
0.709017
0.706198
0.703196
0.700014
0.69666
0.693137
0.689453
0.685613
0.681623
0.677492
0.673223
0.668826
0.664306
0.659671
0.654928
0.650085
0.756338
0.753301
0.751856
0.750803
0.749838
0.748701
0.74732
0.745691
0.743821
0.741711
0.739365
0.736789
0.733985
0.73096
0.727719
0.724266
0.72061
0.716754
0.712708
0.708478
0.70407
0.699494
0.694756
0.689865
0.68483
0.679657
0.674358
0.668939
0.66341
0.782306
0.778954
0.777401
0.776243
0.775152
0.773853
0.772272
0.770409
0.768269
0.765854
0.763171
0.760222
0.757014
0.753553
0.749843
0.745895
0.741711
0.737304
0.732677
0.727842
0.722808
0.717579
0.712173
0.706593
0.70085
0.694958
0.688923
0.682758
0.676475
0.809042
0.805367
0.80372
0.802456
0.80123
0.799756
0.797959
0.795842
0.793407
0.790662
0.787608
0.784254
0.780604
0.776665
0.772445
0.767949
0.763193
0.758173
0.752914
0.747413
0.741685
0.735748
0.729597
0.723261
0.71674
0.710051
0.703207
0.69622
0.689105
0.836375
0.832371
0.830651
0.829285
0.827915
0.826254
0.824226
0.821835
0.819086
0.815982
0.812532
0.808738
0.804611
0.800155
0.795379
0.790299
0.784903
0.779237
0.773271
0.76705
0.760573
0.753842
0.746899
0.739718
0.732358
0.724793
0.717073
0.709199
0.701169
0.864109
0.85978
0.858016
0.856549
0.85503
0.853171
0.850899
0.848218
0.845133
0.841652
0.837774
0.833518
0.828875
0.823868
0.818501
0.812769
0.806725
0.800313
0.793625
0.786604
0.779306
0.771743
0.763889
0.755847
0.747505
0.739057
0.730374
0.721474
0.712504
0.892029
0.887388
0.885616
0.884049
0.882375
0.880311
0.877785
0.8748
0.871368
0.867483
0.86317
0.858406
0.853238
0.847637
0.841631
0.835252
0.82844
0.821319
0.81377
0.805937
0.797741
0.789275
0.780546
0.771386
0.762182
0.75265
0.742803
0.732988
0.72287
0.919903
0.914977
0.913236
0.911569
0.90974
0.907466
0.904678
0.901385
0.897585
0.893301
0.888503
0.883256
0.877491
0.871295
0.864633
0.857497
0.849987
0.842005
0.833679
0.824872
0.8158
0.806392
0.796395
0.78645
0.77603
0.76521
0.754569
0.743396
0.732187
0.947488
0.942319
0.94065
0.938886
0.936901
0.934416
0.931367
0.927754
0.9236
0.918871
0.913642
0.907809
0.901521
0.894648
0.887288
0.879462
0.871145
0.862387
0.852983
0.843345
0.833274
0.822509
0.811852
0.800469
0.788798
0.777316
0.764971
0.752697
0.74043
0.974539
0.969188
0.967628
0.96577
0.963632
0.96094
0.957627
0.95371
0.949168
0.944062
0.938286
0.932011
0.92504
0.917573
0.909539
0.900908
0.891787
0.881864
0.871637
0.861031
0.84974
0.838342
0.826036
0.813589
0.801153
0.787629
0.774388
0.76098
0.74686
1.00082
0.995363
0.993939
0.991993
0.989708
0.986812
0.983251
0.979015
0.974146
0.968562
0.962409
0.955483
0.948006
0.939834
0.930928
0.921675
0.91155
0.900978
0.889845
0.877827
0.865681
0.852716
0.839508
0.825994
0.811405
0.797206
0.782491
0.767041
0.75202
1.0261
1.02064
1.01936
1.01734
1.01491
1.01183
1.00802
1.00351
0.998254
0.992343
0.985627
0.978276
0.970241
0.961412
0.95201
0.941506
0.930653
0.91914
0.906796
0.894129
0.880517
0.866463
0.851923
0.836479
0.821273
0.805176
0.788563
0.772479
0.755517
1.0502
1.04484
1.0437
1.04161
1.03905
1.03579
1.03176
1.02696
1.02142
1.01506
1.00798
1.0002
0.991562
0.982014
0.971679
0.960841
0.948929
0.936178
0.923134
0.909038
0.894237
0.878907
0.86286
0.846603
0.829087
0.811479
0.79414
0.775273
0.756625
1.07295
1.06779
1.06678
1.06464
1.06197
1.05854
1.0543
1.04926
1.04339
1.03674
1.02926
1.02093
1.0116
1.00155
0.9907
0.978788
0.966003
0.952725
0.938079
0.922824
0.907027
0.890319
0.872985
0.854248
0.83595
0.816969
0.796364
0.776573
0.756431
1.09421
1.08938
1.08846
1.08628
1.0835
1.07993
1.07551
1.07025
1.06413
1.0571
1.04925
1.04044
1.0308
1.02004
1.00833
0.995753
0.982325
0.96757
0.952217
0.935932
0.918618
0.900386
0.880945
0.861745
0.840844
0.819248
0.798258
0.775989
0.753214
1.11391
1.1095
1.10863
1.10642
1.10355
1.09985
1.09529
1.08982
1.08344
1.0762
1.06798
1.05884
1.04853
1.0372
1.02498
1.01161
0.997121
0.981688
0.965079
0.947263
0.92848
0.90896
0.888464
0.866307
0.843714
0.821334
0.79719
0.772693
0.748358
1.13199
1.12806
1.12719
1.12498
1.12203
1.11824
1.11353
1.10791
1.10136
1.09373
1.0853
1.0757
1.06497
1.05329
1.04025
1.02628
1.01092
0.994547
0.976941
0.957654
0.937625
0.916253
0.89359
0.870471
0.846278
0.820082
0.794049
0.767891
0.740779
1.14843
1.14501
1.14412
1.1419
1.13891
1.13502
1.13023
1.12447
1.11768
1.11003
1.10109
1.0912
1.08032
1.06783
1.05448
1.03955
1.0235
1.00619
0.987046
0.967175
0.945508
0.92199
0.898175
0.872652
0.845557
0.81784
0.789656
0.760134
0.730151
1.16323
1.16033
1.1594
1.15719
1.15415
1.15023
1.14533
1.13947
1.13263
1.1246
1.11567
1.10556
1.09389
1.08143
1.06717
1.05188
1.03501
1.01641
0.996725
0.975068
0.951608
0.927182
0.900719
0.87274
0.843693
0.813917
0.781935
0.749558
0.71734
1.17645
1.17404
1.17305
1.17085
1.1678
1.16382
1.15889
1.15295
1.14591
1.13795
1.12867
1.1181
1.10667
1.09321
1.07893
1.06281
1.04491
1.02597
1.0047
0.981604
0.957098
0.930448
0.902013
0.871946
0.840479
0.806703
0.772226
0.73731
0.700976
1.18814
1.18618
1.18513
1.18295
1.17989
1.1759
1.17092
1.1649
1.15789
1.14963
1.14024
1.1298
1.11742
1.10427
1.08925
1.07246
1.05449
1.03359
1.01155
0.987734
0.961304
0.932572
0.901991
0.869348
0.834749
0.798405
0.760577
0.721308
0.681148
1.19839
1.19682
1.19572
1.19356
1.19051
1.1865
1.18148
1.17549
1.16829
1.16007
1.15065
1.13958
1.12757
1.11377
1.09826
1.08139
1.06215
1.04133
1.0181
0.992175
0.964167
0.933978
0.900999
0.865227
0.82744
0.787819
0.746037
0.702264
0.658348
1.20729
1.20604
1.20491
1.20278
1.19974
1.19572
1.19074
1.18461
1.17751
1.16917
1.15945
1.14866
1.13613
1.12213
1.10641
1.08878
1.06939
1.04754
1.02269
0.996057
0.966652
0.934102
0.898674
0.860315
0.818708
0.774991
0.728674
0.681015
0.631654
1.21494
1.21396
1.21281
1.21071
1.20767
1.2037
1.19863
1.19262
1.18538
1.17693
1.16745
1.15628
1.14361
1.12931
1.11337
1.09547
1.07536
1.05241
1.02716
0.999343
0.967809
0.933243
0.89519
0.854214
0.809308
0.760265
0.709277
0.655683
0.600893
1.22147
1.22068
1.21954
1.21746
1.21446
1.21045
1.20549
1.19934
1.19212
1.18385
1.17406
1.16278
1.15005
1.1357
1.11923
1.10103
1.08043
1.05705
1.03111
1.00115
0.968558
0.932116
0.891693
0.846356
0.797234
0.744344
0.687268
0.627531
0.565303
1.22698
1.22633
1.2252
1.22315
1.22016
1.21622
1.21117
1.20513
1.19794
1.18945
1.17967
1.16844
1.15557
1.1409
1.12444
1.10573
1.08457
1.06084
1.03381
1.00343
0.968954
0.930208
0.886642
0.838471
0.785062
0.72601
0.662698
0.595356
0.525873
1.23158
1.23103
1.22991
1.22789
1.22494
1.22097
1.21603
1.20993
1.20268
1.19429
1.18446
1.17309
1.16017
1.14537
1.12868
1.10968
1.0882
1.06382
1.03627
1.00478
0.968665
0.928215
0.882002
0.829699
0.771551
0.707015
0.635758
0.559983
0.480456
1.23537
1.2349
1.23379
1.2318
1.22886
1.22496
1.21996
1.21391
1.20671
1.19822
1.18833
1.17703
1.16393
1.14914
1.13218
1.11297
1.09109
1.06643
1.03825
1.00542
0.968379
0.925968
0.876997
0.821355
0.757357
0.686275
0.607412
0.520917
0.429614
1.23844
1.23804
1.23694
1.23497
1.23207
1.22815
1.22322
1.21714
1.20991
1.20145
1.19158
1.18017
1.16707
1.15217
1.13503
1.11575
1.09349
1.06834
1.03953
1.0062
0.967907
0.923697
0.872262
0.812668
0.74373
0.664847
0.576516
0.478247
0.372575
1.24091
1.24054
1.23946
1.23752
1.23463
1.23073
1.22581
1.21972
1.21256
1.20401
1.19415
1.18275
1.16961
1.1545
1.1375
1.11779
1.09545
1.0699
1.04056
1.00633
0.967463
0.921486
0.867994
0.804666
0.730226
0.643553
0.543955
0.431725
0.308481
1.24284
1.24251
1.24144
1.23951
1.23665
1.23274
1.22786
1.22173
1.21465
1.206
1.19626
1.18474
1.17151
1.15659
1.13925
1.11951
1.09696
1.07101
1.0413
1.00653
0.966596
0.919377
0.864028
0.797443
0.718017
0.622713
0.510774
0.380751
0.236154
1.24433
1.24402
1.24296
1.24104
1.2382
1.23429
1.22945
1.22326
1.21629
1.2075
1.19791
1.18617
1.17318
1.15804
1.14063
1.1208
1.09823
1.07182
1.04164
1.00666
0.965782
0.917345
0.860466
0.790666
0.707113
0.603155
0.47758
0.326369
0.152578
1.24544
1.24514
1.24409
1.24218
1.23935
1.23545
1.23061
1.22443
1.21746
1.20863
1.19915
1.1872
1.17436
1.15908
1.14166
1.12182
1.09887
1.07236
1.04197
1.00645
0.964898
0.915391
0.856978
0.78457
0.697066
0.585017
0.44522
0.26899
0.0578251
1.24623
1.24594
1.2449
1.243
1.24017
1.2363
1.23141
1.22534
1.21817
1.20962
1.19981
1.18805
1.17523
1.15973
1.14239
1.12245
1.09922
1.07268
1.04167
1.00589
0.963219
0.913242
0.852276
0.778563
0.685607
0.567655
0.412081
0.207242
-0.0566677
1.24675
1.24648
1.24543
1.24354
1.24071
1.23687
1.23192
1.22603
1.21848
1.21046
1.19993
1.18883
1.17522
1.16018
1.14232
1.12245
1.09856
1.07217
1.04017
1.00423
0.959968
0.909166
0.845556
0.769757
0.671481
0.546874
0.376585
0.138722
-0.201727
1.24706
1.24679
1.24574
1.24384
1.24101
1.23722
1.23215
1.22654
1.21869
1.21119
1.19998
1.18937
1.17495
1.16014
1.14153
1.1214
1.09674
1.06974
1.03683
0.999892
0.954385
0.902019
0.836344
0.757458
0.654863
0.522506
0.340894
0.0762181
-0.353085
1.24721
1.24693
1.24587
1.24394
1.24101
1.23708
1.23193
1.226
1.21771
1.2098
1.19809
1.187
1.17198
1.15646
1.13677
1.11642
1.09094
1.06328
1.02924
0.991765
0.94462
0.891656
0.823334
0.743774
0.63536
0.501895
0.308579
0.0472676
-0.288773
0.479764
0.479277
0.478781
0.478276
0.477763
0.477241
0.476712
0.476175
0.475631
0.47508
0.474522
0.473958
0.473387
0.47281
0.472227
0.471638
0.471044
0.470444
0.469839
0.46923
0.468615
0.467997
0.467374
0.466747
0.466116
0.465482
0.464844
0.464203
0.463559
0.462913
0.462264
0.461612
0.460959
0.460304
0.459647
0.458989
0.458329
0.457669
0.457008
0.456347
0.455685
0.455023
0.454362
0.453701
0.453041
0.452381
0.451723
0.451066
0.45041
0.449757
0.449105
0.448456
0.447809
0.447165
0.446524
0.445886
0.445251
0.44462
0.443993
0.443369
0.44275
0.442135
0.441525
0.44092
0.44032
0.439725
0.439135
0.438551
0.437973
0.437401
0.436836
0.436276
0.435723
0.435177
0.434638
0.434106
0.433581
0.433064
0.432554
0.432053
0.431559
0.431073
0.430595
0.430126
0.429666
0.429214
0.428771
0.428338
0.427913
0.427498
0.427092
0.426696
0.426309
0.425932
0.425566
0.425209
0.424863
0.424527
0.424202
0.423887
0.423584
0.423291
0.423009
0.422739
0.422481
0.422234
0.421998
0.421776
0.421565
0.421367
0.421182
0.42101
0.420852
0.420714
0.420602
0.420519
0.420461
0.420412
0.420365
0.42032
0.420277
0.420239
0.420204
0.420175
0.420151
0.420133
0.42012
0.420114
0.420114
0.420121
0.420134
0.420154
0.420183
0.420216
0.420264
0.420303
0.42039
0.420405
0.42059
0.479155
0.478629
0.478095
0.477553
0.477005
0.47645
0.475887
0.475318
0.474743
0.474161
0.473573
0.472978
0.472378
0.471773
0.471161
0.470544
0.469922
0.469296
0.468664
0.468028
0.467387
0.466742
0.466093
0.465441
0.464785
0.464126
0.463463
0.462798
0.46213
0.46146
0.460787
0.460112
0.459436
0.458759
0.45808
0.4574
0.456719
0.456038
0.455356
0.454675
0.453993
0.453312
0.452632
0.451952
0.451274
0.450597
0.449922
0.449248
0.448577
0.447908
0.447241
0.446577
0.445917
0.445259
0.444605
0.443955
0.443308
0.442666
0.442029
0.441395
0.440767
0.440144
0.439526
0.438914
0.438307
0.437706
0.437112
0.436523
0.435941
0.435366
0.434798
0.434237
0.433682
0.433136
0.432597
0.432065
0.431542
0.431027
0.43052
0.430021
0.429531
0.42905
0.428577
0.428114
0.427659
0.427214
0.426778
0.426352
0.425936
0.425529
0.425132
0.424746
0.424369
0.424003
0.423647
0.423301
0.422966
0.422642
0.422328
0.422026
0.421734
0.421453
0.421182
0.420923
0.420675
0.420438
0.420212
0.419996
0.419792
0.419599
0.419416
0.419244
0.419082
0.418925
0.418766
0.4186
0.41843
0.418272
0.418134
0.418013
0.417909
0.41782
0.417745
0.417683
0.417632
0.417593
0.417563
0.417542
0.417529
0.417523
0.417524
0.417526
0.417539
0.417542
0.417557
0.417558
0.417541
0.417588
0.417425
0.477988
0.477414
0.476833
0.476246
0.475652
0.475052
0.474445
0.473832
0.473212
0.472586
0.471955
0.471317
0.470673
0.470024
0.469369
0.468709
0.468044
0.467374
0.466699
0.466019
0.465334
0.464646
0.463953
0.463257
0.462557
0.461853
0.461147
0.460437
0.459726
0.459011
0.458295
0.457576
0.456856
0.456135
0.455413
0.454689
0.453966
0.453242
0.452517
0.451793
0.45107
0.450347
0.449626
0.448905
0.448186
0.447469
0.446755
0.446042
0.445332
0.444625
0.443921
0.44322
0.442522
0.441829
0.441139
0.440454
0.439773
0.439096
0.438425
0.437758
0.437097
0.436442
0.435793
0.435149
0.434512
0.433881
0.433257
0.432639
0.432029
0.431426
0.43083
0.430242
0.429661
0.429089
0.428524
0.427968
0.42742
0.426881
0.42635
0.425828
0.425316
0.424812
0.424318
0.423833
0.423357
0.422892
0.422436
0.42199
0.421554
0.421128
0.420713
0.420308
0.419914
0.419531
0.419158
0.418796
0.418445
0.418106
0.417777
0.41746
0.417154
0.41686
0.416577
0.416305
0.416045
0.415797
0.41556
0.415334
0.41512
0.414918
0.414726
0.414544
0.414373
0.414212
0.414059
0.413917
0.413785
0.413665
0.413559
0.413465
0.413385
0.413319
0.413267
0.41323
0.413208
0.4132
0.413207
0.41323
0.413268
0.413317
0.41339
0.413479
0.413584
0.413718
0.413795
0.414125
0.413901
0.414901
0.413688
0.479704
0.479119
0.478528
0.477931
0.477327
0.476716
0.476099
0.475474
0.474842
0.474202
0.473556
0.472902
0.472241
0.471573
0.470897
0.470215
0.469527
0.468832
0.46813
0.467423
0.466709
0.46599
0.465266
0.464536
0.463802
0.463062
0.462319
0.461571
0.460819
0.460064
0.459305
0.458544
0.457779
0.457013
0.456244
0.455473
0.454701
0.453927
0.453153
0.452379
0.451604
0.450829
0.450054
0.44928
0.448507
0.447735
0.446964
0.446195
0.445429
0.444664
0.443902
0.443143
0.442386
0.441633
0.440882
0.440134
0.439389
0.438646
0.437908
0.437176
0.43645
0.435731
0.435019
0.434313
0.433615
0.432923
0.432238
0.431561
0.430892
0.43023
0.429575
0.428929
0.428291
0.427662
0.427041
0.426429
0.425825
0.425231
0.424646
0.42407
0.423503
0.422947
0.4224
0.421864
0.421338
0.420822
0.420316
0.419822
0.419338
0.418865
0.418403
0.417952
0.417513
0.417085
0.416669
0.416265
0.415872
0.415491
0.415122
0.414766
0.414421
0.414089
0.413769
0.413462
0.413167
0.412885
0.412616
0.412361
0.412119
0.411891
0.411678
0.411479
0.411295
0.411127
0.410974
0.410838
0.410719
0.410617
0.410533
0.410466
0.410418
0.410388
0.410377
0.410385
0.410414
0.410464
0.410535
0.410628
0.410746
0.41092
0.410927
0.411381
0.411225
0.412056
0.411321
0.413323
0.410919
0.41552
0.40979
0.484447
0.483845
0.483231
0.482605
0.481968
0.481319
0.480659
0.479989
0.479308
0.478618
0.477918
0.477208
0.47649
0.475762
0.475027
0.474283
0.473531
0.472772
0.472005
0.471231
0.470449
0.469661
0.468867
0.468067
0.467261
0.466449
0.465632
0.464811
0.463985
0.463155
0.462321
0.461484
0.460644
0.459801
0.458956
0.458109
0.45726
0.456409
0.455557
0.454705
0.453852
0.452999
0.452146
0.451294
0.450443
0.449594
0.448745
0.447899
0.447055
0.446214
0.445376
0.444541
0.44371
0.442884
0.442063
0.441247
0.440438
0.439636
0.438839
0.438047
0.43726
0.436479
0.435703
0.434934
0.434171
0.433415
0.432666
0.431926
0.431193
0.430468
0.429752
0.429045
0.428346
0.427657
0.426978
0.426309
0.425649
0.425
0.424361
0.423732
0.423115
0.422507
0.421911
0.421325
0.420751
0.420188
0.419637
0.419097
0.418569
0.418053
0.417548
0.417057
0.416577
0.41611
0.415655
0.415214
0.414785
0.414369
0.413967
0.413578
0.413202
0.41284
0.412492
0.412159
0.411839
0.411536
0.411247
0.410974
0.410717
0.410474
0.410247
0.410034
0.409837
0.409656
0.409492
0.409344
0.409213
0.409101
0.409006
0.40893
0.408874
0.408836
0.408819
0.408823
0.408848
0.408894
0.408963
0.409056
0.409168
0.409431
0.409247
0.41002
0.40954
0.410966
0.409371
0.412612
0.408651
0.415763
0.405552
0.487362
0.486744
0.486107
0.485452
0.48478
0.484091
0.483387
0.482666
0.481931
0.481181
0.480416
0.479639
0.478848
0.478045
0.47723
0.476404
0.475567
0.474719
0.473862
0.472996
0.472121
0.471237
0.470346
0.469448
0.468543
0.467631
0.466714
0.465791
0.464863
0.46393
0.462992
0.462051
0.461105
0.460158
0.459211
0.458264
0.457317
0.456371
0.455425
0.45448
0.453536
0.452593
0.451652
0.450714
0.449778
0.448845
0.447915
0.446989
0.446067
0.445149
0.444235
0.443327
0.442424
0.441526
0.440634
0.439748
0.438868
0.437994
0.437127
0.436268
0.435415
0.43457
0.433733
0.432904
0.432083
0.43127
0.430466
0.429671
0.428885
0.428109
0.427342
0.426585
0.425838
0.425101
0.424374
0.423658
0.422952
0.422257
0.421573
0.4209
0.420239
0.419589
0.418951
0.418325
0.417711
0.417109
0.41652
0.415943
0.415378
0.414827
0.414288
0.413762
0.413249
0.412749
0.412263
0.41179
0.411331
0.410885
0.410453
0.410035
0.409631
0.409241
0.408866
0.408505
0.408158
0.407825
0.407505
0.407199
0.406906
0.406628
0.406363
0.406113
0.405877
0.405655
0.405448
0.405256
0.405079
0.404917
0.404771
0.404641
0.404527
0.404429
0.404348
0.404283
0.404235
0.404203
0.404188
0.40419
0.404206
0.40427
0.404096
0.404776
0.403713
0.405571
0.403526
0.406428
0.402859
0.407719
0.400097
0.489022
0.488375
0.487705
0.487014
0.486301
0.485567
0.484812
0.484037
0.483243
0.48243
0.481599
0.48075
0.479885
0.479004
0.478107
0.477196
0.47627
0.475332
0.474382
0.47342
0.472447
0.471464
0.470471
0.46947
0.468461
0.467444
0.466421
0.465393
0.464359
0.463321
0.462279
0.461235
0.460189
0.459141
0.458089
0.457034
0.455979
0.454922
0.453865
0.45281
0.451755
0.450703
0.449652
0.448605
0.44756
0.446519
0.445483
0.444451
0.443423
0.442401
0.441385
0.440375
0.439371
0.438375
0.437386
0.436404
0.435431
0.434466
0.433509
0.432561
0.431622
0.430692
0.429772
0.428861
0.42796
0.427069
0.426188
0.425317
0.424457
0.423608
0.422769
0.421942
0.421126
0.420321
0.419528
0.418746
0.417977
0.417219
0.416474
0.415741
0.415022
0.414315
0.413622
0.412941
0.412274
0.41162
0.41098
0.410353
0.40974
0.40914
0.408554
0.407982
0.407424
0.406879
0.406349
0.405832
0.40533
0.404841
0.404367
0.403906
0.40346
0.403027
0.402609
0.402204
0.401813
0.401436
0.401073
0.400724
0.40039
0.40007
0.399764
0.399473
0.399197
0.398936
0.398689
0.398457
0.398239
0.398035
0.397845
0.39767
0.397508
0.39736
0.397225
0.397104
0.396997
0.396902
0.39682
0.396751
0.396694
0.396655
0.396602
0.396654
0.396395
0.396946
0.395967
0.397529
0.395482
0.397853
0.394299
0.493116
0.492384
0.491628
0.490846
0.490041
0.489213
0.488363
0.487491
0.486597
0.485682
0.484748
0.483795
0.482823
0.481834
0.480829
0.479807
0.47877
0.477718
0.476653
0.475575
0.474484
0.473383
0.47227
0.471148
0.470017
0.468878
0.467731
0.466578
0.465419
0.464254
0.463086
0.461913
0.460737
0.459559
0.458378
0.457196
0.456013
0.45483
0.453647
0.452465
0.451285
0.450108
0.448932
0.447761
0.446593
0.44543
0.444271
0.443118
0.441972
0.440831
0.439698
0.438571
0.437453
0.436343
0.435241
0.434149
0.433066
0.431992
0.430929
0.429875
0.428833
0.427801
0.42678
0.425771
0.424773
0.423787
0.422813
0.421852
0.420902
0.419966
0.419043
0.418132
0.417236
0.416352
0.415483
0.414627
0.413785
0.412958
0.412145
0.411346
0.410562
0.409792
0.409036
0.408295
0.407569
0.406857
0.40616
0.405477
0.40481
0.404157
0.403519
0.402896
0.402288
0.401695
0.401117
0.400554
0.400006
0.399473
0.398955
0.398452
0.397964
0.397491
0.397033
0.396591
0.396163
0.395751
0.395353
0.394971
0.394604
0.394253
0.393916
0.393595
0.393289
0.392998
0.392722
0.392461
0.392215
0.391983
0.391766
0.391563
0.391374
0.391199
0.391039
0.390891
0.390758
0.390638
0.390531
0.390436
0.390355
0.390286
0.390227
0.39019
0.390135
0.390169
0.390014
0.390285
0.389853
0.390533
0.389244
0.49936
0.498517
0.497644
0.496742
0.495811
0.494854
0.493871
0.492862
0.49183
0.490774
0.489696
0.488597
0.487478
0.486339
0.485182
0.484007
0.482816
0.48161
0.480389
0.479154
0.477906
0.476646
0.475376
0.474095
0.472806
0.471508
0.470203
0.468892
0.467574
0.466253
0.464927
0.463598
0.462266
0.460933
0.4596
0.458266
0.456933
0.455601
0.454271
0.452944
0.451621
0.450302
0.448988
0.44768
0.446377
0.445082
0.443793
0.442512
0.44124
0.439976
0.438722
0.437477
0.436243
0.435018
0.433805
0.432602
0.431412
0.430233
0.429066
0.427912
0.42677
0.425642
0.424527
0.423426
0.422339
0.421266
0.420208
0.419164
0.418135
0.417121
0.416122
0.415139
0.414171
0.413218
0.412281
0.411359
0.410454
0.409564
0.40869
0.407832
0.40699
0.406164
0.405354
0.404559
0.403781
0.403019
0.402273
0.401543
0.40083
0.400132
0.399451
0.398786
0.398136
0.397503
0.396886
0.396285
0.3957
0.395131
0.394579
0.394042
0.393521
0.393015
0.392526
0.392053
0.391595
0.391153
0.390727
0.390316
0.389921
0.389541
0.389177
0.388828
0.388494
0.388175
0.387872
0.387583
0.38731
0.387051
0.386807
0.386577
0.386362
0.386161
0.385974
0.385802
0.385643
0.385498
0.385366
0.385248
0.385142
0.38505
0.384969
0.384903
0.384843
0.384806
0.384755
0.384775
0.384673
0.38481
0.384301
0.505773
0.504805
0.503801
0.502764
0.501694
0.500592
0.49946
0.498299
0.497109
0.495893
0.494651
0.493384
0.492094
0.490782
0.48945
0.488098
0.486727
0.48534
0.483936
0.482518
0.481086
0.479641
0.478186
0.47672
0.475246
0.473763
0.472274
0.470779
0.46928
0.467776
0.46627
0.464763
0.463255
0.461746
0.460239
0.458734
0.457232
0.455734
0.45424
0.452751
0.451268
0.449792
0.448324
0.446864
0.445412
0.44397
0.442538
0.441116
0.439706
0.438307
0.43692
0.435546
0.434185
0.432838
0.431504
0.430184
0.428879
0.427589
0.426314
0.425055
0.423811
0.422583
0.421372
0.420176
0.418998
0.417836
0.416691
0.415563
0.414453
0.413359
0.412283
0.411225
0.410183
0.40916
0.408154
0.407165
0.406194
0.40524
0.404304
0.403386
0.402485
0.401601
0.400736
0.399888
0.399057
0.398245
0.397449
0.396672
0.395912
0.395169
0.394444
0.393736
0.393046
0.392373
0.391717
0.391079
0.390457
0.389853
0.389265
0.388694
0.38814
0.387603
0.387083
0.386579
0.386091
0.38562
0.385165
0.384727
0.384304
0.383897
0.383507
0.383132
0.382773
0.382429
0.382101
0.381788
0.381491
0.381208
0.380941
0.380688
0.38045
0.380227
0.380018
0.379824
0.379643
0.379477
0.379324
0.379185
0.379059
0.378946
0.378846
0.378759
0.378683
0.378622
0.378567
0.378537
0.378472
0.378511
0.378128
0.512404
0.511278
0.510112
0.508907
0.507665
0.506388
0.505076
0.503731
0.502354
0.500948
0.499513
0.498051
0.496563
0.495051
0.493517
0.491961
0.490386
0.488793
0.487183
0.485558
0.483918
0.482267
0.480604
0.478932
0.477252
0.475564
0.473871
0.472174
0.470473
0.46877
0.467067
0.465364
0.463662
0.461963
0.460268
0.458577
0.456892
0.455213
0.453542
0.451879
0.450225
0.44858
0.446947
0.445324
0.443714
0.442116
0.440531
0.43896
0.437404
0.435862
0.434336
0.432825
0.431331
0.429854
0.428393
0.42695
0.425525
0.424117
0.422728
0.421358
0.420006
0.418673
0.417359
0.416065
0.414789
0.413534
0.412297
0.411081
0.409884
0.408707
0.40755
0.406412
0.405294
0.404196
0.403118
0.40206
0.401022
0.400003
0.399004
0.398025
0.397065
0.396125
0.395205
0.394304
0.393422
0.39256
0.391717
0.390893
0.390088
0.389302
0.388536
0.387787
0.387058
0.386347
0.385655
0.384981
0.384325
0.383688
0.383068
0.382467
0.381883
0.381316
0.380768
0.380237
0.379723
0.379226
0.378746
0.378283
0.377837
0.377408
0.376995
0.376598
0.376218
0.375854
0.375506
0.375174
0.374857
0.374556
0.374271
0.374
0.373745
0.373506
0.37328
0.37307
0.372874
0.372693
0.372526
0.372373
0.372234
0.372108
0.371997
0.371899
0.371815
0.371744
0.371685
0.371642
0.371592
0.371602
0.371247
0.52003
0.51871
0.517344
0.515934
0.514482
0.51299
0.511459
0.509891
0.508288
0.506652
0.504985
0.503289
0.501565
0.499815
0.498041
0.496245
0.494429
0.492594
0.490743
0.488876
0.486997
0.485106
0.483205
0.481296
0.47938
0.477459
0.475535
0.473608
0.471681
0.469755
0.46783
0.46591
0.463993
0.462083
0.46018
0.458284
0.456398
0.454522
0.452658
0.450805
0.448965
0.44714
0.445328
0.443532
0.441752
0.439989
0.438243
0.436514
0.434805
0.433114
0.431442
0.42979
0.428158
0.426547
0.424956
0.423387
0.421839
0.420313
0.418808
0.417326
0.415865
0.414427