/*--------------------------------*- C++ -*----------------------------------*\
| =========                 |                                                 |
| \\      /  F ield         | OpenFOAM: The Open Source CFD Toolbox           |
|  \\    /   O peration     | Version:  5.x                                   |
|   \\  /    A nd           | Web:      www.OpenFOAM.org                      |
|    \\/     M anipulation  |                                                 |
\*---------------------------------------------------------------------------*/
/*   Windows 32 and 64 bit porting by blueCAPE: http://www.bluecape.com.pt   *\
|  Based on Windows porting (2.0.x v4) by Symscape: http://www.symscape.com   |
\*---------------------------------------------------------------------------*/
FoamFile
{
    version     2.0;
    format      ascii;
    class       surfaceScalarField;
    location    "50";
    object      phi;
}
// * * * * * * * * * * * * * * * * * * * * * * * * * * * * * * * * * * * * * //

dimensions      [0 3 -1 0 0 0 0];

internalField   nonuniform List<scalar> 
87341
(
0.378977
39.5441
0.442554
39.8595
0.486698
39.8789
0.539589
39.8701
0.58735
39.8753
0.633266
39.8771
0.678879
39.8774
0.722445
39.8795
0.764473
39.881
0.805257
39.8823
0.844826
39.8835
0.883227
39.8846
0.920492
39.8858
0.956638
39.8869
0.991711
39.888
1.02576
39.889
1.0588
39.89
1.0909
39.8909
1.12207
39.8919
1.15236
39.8927
1.18179
39.8936
1.2104
39.8944
1.2382
39.8952
1.26524
39.896
1.29154
39.8967
1.31712
39.8974
1.34203
39.8981
1.36627
39.8988
39.8991
1.39016
0.708144
38.8359
0.927541
39.6401
0.961419
39.845
1.07087
39.7607
1.13019
39.816
1.21416
39.7931
1.28133
39.8103
1.34973
39.8111
1.41468
39.8161
1.47688
39.82
1.53651
39.8238
1.59382
39.8273
1.64911
39.8305
1.70268
39.8333
1.75465
39.836
1.80516
39.8385
1.85436
39.8408
1.90236
39.8429
1.94928
39.8449
1.99519
39.8468
2.04021
39.8486
2.08423
39.8504
2.12748
39.852
2.17007
39.8534
2.21197
39.8548
2.2532
39.8562
2.29379
39.8575
2.33376
39.8588
39.8603
2.37259
1.62565
37.2103
2.24023
39.0255
2.38516
39.7001
2.39713
39.7487
2.46084
39.7522
2.49433
39.7597
2.5472
39.7574
2.59659
39.7617
2.65116
39.7615
2.7085
39.7627
2.76753
39.7648
2.82809
39.7668
2.88983
39.7687
2.95251
39.7706
3.01605
39.7725
3.08036
39.7742
3.14533
39.7758
3.21084
39.7774
3.27682
39.779
3.34316
39.7805
3.40981
39.7819
3.47652
39.7837
3.54336
39.7851
3.61023
39.7865
3.67713
39.7879
3.74404
39.7893
3.81088
39.7907
3.87761
39.7921
39.794
3.94395
1.53101
35.6793
2.75857
37.7979
3.13952
39.3191
3.12698
39.7613
3.14493
39.7343
3.15597
39.7486
3.17755
39.7358
3.20494
39.7343
3.23656
39.7299
3.27289
39.7264
3.31473
39.723
3.36147
39.72
3.41281
39.7174
3.46844
39.715
3.52781
39.7131
3.59055
39.7114
3.65632
39.7101
3.72495
39.7088
3.79601
39.7079
3.86922
39.7073
3.94431
39.7068
4.02135
39.7067
4.09978
39.7067
4.17927
39.707
4.25963
39.7076
4.34023
39.7087
4.42067
39.7103
4.50082
39.7119
39.713
4.58185
0.682531
34.9967
1.69304
36.7874
2.25608
38.7561
2.39607
39.6213
2.48122
39.6491
2.57476
39.6551
2.66762
39.6429
2.76163
39.6403
2.85622
39.6353
2.9512
39.6314
3.04705
39.6271
3.14377
39.6233
3.24128
39.6199
3.33942
39.6169
3.43823
39.6143
3.53761
39.612
3.63749
39.6102
3.73763
39.6087
3.83807
39.6075
3.9387
39.6066
4.03938
39.6062
4.14048
39.6056
4.24164
39.6056
4.34275
39.6059
4.44378
39.6066
4.54503
39.6075
4.6467
39.6086
4.74888
39.6098
39.6102
4.85161
0.2605
34.7362
0.64131
36.4066
1.06922
38.3282
1.30188
39.3886
1.48814
39.4629
1.67643
39.4668
1.85814
39.4612
2.0385
39.4599
2.21588
39.4579
2.391
39.4563
2.56318
39.4549
2.73261
39.4539
2.89941
39.4531
3.0637
39.4526
3.22559
39.4524
3.38517
39.4525
3.54254
39.4528
3.69774
39.4535
3.85086
39.4544
4.00195
39.4555
4.15102
39.4571
4.29859
39.458
4.4444
39.4598
4.58847
39.4619
4.7309
39.4641
4.87188
39.4665
5.01147
39.469
5.14947
39.4718
39.4752
5.28449
0.216525
34.5197
0.468122
36.155
0.750231
38.0461
0.977083
39.1618
1.18241
39.2576
1.38882
39.2604
1.59117
39.2589
1.79211
39.259
1.99089
39.2591
2.18759
39.2596
2.38221
39.2603
2.57474
39.2613
2.7652
39.2626
2.95358
39.2642
3.13989
39.2661
3.32413
39.2682
3.50631
39.2706
3.68641
39.2733
3.86445
39.2763
4.04039
39.2796
4.2142
39.2833
4.38611
39.2861
4.55588
39.29
4.7234
39.2943
4.88859
39.2989
5.05131
39.3038
5.21147
39.3088
5.36915
39.3141
39.32
5.52437
0.23385
34.2858
0.48472
35.9041
0.728544
37.8023
0.943054
38.9472
1.143
39.0576
1.34409
39.0593
1.54307
39.0599
1.74115
39.0609
1.93801
39.0623
2.13364
39.064
2.32795
39.066
2.52089
39.0684
2.7124
39.0711
2.90242
39.0742
3.09089
39.0776
3.27776
39.0813
3.46299
39.0854
3.64651
39.0898
3.82829
39.0946
4.00826
39.0996
4.18641
39.1051
4.36248
39.11
4.53656
39.1159
4.70861
39.1223
4.87857
39.129
5.04639
39.136
5.21198
39.1432
5.37529
39.1508
39.1583
5.53698
0.206512
34.0793
0.42186
35.6888
0.636473
37.5876
0.857468
38.7263
1.07677
38.8383
1.29511
38.8409
1.51205
38.8429
1.72762
38.8453
1.94179
38.8481
2.1545
38.8512
2.36572
38.8548
2.57538
38.8587
2.78343
38.8631
2.98981
38.8678
3.19448
38.8729
3.39736
38.8785
3.59841
38.8844
3.79757
38.8907
3.99478
38.8973
4.18999
38.9044
4.38321
38.9119
4.57391
38.9193
4.7624
38.9274
4.9487
38.936
5.13277
38.9449
5.31454
38.9542
5.4939
38.9639
5.67072
38.9739
38.9838
5.8452
0.201603
33.8777
0.405041
35.4854
0.612609
37.3801
0.846513
38.4923
1.08597
38.5989
1.32447
38.6024
1.5618
38.6056
1.79785
38.6093
2.03253
38.6134
2.26576
38.618
2.49743
38.6231
2.72747
38.6287
2.95578
38.6348
3.18228
38.6413
3.40687
38.6483
3.62949
38.6558
3.85004
38.6638
4.06845
38.6723
4.28462
38.6812
4.4985
38.6905
4.71003
38.7004
4.91883
38.7105
5.12507
38.7212
5.32871
38.7323
5.52969
38.7439
5.72795
38.7559
5.92342
38.7684
6.11603
38.7813
38.7943
6.30556
0.225929
33.6518
0.452251
35.259
0.679483
37.1528
0.931293
38.2405
1.18859
38.3416
1.44532
38.3457
1.70127
38.3497
1.95627
38.3543
2.21015
38.3595
2.46275
38.3654
2.71394
38.3719
2.96355
38.3791
3.21146
38.3869
3.45753
38.3952
3.70163
38.4042
3.94362
38.4138
4.18339
38.424
4.42082
38.4348
4.65579
38.4462
4.88818
38.4581
5.1179
38.4707
5.34472
38.4837
5.56862
38.4973
5.78954
38.5114
6.00738
38.5261
6.22205
38.5413
6.43349
38.557
6.64163
38.5732
38.5895
6.84639
0.252384
33.3994
0.506093
35.0053
0.758282
36.9006
1.0336
37.9652
1.31345
38.0617
1.59262
38.0665
1.87093
38.0714
2.1482
38.077
2.42425
38.0835
2.6989
38.0908
2.97198
38.0989
3.24332
38.1077
3.51277
38.1174
3.78014
38.1279
4.0453
38.1391
4.30808
38.1511
4.56834
38.1638
4.82594
38.1772
5.08072
38.1914
5.33256
38.2063
5.58132
38.2219
5.82684
38.2382
6.06902
38.2551
6.30775
38.2727
6.54292
38.2909
6.77443
38.3098
7.00218
38.3292
7.22608
38.3493
38.3694
7.44619
0.277003
33.1224
0.555287
34.727
0.832357
36.6236
1.13446
37.6631
1.44097
37.7552
1.74655
37.7609
2.05101
37.7669
2.35415
37.7739
2.65578
37.7819
2.9557
37.7908
3.25372
37.8008
3.54965
37.8118
3.84332
37.8237
4.13453
37.8366
4.42311
37.8505
4.70889
37.8653
4.99169
37.881
5.27135
37.8976
5.54772
37.9151
5.82062
37.9334
6.08992
37.9526
6.35545
37.9726
6.61708
37.9935
6.87468
38.0151
7.12812
38.0375
7.37728
38.0606
7.62203
38.0845
7.86228
38.109
38.1336
8.09806
0.303559
32.8189
0.608166
34.4224
0.912236
36.3195
1.24358
37.3318
1.57928
37.4195
1.91385
37.4264
2.24705
37.4337
2.57865
37.4423
2.90841
37.4521
3.23612
37.4631
3.56156
37.4754
3.88449
37.4889
4.20472
37.5035
4.52201
37.5194
4.83618
37.5363
5.14702
37.5544
5.45432
37.5737
5.75791
37.594
6.05758
37.6154
6.35317
37.6378
6.6445
37.6613
6.9314
37.6857
7.2137
37.7112
7.49127
37.7375
7.76393
37.7648
8.03157
37.793
8.29404
37.822
8.55123
37.8518
37.8817
8.80313
0.333173
32.4857
0.667275
34.0883
1.00128
35.9855
1.36452
36.9685
1.73193
37.0521
2.09799
37.0603
2.46243
37.0693
2.82496
37.0797
3.18531
37.0917
3.54321
37.1052
3.89841
37.1202
4.25063
37.1366
4.59963
37.1545
4.94515
37.1738
5.28696
37.1945
5.62481
37.2166
5.95848
37.24
6.28774
37.2647
6.61238
37.2908
6.93218
37.318
7.24695
37.3465
7.5565
37.3762
7.86063
37.407
8.15917
37.439
8.45196
37.472
8.73884
37.5061
9.01965
37.5412
9.29426
37.5772
37.6133
9.56266
0.365495
32.1202
0.731766
33.7221
1.09851
35.6188
1.49648
36.5706
1.89836
36.6502
2.29863
36.66
2.69696
36.6709
3.09303
36.6837
3.48651
36.6983
3.87708
36.7147
4.26443
36.7329
4.64825
36.7528
5.02825
36.7745
5.40413
36.798
5.7756
36.8231
6.14238
36.8498
6.50422
36.8782
6.86084
36.9081
7.21199
36.9396
7.55744
36.9726
7.89696
37.007
8.23032
37.0428
8.5573
37.08
8.87772
37.1186
9.19138
37.1584
9.4981
37.1994
9.79772
37.2416
10.0901
37.2849
37.3283
10.3752
0.400353
31.7198
0.80122
33.3212
1.20341
35.2166
1.63895
36.135
2.07805
36.2111
2.51524
36.2229
2.95013
36.2361
3.38232
36.2515
3.81145
36.2691
4.23712
36.289
4.65898
36.311
5.07667
36.3351
5.48982
36.3614
5.8981
36.3897
6.30116
36.42
6.6987
36.4523
7.09039
36.4865
7.47593
36.5226
7.85504
36.5605
8.22743
36.6002
8.59283
36.6416
8.951
36.6847
9.3017
36.7293
9.64469
36.7756
9.97977
36.8233
10.3067
36.8724
10.6254
36.9229
10.9356
36.9747
37.0266
11.2373
0.437719
31.2821
0.875563
32.8834
1.31592
34.7762
1.79176
35.6592
2.27075
35.7321
2.74747
35.7461
3.22147
35.7621
3.69229
35.7807
4.15948
35.8019
4.6226
35.8259
5.08122
35.8524
5.53491
35.8814
5.98326
35.913
6.42587
35.9471
6.86234
35.9835
7.29231
36.0223
7.7154
36.0634
8.13127
36.1067
8.53958
36.1522
8.94002
36.1997
9.33227
36.2493
9.71606
36.3009
10.0911
36.3543
10.4572
36.4095
10.814
36.4664
11.1614
36.525
11.4991
36.5852
11.827
36.6468
36.7086
12.145
0.477528
30.8046
0.954638
32.4062
1.43587
34.295
1.95464
35.1404
2.47607
35.2107
2.99483
35.2274
3.51039
35.2465
4.02221
35.2688
4.52977
35.2944
5.03255
35.3231
5.53004
35.3549
6.02175
35.3897
6.50719
35.4276
6.9859
35.4684
7.45743
35.512
7.92134
35.5584
8.37721
35.6075
8.82464
35.6593
9.26324
35.7136
9.69265
35.7703
10.1125
35.8295
10.5225
35.8909
10.9224
35.9544
11.3118
36.0201
11.6905
36.0878
12.0582
36.1573
12.4148
36.2286
12.76
36.3016
36.3749
13.0936
0.519628
30.285
1.03811
31.8878
1.56282
33.7703
2.12702
34.5762
2.69329
34.6444
3.25644
34.6642
3.81584
34.6871
4.37088
34.7138
4.92095
34.7443
5.46543
34.7786
6.00375
34.8166
6.53532
34.8582
7.05958
34.9033
7.57601
34.9519
8.08406
35.0039
8.58325
35.0592
9.07308
35.1177
9.55309
35.1793
10.0229
35.2438
10.4819
35.3112
10.93
35.3814
11.3666
35.4543
11.7914
35.5296
12.2042
35.6074
12.6045
35.6874
12.9922
35.7696
13.3671
35.8537
13.7288
35.9399
36.0266
14.0772
0.563792
29.7212
1.12549
31.3261
1.69614
33.1996
2.30803
33.9643
2.92132
34.0311
3.53099
34.0546
4.13632
34.0818
4.73659
34.1135
5.33109
34.1498
5.91913
34.1906
6.50001
34.2357
7.07308
34.2851
7.6377
34.3387
8.19323
34.3964
8.73908
34.4581
9.27467
34.5236
9.79944
34.5929
10.3129
34.6658
10.8145
34.7422
11.3038
34.8219
11.7803
34.9049
12.2437
34.9909
12.6935
35.0797
13.1294
35.1715
13.5512
35.2656
13.9585
35.3623
14.3509
35.4613
14.7286
35.5622
35.6644
15.0908
0.609731
29.1114
1.21617
30.7196
1.835
32.5808
2.49656
33.3028
3.15878
33.3689
3.81682
33.3965
4.46988
33.4287
5.11711
33.4663
5.75771
33.5092
6.39088
33.5574
7.01583
33.6107
7.63179
33.6691
8.23803
33.7325
8.83384
33.8006
9.41852
33.8734
9.99141
33.9507
10.5519
34.0324
11.0993
34.1184
11.6333
34.2083
12.153
34.3023
12.6581
34.3997
13.1483
34.5007
13.6226
34.6054
14.0816
34.7125
14.524
34.8233
14.9496
34.9366
15.3592
35.0518
15.7508
35.1706
35.2902
16.125
0.657058
28.4544
1.30933
30.0673
1.97833
31.9118
2.69116
32.5899
3.40384
32.6562
4.11177
32.6886
4.814
32.7265
5.50961
32.7707
6.19765
32.8212
6.87722
32.8778
7.54742
32.9405
8.20737
33.0092
8.85626
33.0836
9.49322
33.1636
10.1175
33.2491
10.7284
33.3399
11.325
33.4358
11.9071
33.5363
12.4732
33.6422
13.0238
33.7517
13.5575
33.866
14.0736
33.9846
14.5734
34.1056
15.0536
34.2324
15.5161
34.3607
15.961
34.4918
16.3843
34.6285
16.7908
34.7641
34.9045
17.1765
0.705303
27.7491
1.40404
29.3686
2.12479
31.1911
2.89004
31.8247
3.65427
31.892
4.41314
31.9297
5.16559
31.974
5.91056
32.0257
6.647
32.0847
7.37387
32.151
8.09015
32.2243
8.7949
32.3044
9.48707
32.3914
10.1659
32.4848
10.8303
32.5847
11.4794
32.6907
12.113
32.8023
12.7288
32.9205
13.3287
33.0423
13.9088
33.1715
14.4706
33.3043
15.0149
33.4403
15.5351
33.5854
16.0393
33.7282
16.5219
33.8782
16.9789
34.0347
17.422
34.1853
17.8378
34.3483
34.5128
18.2295
0.753898
26.9952
1.49918
28.6233
2.27281
30.4174
3.09103
31.0065
3.90737
31.0756
4.71772
31.1194
5.52091
31.1708
6.31576
31.2309
7.10109
31.2994
7.87572
31.3763
8.63857
31.4614
9.38839
31.5546
10.1244
31.6554
10.8451
31.7641
11.55
31.8798
12.238
32.0027
12.9068
32.1335
13.5598
32.2675
14.1887
32.4134
14.8011
32.5591
15.3928
32.7126
15.9556
32.8774
16.5079
33.0331
17.0283
33.2078
17.5236
33.3829
18.0093
33.549
18.4529
33.7418
18.8806
33.9206
34.105
19.2884
0.802159
26.193
1.59347
27.832
2.42053
29.5904
3.29163
30.1354
4.15999
30.2073
5.02175
30.2576
5.87562
30.3169
6.72031
30.3862
7.55449
30.4652
8.37692
30.5539
9.18618
30.6522
9.98145
30.7593
10.7606
30.8762
11.524
31.0007
12.2689
31.135
12.9942
31.2774
13.7036
31.424
14.3834
31.5877
15.0528
31.744
15.6921
31.9198
16.3029
32.1019
16.9095
32.2708
17.4659
32.4767
18.0096
32.6641
18.5409
32.8516
19.0115
33.0784
19.4867
33.2666
19.9278
33.4795
33.7153
20.3175
0.849301
25.3437
1.68548
26.9958
2.56583
28.71
3.48898
29.2122
4.40857
29.2877
5.32098
29.3452
6.22484
29.4131
7.1187
29.4923
8.00117
29.5828
8.87069
29.6844
9.72635
29.7965
10.5655
29.9202
11.3895
30.0523
12.1927
30.1975
12.9781
30.3495
13.7456
30.51
14.4794
30.6901
15.2116
30.8554
15.8964
31.0592
16.565
31.2513
17.2276
31.4392
17.8196
31.6788
18.424
31.8723
18.9962
32.092
19.4984
32.3493
20.0296
32.5472
20.4963
32.7999
20.9189
33.0569
33.2779
21.3563
0.894445
24.4493
1.77372
26.1166
2.7064
27.7773
3.67996
28.2386
4.6492
28.3184
5.61074
28.3837
6.56315
28.4607
7.50487
28.5506
8.43429
28.6533
9.35025
28.7684
10.2499
28.8968
11.1352
29.0349
11.9977
29.1898
12.8464
29.3488
13.671
29.5249
14.4643
29.7167
15.2617
29.8927
15.9911
30.126
16.7301
30.3202
17.4432
30.5383
18.0775
30.8049
18.7507
31.0056
19.3614
31.2616
19.9082
31.5452
20.4968
31.7607
20.997
32.047
21.4613
32.3356
21.9466
32.5716
32.8975
22.327
0.936646
23.5126
1.85666
25.1965
2.8398
26.7942
3.86124
27.2172
4.87769
27.302
5.88605
27.3753
6.8848
27.4619
7.8723
27.5631
8.84707
27.6786
9.80657
27.8089
10.7523
27.9511
11.6744
28.1128
12.5873
28.2768
13.4672
28.4689
14.3273
28.6648
15.186
28.858
15.9645
29.1142
16.7814
29.3091
17.5376
29.564
18.228
29.8479
18.9694
30.0635
19.6265
30.3485
20.2199
30.6681
20.8741
30.891
21.4065
31.2283
21.9092
31.5443
22.4485
31.7964
22.8562
32.1638
32.4779
23.2758
0.974914
22.5377
1.93282
24.2386
2.96354
25.7635
4.0294
26.1513
5.08976
26.2416
6.14173
26.3234
7.18386
26.4198
8.21438
26.5326
9.2313
26.6616
10.2348
26.8055
11.2162
26.9697
12.1912
27.1377
13.1255
27.3425
14.058
27.5365
14.9682
27.7546
15.8064
28.0198
16.6968
28.2238
17.5002
28.5057
18.2559
28.8083
19.073
29.0307
19.7675
29.3691
20.4106
29.7054
21.146
29.9327
21.7066
30.3305
22.2683
30.6665
22.8562
30.9565
23.2962
31.3564
23.7814
31.6786
32.0585
24.2008
1.00827
21.5294
2.00079
23.2461
3.07514
24.6891
4.18107
25.0454
5.28108
25.1416
6.37269
25.2317
7.45423
25.3383
8.52419
25.4626
9.58124
25.6046
10.6198
25.7669
11.6516
25.9379
12.6413
26.148
13.6446
26.3392
14.5971
26.584
15.5111
26.8405
16.4706
27.0604
17.3166
27.3778
18.141
27.6812
19.0373
27.9121
19.7654
28.3026
20.489
28.6455
21.2847
28.9096
21.8734
29.344
22.5224
29.6815
23.1513
30.0376
23.6383
30.4694
24.1889
30.8059
24.6271
31.2404
31.6772
25.0084
1.03579
20.4937
2.0593
22.2226
3.17225
23.5762
4.31293
23.9048
5.44756
24.007
6.57376
24.1055
7.69043
24.2216
8.79544
24.3576
9.88615
24.5139
10.968
24.6851
12.0138
24.8921
13.0786
25.0832
14.0728
25.345
15.0724
25.5844
16.0773
25.8356
16.9783
26.1594
17.8892
26.4669
18.8434
26.727
19.5972
27.1583
20.4263
27.4735
21.2624
27.8094
21.918
28.254
22.6617
28.6004
23.2941
29.0491
23.8635
29.4682
24.487
29.846
24.9364
30.3564
25.3804
30.7964
31.2011
25.8565
1.05673
19.4369
2.10727
21.172
3.25273
22.4307
4.42205
22.7354
5.58528
22.8438
6.74072
22.9501
7.88653
23.0758
9.02167
23.2224
10.1464
23.3892
11.2451
23.5864
12.3585
23.7787
13.3993
24.0424
14.4751
24.2692
15.5157
24.5438
16.4829
24.8685
17.4723
25.17
18.4489
25.4903
19.2805
25.8954
20.229
26.2098
21.0709
26.6316
21.8255
27.0547
22.6342
27.4453
23.2998
27.9348
23.9777
28.3712
24.6493
28.7966
25.1203
29.375
25.6683
29.8084
26.1921
30.2726
30.8913
26.5019
1.07057
18.3664
2.14382
20.0988
3.31473
21.2598
4.50576
21.5444
5.69111
21.6584
6.86898
21.7722
8.03887
21.9059
9.19903
22.0623
10.3426
22.2456
11.4924
22.4366
12.5809
22.6902
13.7149
22.9085
14.7875
23.1966
15.8186
23.5127
16.8756
23.8115
17.9068
24.1388
18.85
24.5472
19.832
24.9134
20.7057
25.3362
21.5767
25.7606
22.4384
26.193
23.1513
26.7324
23.9188
27.1673
24.6511
27.6388
25.1788
28.269
25.8272
28.7266
26.3485
29.287
26.7317
29.8894
30.4257
27.1973
1.07713
17.2892
2.1683
19.0076
3.35689
20.0712
4.56217
20.3391
5.76223
20.4583
6.95617
20.5783
8.1428
20.7193
9.31938
20.8857
10.4957
21.0692
11.6293
21.3029
12.8084
21.5111
13.9045
21.8124
15.0006
22.1004
16.1369
22.3765
17.1938
22.7546
18.1915
23.1411
19.2228
23.5159
20.1782
23.958
21.1301
24.3842
22.04
24.8507
22.8176
25.4154
23.6953
25.8548
24.4836
26.3789
25.0898
27.0326
25.8246
27.5342
26.3805
28.1706
26.895
28.7725
27.3939
29.3905
30.0406
27.7791
1.07637
16.2129
2.1801
17.9039
3.37821
18.8731
4.59008
19.1273
5.79742
19.251
6.99981
19.3759
8.19587
19.5232
9.38959
19.692
10.5583
19.9005
11.7586
20.1027
12.884
20.3857
14.0409
20.6556
15.2028
20.9384
16.2664
21.3129
17.3575
21.6635
18.4529
22.0456
19.4583
22.5105
20.5063
22.9099
21.4535
23.437
22.3141
23.9902
23.2875
24.442
24.1099
25.0323
24.8405
25.6484
25.6176
26.2555
26.2615
26.8904
26.89
27.5421
27.4145
28.2481
27.8829
28.9221
29.7037
28.2198
1.06855
15.1443
2.17878
16.7937
3.37834
17.6735
4.58905
17.9166
5.79652
18.0435
6.99949
18.1729
8.20113
18.3216
9.3896
18.5035
10.596
18.6942
11.7505
18.9481
12.9422
19.194
14.1126
19.4853
15.2229
19.8281
16.3738
20.162
17.5148
20.5225
18.5584
21.002
19.688
21.381
20.6466
21.9514
21.6352
22.4484
22.6766
22.9487
23.5831
23.5355
24.4237
24.1918
25.1812
24.8909
25.9833
25.4533
26.6865
26.1872
27.2977
26.9309
27.8247
27.7211
28.3005
28.4464
29.2438
28.7603
1.05415
14.0902
2.16437
15.6834
3.35718
16.4807
4.55976
16.714
5.75911
16.8442
6.95816
16.9739
8.14976
17.13
9.35217
17.3011
10.5238
17.5225
11.7237
17.7482
12.9114
18.0063
14.0573
18.3394
15.2374
18.6479
16.3972
19.0022
17.4759
19.4438
18.6542
19.8237
19.6654
20.3698
20.7876
20.8292
21.8466
21.3894
22.8177
21.9777
23.7114
22.6417
24.5726
23.3306
25.5163
23.9471
26.2838
24.6858
26.9409
25.5301
27.5717
26.3001
28.1939
27.0989
28.6746
27.9656
28.9192
28.9993
1.03387
13.0563
2.13693
14.5804
3.31567
15.302
4.50232
15.5273
5.6889
15.6576
6.87109
15.7917
8.06207
15.939
9.23489
16.1283
10.4339
16.3235
11.6175
16.5646
12.7701
16.8537
13.9689
17.1405
15.1338
17.4831
16.2706
17.8654
17.4458
18.2686
18.5411
18.7284
19.7163
19.1946
20.7683
19.7771
21.8149
20.3429
22.795
20.9975
23.8258
21.611
24.7911
22.3653
25.6287
23.1095
26.3929
23.9216
27.1873
24.7356
27.88
25.6074
28.4332
26.5457
28.9124
27.4863
28.473
29.3586
1.00843
12.0479
2.09745
13.4913
3.25457
14.1449
4.42009
14.3618
5.58337
14.4943
6.75303
14.622
7.9115
14.7805
9.09418
14.9456
10.2547
15.163
11.4158
15.4034
12.6174
15.6521
13.7737
15.9842
14.9379
16.3189
16.1004
16.7029
17.2736
17.0954
18.4315
17.5706
19.4972
18.1288
20.6538
18.6206
21.7326
19.2641
22.8436
19.8864
23.7887
20.6659
24.8106
21.3435
25.7128
22.2073
26.5332
23.1012
27.3106
23.9583
27.9968
24.9212
28.6176
25.925
29.1123
26.9916
28.0809
29.5044
0.978682
11.0692
2.04648
12.4235
3.17617
13.0152
4.31279
13.2252
5.45306
13.354
6.58791
13.4872
7.74269
13.6258
8.87588
13.8124
10.0345
14.0044
11.2101
14.2278
12.3343
14.5279
13.5182
14.8003
14.6873
15.1499
15.8509
15.5392
16.9904
15.9559
18.1317
16.4292
19.3372
16.9233
20.4763
17.4815
21.5754
18.1649
22.6224
18.8395
23.7089
19.5793
24.687
20.3654
25.6496
21.2448
26.5771
22.1736
27.346
23.1895
28.0646
24.2025
28.7012
25.2884
29.2629
26.4299
27.6728
29.6709
0.945337
10.1239
1.98586
11.383
3.08192
11.9191
4.18687
12.1202
5.29078
12.2501
6.40708
12.3709
7.50986
12.523
8.64435
12.6779
9.77189
12.8768
10.8774
13.1224
12.0638
13.3415
13.1931
13.671
14.3213
14.0217
15.513
14.3475
16.6805
14.7885
17.8198
15.29
19.0163
15.7268
20.0952
16.4025
21.2787
16.9814
22.3976
17.7206
23.4987
18.4782
24.512
19.3521
25.4886
20.2682
26.4379
21.2243
27.3543
22.2731
28.0819
23.4749
28.7379
24.6324
29.2686
25.8991
27.2592
29.6823
0.909212
9.21465
1.91656
10.3757
2.97506
10.8606
4.04119
11.0541
5.11372
11.1776
6.1825
11.3021
7.27435
11.4311
8.35523
11.597
9.44066
11.7914
10.5911
11.9719
11.6576
12.275
12.7892
12.5394
13.9839
12.8269
15.0896
13.2418
16.2155
13.6626
17.4264
14.079
18.5358
14.6174
19.7629
15.1754
20.8925
15.8518
22.0233
16.5899
23.179
17.3224
24.2549
18.2762
25.3015
19.2216
26.2759
20.2499
27.1563
21.3927
28.0081
22.6231
28.7035
23.937
29.2659
25.3367
26.7962
29.7289
0.870908
8.34374
1.84066
9.40593
2.85717
9.84412
3.88343
10.0278
4.91208
10.149
5.95229
10.2619
6.99105
10.3924
8.04065
10.5474
9.1312
10.7009
10.1505
10.9526
11.2814
11.1441
12.3994
11.4214
13.4645
11.7619
14.6128
12.0936
15.7681
12.5073
16.9311
12.9159
18.0729
13.4756
19.2009
14.0475
20.4177
14.635
21.6334
15.3742
22.7175
16.2384
23.8965
17.0972
25.001
18.117
25.9693
19.2816
26.9445
20.4175
27.7977
21.7698
28.5879
23.1468
29.1933
24.7314
26.3428
29.6467
0.830879
7.51286
1.75941
8.47739
2.73142
8.87212
3.71341
9.04586
4.70138
9.16098
5.69616
9.26711
6.69503
9.3935
7.72611
9.51636
8.71031
9.71667
9.79808
9.86483
10.8333
10.1089
11.8769
10.3778
12.9901
10.6487
14.0712
11.0124
15.265
11.3135
16.3247
11.8563
17.4711
12.3292
18.7148
12.8038
19.842
13.5078
21.0527
14.1635
22.2459
15.0452
23.3569
15.9862
24.5205
16.9534
25.6722
18.13
26.6446
19.4451
27.5896
20.8248
28.3567
22.3798
29.0423
24.0457
25.8706
29.5146
0.789
6.72386
1.67434
7.59205
2.5999
7.94656
3.53578
8.10998
4.48089
8.21587
5.42599
8.322
6.40143
8.41807
7.34073
8.57706
8.36847
8.68893
9.33803
8.89527
10.3441
9.10284
11.3952
9.32673
12.4369
9.60692
13.5641
9.88527
14.5542
10.3233
15.7202
10.6903
16.9182
11.1313
18.0229
11.699
19.2398
12.2909
20.3644
13.0388
21.6353
13.7743
22.8916
14.73
24.0261
15.8189
25.1152
17.0409
26.2583
18.3019
27.234
19.8492
28.1261
21.4877
28.8396
23.3321
25.3564
29.3537
0.745358
5.9785
1.5869
6.75051
2.46439
7.06907
3.35526
7.21911
4.24861
7.32252
5.1658
7.40481
6.05573
7.52814
7.02302
7.60978
7.92585
7.7861
8.88543
7.93569
9.87321
8.11506
10.8729
8.327
11.8887
8.59116
12.8573
8.91666
14.0133
9.16735
15.0905
9.61307
16.1783
10.0434
17.3166
10.5608
18.5028
11.1046
19.7327
11.809
20.9159
12.5911
22.1453
13.5006
23.4374
14.5268
24.6672
15.8111
25.7666
17.2025
26.8452
18.7706
27.7569
20.576
28.5663
22.5227
24.7942
29.1286
0.702577
5.27592
1.49836
5.95473
2.32845
6.23898
3.16918
6.37838
4.02596
6.46574
4.86951
6.56126
5.77054
6.62711
6.60958
6.77074
7.52808
6.8676
8.44952
7.01425
9.37667
7.18791
10.2971
7.40653
11.266
7.62233
12.336
7.8466
13.2696
8.23376
14.3891
8.49362
15.4792
8.95331
16.5872
9.45277
17.7303
9.96149
18.9283
10.611
20.2002
11.3192
21.4587
12.2421
22.6844
13.3011
23.9792
14.5163
25.2232
15.9584
26.3555
17.6383
27.4066
19.525
28.2301
21.6992
24.1384
28.8858
0.661352
4.61457
1.41061
5.20547
2.19183
5.45776
2.98894
5.58126
3.78611
5.66858
4.61691
5.73046
5.40655
5.83746
6.28078
5.89651
7.11573
6.03265
7.96819
6.16179
8.84353
6.31257
9.77134
6.47872
10.7123
6.68135
11.6151
6.9438
12.6834
7.16544
13.5927
7.58438
14.7133
7.83268
15.8234
8.3427
16.9379
8.84696
18.1497
9.3993
19.3205
10.1483
20.6457
10.9169
21.9374
12.0094
23.2696
13.1841
24.5493
14.6786
25.8066
16.381
26.9283
18.4033
27.9109
20.7166
23.4833
28.566
0.6211
3.99347
1.32394
4.50262
2.05874
4.72296
2.80497
4.83503
3.56941
4.90414
4.31819
4.98168
5.12635
5.0293
5.87841
5.14445
6.69554
5.21552
7.52563
5.3317
8.35702
5.48118
9.21258
5.62315
10.0767
5.8172
11.0276
5.99296
11.8867
6.30631
12.9998
6.47124
13.8987
6.93383
14.9836
7.25777
16.1138
7.7168
17.261
8.2521
18.4843
8.92504
19.698
9.70327
21.0894
10.618
22.4474
11.8261
23.8519
13.2741
25.1689
15.0641
26.433
17.1392
27.4672
19.6824
22.6456
28.3048
0.581824
3.41165
1.2397
3.84475
1.92749
4.03517
2.63119
4.13133
3.33786
4.19747
4.07099
4.24855
4.77917
4.32113
5.5469
4.37672
6.28847
4.47394
7.0568
4.56337
7.85346
4.68452
8.66417
4.81245
9.50683
4.97454
10.3408
5.15898
11.2878
5.35934
12.1321
5.62692
13.2065
5.85943
14.1706
6.29364
15.2414
6.64602
16.3445
7.14903
17.5657
7.70384
18.8252
8.44375
20.1169
9.32627
21.5649
10.3781
23.0159
11.8231
24.4662
13.6138
25.8469
15.7584
27.0553
18.4741
21.7618
27.9391
0.543813
2.86783
1.15797
3.23059
1.80164
3.39151
2.45746
3.47551
3.12961
3.52532
3.79173
3.58644
4.5024
3.61045
5.16081
3.71831
5.91132
3.72344
6.59929
3.8754
7.36933
3.91448
8.11879
4.06298
8.91077
4.18256
9.73039
4.33937
10.5753
4.51442
11.4829
4.71932
12.3179
5.02449
13.3778
5.23367
14.4016
5.62219
15.4283
6.12238
16.6092
6.52291
17.8254
7.22752
19.2096
7.94216
20.5464
9.04123
22.1473
10.2222
23.6894
12.0718
25.2103
14.2375
26.5721
17.1123
20.6799
27.654
0.50717
2.36066
1.07954
2.65822
1.67974
2.79131
2.29344
2.86181
2.91799
2.90077
3.54656
2.95786
4.19847
2.95854
4.82987
3.08691
5.52809
3.02522
6.17285
3.23064
6.90204
3.18529
7.58743
3.37759
8.37155
3.39843
9.09224
3.61868
9.92175
3.6849
10.7216
3.91951
11.6635
4.08256
12.4798
4.41736
13.5405
4.56153
14.5459
5.11694
15.6775
5.39137
16.8229
6.0821
18.173
6.59202
19.5514
7.66282
21.082
8.69155
22.7685
10.3853
24.5045
12.5015
26.0523
15.5646
19.3735
27.3586
0.472079
1.88858
1.00452
2.12577
1.56348
2.23236
2.1348
2.29049
2.71912
2.31645
3.30157
2.37542
3.9191
2.34101
4.49063
2.51537
5.17877
2.33709
5.71774
2.69167
6.48915
2.41388
7.04893
2.81781
7.8116
2.63577
8.50154
2.92874
9.28869
2.89775
10.0124
3.19581
10.8793
3.2156
11.7322
3.56454
12.658
3.63571
13.6325
4.14241
14.7213
4.30256
15.8356
4.96786
17.1342
5.29341
18.4404
6.35663
20.0951
7.03675
21.6578
8.82261
23.7866
10.3727
25.5022
13.849
17.6715
27.2042
0.438569
1.45001
0.933021
1.63132
1.45237
1.71301
1.9834
1.75945
2.52815
1.7717
3.06696
1.83661
3.6495
1.75847
4.17382
1.99105
4.81675
1.69416
5.33129
2.17713
6.03241
1.71275
6.5545
2.29572
7.31762
1.87265
7.88018
2.36618
8.66616
2.11178
9.33941
2.52256
10.181
2.37398
10.9261
2.8195
11.8346
2.72721
12.6954
3.28153
13.7918
3.20618
14.8117
3.94797
16.098
4.00712
17.3414
5.11327
18.9699
5.40827
20.628
7.1645
22.7818
8.21885
24.8871
11.7437
15.5291
27.0295
0.406751
1.04326
0.865473
1.1726
1.34696
1.23152
1.84137
1.26504
2.34177
1.2713
2.85658
1.3218
3.36993
1.24511
3.89141
1.46958
4.44581
1.13975
4.97226
1.65069
5.56897
1.11605
6.10473
1.75996
6.76407
1.2133
7.3466
1.78365
8.04569
1.41269
8.68469
1.88357
9.43629
1.62238
10.191
2.06482
11.0196
1.89854
11.9266
2.3746
12.8639
2.26884
13.9624
2.84944
15.0858
2.88377
16.4787
3.72038
17.9318
3.95516
19.827
5.26927
21.8645
6.18138
24.5492
9.05907
12.7114
27.3668
0.376511
0.666752
0.800852
0.748258
1.24633
0.786048
1.70368
0.80769
2.16687
0.808105
2.64581
0.842858
3.10919
0.781741
3.6344
0.944362
4.07528
0.698878
4.6654
1.06056
5.10673
0.674724
5.75563
1.11106
6.20946
0.759471
6.87921
1.1139
7.41071
0.881181
8.12631
1.16797
8.71241
1.03628
9.50071
1.27652
10.1791
1.22018
11.0717
1.48202
11.8801
1.46035
12.9288
1.80078
13.9569
1.85561
15.2992
2.37815
16.7062
2.54818
18.5697
3.40571
20.7059
4.0452
24.0234
5.74152
8.95838
27.7765
0.348376
0.318376
0.742277
0.354357
1.15565
0.372679
1.57951
0.383827
2.00722
0.380396
2.45805
0.392026
2.86449
0.375304
3.37133
0.437526
3.74869
0.321511
4.31346
0.495793
4.67274
0.315448
5.26615
0.517648
5.66274
0.362878
6.25353
0.523113
6.72594
0.408768
7.33557
0.558338
7.88421
0.487641
8.55037
0.610365
9.19774
0.572812
9.96753
0.712225
10.7434
0.684458
11.6756
0.868625
12.661
0.870216
13.8858
1.15335
15.241
1.19297
16.9863
1.66035
19.0843
1.94727
22.5442
2.28157
4.83667
26.6659
0.318376
0.672732
1.04541
1.42924
1.80963
2.20166
2.57696
3.01449
3.336
3.83179
4.14724
4.66489
5.02777
5.55088
5.95965
6.51799
7.00563
7.61599
8.18881
8.90103
9.58549
10.4541
11.3243
12.4777
13.6707
15.331
17.2783
19.5598
24.3965
1.42144
54.109
1.45134
54.1103
1.48022
54.1114
1.50809
54.1124
1.535
54.1133
1.561
54.1142
1.58611
54.1151
1.61035
54.116
1.63376
54.1168
1.65634
54.1176
1.67812
54.1185
1.69913
54.1192
1.71938
54.12
1.73888
54.1207
1.75764
54.1215
1.77568
54.1222
1.793
54.1229
1.80961
54.1236
1.82553
54.1243
1.84074
54.125
1.85526
54.1257
1.8691
54.1264
1.88226
54.1271
1.89473
54.1278
1.90654
54.1284
1.91766
54.1291
1.9281
54.1298
1.93788
54.1305
1.94699
54.1311
1.95542
54.1318
1.9632
54.1325
1.97031
54.1331
1.97674
54.1338
1.98252
54.1345
1.98764
54.1351
1.99209
54.1358
1.99589
54.1364
1.99903
54.1371
2.00151
54.1378
2.00333
54.1384
2.0045
54.1391
2.00502
54.1397
2.00488
54.1404
2.00409
54.141
2.00265
54.1417
2.00057
54.1423
1.99785
54.143
1.99449
54.1436
1.99049
54.1442
1.98586
54.1449
1.98059
54.1455
1.9747
54.1461
1.96818
54.1468
1.96104
54.1474
1.95329
54.148
1.94492
54.1486
1.93594
54.1492
1.92636
54.1498
1.91617
54.1504
1.90539
54.151
1.89403
54.1516
1.88207
54.1522
1.86953
54.1528
1.85642
54.1534
1.84273
54.1539
1.82848
54.1545
1.81367
54.155
1.79831
54.1556
1.78239
54.1561
1.76593
54.1567
1.74893
54.1572
1.7314
54.1578
1.71334
54.1583
1.69476
54.1588
1.67567
54.1593
1.65606
54.1598
1.63595
54.1603
1.61534
54.1608
1.59424
54.1613
1.57264
54.1618
1.55057
54.1623
1.52802
54.1628
1.50501
54.1632
1.48154
54.1637
1.45761
54.1642
1.43323
54.1646
1.40841
54.1651
1.38314
54.1655
1.35743
54.1659
1.3313
54.1664
1.30476
54.1668
1.27781
54.1672
1.25046
54.1676
1.22271
54.168
1.19459
54.1684
1.1661
54.1687
1.13724
54.1691
1.10804
54.1694
1.0785
54.1698
1.04864
54.1701
1.01847
54.1704
0.987995
54.1707
0.957233
54.171
0.926223
54.1712
0.89498
54.1715
0.863534
54.1717
0.831917
54.1719
0.800172
54.172
0.768339
54.1721
0.73648
54.1721
0.70466
54.1721
0.67297
54.1719
0.64151
54.1717
0.610374
54.1714
0.579339
54.1713
0.548063
54.1715
0.516029
54.1723
0.483112
54.1732
0.449448
54.1739
0.41517
54.1745
0.380378
54.175
0.345171
54.1754
0.309618
54.1758
0.273787
54.1761
0.237724
54.1763