/*--------------------------------*- C++ -*----------------------------------*\
| =========                 |                                                 |
| \\      /  F ield         | OpenFOAM: The Open Source CFD Toolbox           |
|  \\    /   O peration     | Version:  5.x                                   |
|   \\  /    A nd           | Web:      www.OpenFOAM.org                      |
|    \\/     M anipulation  |                                                 |
\*---------------------------------------------------------------------------*/
/*   Windows 32 and 64 bit porting by blueCAPE: http://www.bluecape.com.pt   *\
|  Based on Windows porting (2.0.x v4) by Symscape: http://www.symscape.com   |
\*---------------------------------------------------------------------------*/
FoamFile
{
    version     2.0;
    format      ascii;
    class       volVectorField;
    location    "50";
    object      U;
}
// * * * * * * * * * * * * * * * * * * * * * * * * * * * * * * * * * * * * * //

dimensions      [0 1 -1 0 0 0 0];

internalField   nonuniform List<vector> 
43900
(
(1.15922 -0.000106642 -2.32569e-027)
(1.16676 0.00160355 -6.24334e-027)
(1.16712 0.000590664 1.78442e-030)
(1.16707 0.00138818 2.91413e-030)
(1.16707 0.001175 2.20793e-030)
(1.16711 0.00136224 3.05358e-030)
(1.1671 0.00148082 8.31516e-027)
(1.16711 0.00155969 -1.66178e-026)
(1.16712 0.00166199 6.88389e-030)
(1.16713 0.00175353 -1.65964e-026)
(1.16713 0.00184323 1.66112e-026)
(1.16714 0.00193044 7.91326e-030)
(1.16715 0.00201498 -1.65717e-026)
(1.16716 0.00209701 1.70697e-029)
(1.16717 0.00217653 1.76539e-029)
(1.16717 0.00225381 1.82152e-029)
(1.16718 0.0023287 -3.30694e-026)
(1.16719 0.00240158 3.85472e-029)
(1.16719 0.00247216 3.30887e-026)
(1.1672 0.00254091 2.02552e-029)
(1.1672 0.00260747 2.07198e-029)
(1.16721 0.00267251 2.11685e-029)
(1.16722 0.00273537 2.16016e-029)
(1.16722 0.00279686 2.20206e-029)
(1.16723 0.00285623 2.24274e-029)
(1.16723 0.00291424 -3.28753e-026)
(1.16723 0.00297071 4.64092e-029)
(1.16724 0.00302544 4.71508e-029)
(1.16724 0.00307936 1.31355e-025)
(1.15422 0.004241 0)
(1.16493 -5.87234e-005 0)
(1.16633 0.00348013 0)
(1.16533 0.00175033 0)
(1.16602 0.00279407 0)
(1.16577 0.00283765 0)
(1.16596 0.00284733 0)
(1.16598 0.00312275 0)
(1.16605 0.00325722 0)
(1.16611 0.00340697 0)
(1.16617 0.00355094 0)
(1.16623 0.00368868 0)
(1.16627 0.00382145 0)
(1.16632 0.00394944 0)
(1.16636 0.00407387 0)
(1.1664 0.00419458 0)
(1.16644 0.00431209 0)
(1.16647 0.00442656 0)
(1.1665 0.00453838 0)
(1.16653 0.00464789 0)
(1.16656 0.00475495 0)
(1.16658 0.00486004 0)
(1.16661 0.00496279 0)
(1.16663 0.00506337 0)
(1.16665 0.00516329 0)
(1.16667 0.00526119 0)
(1.16669 0.00535762 0)
(1.1667 0.00545277 0)
(1.16672 0.0055451 0)
(1.12237 0.0186638 0)
(1.16113 -0.00752603 0)
(1.16892 0.0150161 0)
(1.16658 -0.000171891 0)
(1.16805 0.00977672 0)
(1.16728 0.00416427 0)
(1.16785 0.0071012 0)
(1.16777 0.00620537 0)
(1.16792 0.0065035 0)
(1.168 0.00666785 0)
(1.16808 0.00680785 0)
(1.16816 0.00695609 0)
(1.16823 0.0071081 0)
(1.16829 0.00726254 0)
(1.16836 0.00741954 0)
(1.16842 0.00757837 0)
(1.16848 0.00773903 0)
(1.16854 0.007901 0)
(1.1686 0.00806444 0)
(1.16866 0.0082287 0)
(1.16871 0.00839447 0)
(1.16877 0.0085595 0)
(1.16883 0.00872585 0)
(1.16889 0.00889173 0)
(1.16894 0.00905826 0)
(1.169 0.00922446 0)
(1.16905 0.00939042 0)
(1.16911 0.00955674 0)
(1.16916 0.00972208 2.28481e-027)
(1.06186 0.0204864 0)
(1.12959 -0.009065 0)
(1.16224 0.0193426 0)
(1.16649 0.000296309 0)
(1.16601 0.0135768 0)
(1.16666 0.0049439 0)
(1.16645 0.0100749 0)
(1.16663 0.00765387 0)
(1.16663 0.00858106 0)
(1.16667 0.00853639 0)
(1.16671 0.00863613 0)
(1.16674 0.00875317 0)
(1.16678 0.0088815 0)
(1.16681 0.00902224 0)
(1.16684 0.00917272 0)
(1.16688 0.00933307 0)
(1.16691 0.00950137 0)
(1.16694 0.00967811 0)
(1.16698 0.00986128 0)
(1.16701 0.0100501 0)
(1.16704 0.0102452 0)
(1.16709 0.0104443 0)
(1.16713 0.0106484 0)
(1.16716 0.0108559 0)
(1.1672 0.0110652 0)
(1.16724 0.0112762 0)
(1.16728 0.0114876 0)
(1.16733 0.0116998 0)
(1.16738 0.0119103 2.44175e-027)
(1.03101 0.0092654 5.09821e-027)
(1.08584 -0.0038098 0)
(1.14262 0.0111638 0)
(1.16216 0.00222685 0)
(1.16198 0.0101756 0)
(1.16193 0.00461522 0)
(1.1616 0.00863317 0)
(1.16142 0.006911 0)
(1.16123 0.00790156 0)
(1.16106 0.00803012 0)
(1.16091 0.00829591 0)
(1.16079 0.00856322 0)
(1.16067 0.00883195 0)
(1.16057 0.00910314 0)
(1.16048 0.00937572 0)
(1.16041 0.00965038 0)
(1.16034 0.00992595 0)
(1.16029 0.0102028 0)
(1.16024 0.0104807 0)
(1.1602 0.0107589 0)
(1.16017 0.0110385 0)
(1.16015 0.0113163 0)
(1.16013 0.0115981 0)
(1.16012 0.0118794 0)
(1.16012 0.0121608 0)
(1.16013 0.0124416 0)
(1.16014 0.0127182 0)
(1.16016 0.0129939 0)
(1.16019 0.0132782 -1.02757e-026)
(1.02007 0.0031905 -5.3641e-027)
(1.07014 -0.0010501 0)
(1.1268 0.00411671 0)
(1.15645 0.00210892 0)
(1.15792 0.00537618 0)
(1.15808 0.00369748 0)
(1.15777 0.00568062 0)
(1.15769 0.00549823 0)
(1.15755 0.00624751 0)
(1.15744 0.00672548 0)
(1.15734 0.00723381 0)
(1.15725 0.00773288 0)
(1.15717 0.00822384 0)
(1.15711 0.00870732 0)
(1.15705 0.0091836 0)
(1.15701 0.00965307 0)
(1.15698 0.010116 0)
(1.15695 0.0105723 0)
(1.15694 0.0110226 0)
(1.15694 0.0114665 0)
(1.15695 0.0119054 0)
(1.15694 0.012337 0)
(1.15696 0.012766 0)
(1.15699 0.013188 0)
(1.15703 0.0136055 0)
(1.15707 0.0140201 0)
(1.15713 0.0144328 0)
(1.15718 0.0148377 0)
(1.15725 0.0152394 5.45315e-027)
(1.01545 0.00124952 0)
(1.06368 0.00037008 0)
(1.11948 0.00223026 0)
(1.15215 0.00229466 0)
(1.15469 0.00375628 0)
(1.15481 0.00369368 0)
(1.15464 0.00472265 0)
(1.1546 0.00517451 0)
(1.15454 0.00584001 0)
(1.15449 0.00644016 0)
(1.15445 0.00704402 0)
(1.15442 0.0076407 0)
(1.15441 0.00823095 0)
(1.1544 0.00881472 0)
(1.1544 0.00939222 0)
(1.15442 0.00996319 0)
(1.15444 0.010528 0)
(1.15447 0.0110862 0)
(1.15451 0.0116382 0)
(1.15457 0.0121837 0)
(1.15463 0.0127228 0)
(1.15468 0.0132553 0)
(1.15475 0.0137822 0)
(1.15484 0.0143016 0)
(1.15494 0.0148136 0)
(1.15504 0.0153181 0)
(1.15515 0.0158173 0)
(1.15526 0.0163088 0)
(1.15539 0.0167917 0)
(1.00835 0.000518449 0)
(1.056 0.00100294 0)
(1.11175 0.00206072 0)
(1.14535 0.00267282 0)
(1.14857 0.0035406 0)
(1.14866 0.00397948 0)
(1.14868 0.00472667 0)
(1.14872 0.00533525 0)
(1.14877 0.0059884 0)
(1.14882 0.00662484 0)
(1.14888 0.00725945 0)
(1.14895 0.0078895 0)
(1.14902 0.00851498 0)
(1.14911 0.00913564 0)
(1.1492 0.00975149 0)
(1.14929 0.0103621 0)
(1.1494 0.0109675 0)
(1.14951 0.0115674 0)
(1.14963 0.0121617 0)
(1.14976 0.0127504 0)
(1.14991 0.0133328 0)
(1.15002 0.0139095 0)
(1.15017 0.014479 0)
(1.15033 0.0150424 0)
(1.1505 0.015599 0)
(1.15068 0.0161483 0)
(1.15086 0.0166906 0)
(1.15105 0.017227 0)
(1.15124 0.0177547 0)
(1.00151 0.000175157 0)
(1.04877 0.00111264 0)
(1.10416 0.00183549 0)
(1.1375 0.00259056 0)
(1.14074 0.00338609 0)
(1.1408 0.00406006 0)
(1.14084 0.00482857 0)
(1.1409 0.00556363 0)
(1.14096 0.00630405 0)
(1.14104 0.00703693 0)
(1.14112 0.00776519 0)
(1.14122 0.00848822 0)
(1.14133 0.00920576 0)
(1.14145 0.00991768 0)
(1.14158 0.0106238 0)
(1.14172 0.0113239 0)
(1.14187 0.0120178 0)
(1.14203 0.0127053 0)
(1.14221 0.0133862 0)
(1.14239 0.0140603 0)
(1.14259 0.0147278 0)
(1.14277 0.0153874 0)
(1.14298 0.0160385 0)
(1.14321 0.0166825 0)
(1.14344 0.0173187 0)
(1.14369 0.0179473 0)
(1.14395 0.0185673 0)
(1.14421 0.01918 0)
(1.14449 0.0197827 0)
(0.995822 2.88503e-005 0)
(1.043 0.00124486 0)
(1.0983 0.00181377 0)
(1.13098 0.00269046 0)
(1.1341 0.00354446 0)
(1.13418 0.00437095 0)
(1.13426 0.00523764 0)
(1.13434 0.00609475 0)
(1.13444 0.00694916 0)
(1.13455 0.00779791 0)
(1.13468 0.00864128 0)
(1.13482 0.0094789 0)
(1.13497 0.0103104 0)
(1.13513 0.0111355 0)
(1.13531 0.0119538 0)
(1.1355 0.0127651 0)
(1.13571 0.0135691 0)
(1.13593 0.0143654 0)
(1.13616 0.0151538 0)
(1.1364 0.0159338 0)
(1.13665 0.0167059 0)
(1.13691 0.0174684 0)
(1.13719 0.0182212 0)
(1.13748 0.0189648 0)
(1.13779 0.0196988 0)
(1.1381 0.0204232 0)
(1.13843 0.0211373 0)
(1.13877 0.0218419 0)
(1.13913 0.0225347 -1.42086e-026)
(0.989763 4.34791e-005 0)
(1.0369 0.00147019 0)
(1.09223 0.00212866 0)
(1.12427 0.00314945 0)
(1.12725 0.00409671 0)
(1.12737 0.00504828 0)
(1.12748 0.00602976 0)
(1.1276 0.00700844 0)
(1.12774 0.00798366 0)
(1.1279 0.00895412 0)
(1.12807 0.0099195 0)
(1.12826 0.0108791 0)
(1.12846 0.0118325 0)
(1.12869 0.012779 0)
(1.12892 0.0137183 0)
(1.12918 0.0146497 0)
(1.12945 0.0155729 0)
(1.12974 0.0164873 0)
(1.13004 0.0173925 0)
(1.13035 0.0182879 0)
(1.13069 0.0191736 0)
(1.13103 0.0200484 0)
(1.13139 0.020912 0)
(1.13177 0.0217645 0)
(1.13216 0.0226052 0)
(1.13256 0.023434 0)
(1.13298 0.0242504 0)
(1.13341 0.0250548 0)
(1.13386 0.0258458 1.5008e-026)
(0.982734 5.85325e-005 0)
(1.02984 0.00173181 0)
(1.08518 0.00251837 0)
(1.11653 0.00370575 0)
(1.11938 0.00478883 0)
(1.11951 0.0058849 0)
(1.11964 0.00701123 0)
(1.1198 0.00813583 0)
(1.11997 0.00925601 0)
(1.12017 0.0103707 0)
(1.12039 0.0114796 0)
(1.12063 0.0125817 0)
(1.12089 0.0136764 0)
(1.12117 0.0147631 0)
(1.12147 0.0158412 0)
(1.1218 0.0169099 0)
(1.12214 0.0179687 0)
(1.1225 0.019017 0)
(1.12288 0.0200543 0)
(1.12328 0.0210799 0)
(1.1237 0.0220933 0)
(1.12414 0.0230939 0)
(1.12459 0.0240812 0)
(1.12506 0.0250548 0)
(1.12555 0.0260142 0)
(1.12606 0.026959 0)
(1.12659 0.0278886 0)
(1.12713 0.0288031 0)
(1.12768 0.029702 1.634e-026)
(0.974954 7.10058e-005 0)
(1.02202 0.00200716 0)
(1.07736 0.00292027 0)
(1.10797 0.00429906 0)
(1.11068 0.00555111 0)
(1.11083 0.00682042 0)
(1.11099 0.00812266 0)
(1.11118 0.00942231 0)
(1.11139 0.010716 0)
(1.11164 0.0120026 0)
(1.1119 0.0132816 0)
(1.1122 0.0145521 0)
(1.11252 0.0158133 0)
(1.11287 0.0170643 0)
(1.11324 0.0183045 0)
(1.11364 0.019533 0)
(1.11407 0.0207493 0)
(1.11451 0.0219524 0)
(1.11499 0.0231418 0)
(1.11548 0.0243167 0)
(1.116 0.0254765 0)
(1.11654 0.0266205 0)
(1.1171 0.0277482 0)
(1.11769 0.0288589 0)
(1.11829 0.0299521 0)
(1.11891 0.0310272 0)
(1.11956 0.0320837 0)
(1.12022 0.0331213 0)
(1.12091 0.0341397 -1.72659e-026)
(0.966465 8.65302e-005 0)
(1.01351 0.00232295 0)
(1.06883 0.0033801 0)
(1.09865 0.00498092 0)
(1.10122 0.00642879 0)
(1.10141 0.00789901 0)
(1.1016 0.00940569 0)
(1.10184 0.0109086 0)
(1.1021 0.0124037 0)
(1.1024 0.0138899 0)
(1.10273 0.0153664 0)
(1.10309 0.0168321 0)
(1.10349 0.0182861 0)
(1.10392 0.0197272 0)
(1.10437 0.0211547 0)
(1.10486 0.0225676 0)
(1.10538 0.023965 0)
(1.10593 0.025346 0)
(1.10651 0.0267098 0)
(1.10712 0.0280555 0)
(1.10775 0.0293824 0)
(1.10841 0.0306896 0)
(1.1091 0.0319764 0)
(1.10982 0.0332421 0)
(1.11055 0.0344861 0)
(1.11132 0.0357076 0)
(1.1121 0.036906 0)
(1.11291 0.0380808 0)
(1.11374 0.0392321 -1.89102e-026)
(0.957158 0.000104597 0)
(1.00417 0.00269399 0)
(1.05948 0.00391993 0)
(1.08846 0.00577916 0)
(1.0909 0.00745228 0)
(1.09112 0.00915443 0)
(1.09137 0.010897 0)
(1.09165 0.0126342 0)
(1.09197 0.0143616 0)
(1.09234 0.0160779 0)
(1.09274 0.0177819 0)
(1.09319 0.0194723 0)
(1.09367 0.021148 0)
(1.09419 0.0228076 0)
(1.09475 0.0244501 0)
(1.09535 0.0260742 0)
(1.09599 0.027679 0)
(1.09665 0.0292631 0)
(1.09736 0.0308257 0)
(1.0981 0.0323658 0)
(1.09887 0.0338822 0)
(1.09968 0.0353742 0)
(1.10051 0.0368407 0)
(1.10138 0.038281 0)
(1.10228 0.0396942 0)
(1.1032 0.0410795 0)
(1.10416 0.0424362 0)
(1.10514 0.0437633 0)
(1.10614 0.0450618 1.99896e-026)
(0.946939 0.00012476 0)
(0.993927 0.00312457 0)
(1.04921 0.00454437 0)
(1.07728 0.0067033 0)
(1.0796 0.00863598 0)
(1.07987 0.010606 0)
(1.08017 0.0126205 0)
(1.08051 0.0146277 0)
(1.08091 0.0166224 0)
(1.08135 0.0186033 0)
(1.08184 0.0205687 0)
(1.08238 0.022517 0)
(1.08297 0.0244468 0)
(1.08361 0.0263565 0)
(1.08429 0.0282447 0)
(1.08501 0.0301099 0)
(1.08578 0.0319508 0)
(1.0866 0.033766 0)
(1.08745 0.0355543 0)
(1.08835 0.0373144 0)
(1.08928 0.0390451 0)
(1.09026 0.0407452 0)
(1.09127 0.0424137 0)
(1.09232 0.0440495 0)
(1.0934 0.0456517 0)
(1.09452 0.0472193 0)
(1.09566 0.0487514 0)
(1.09685 0.0502467 0)
(1.09806 0.0517069 0)
(0.935734 0.000147398 0)
(0.982703 0.0036203 0)
(1.03793 0.0052607 0)
(1.06504 0.0077655 0)
(1.06726 0.00999623 0)
(1.06757 0.0122745 0)
(1.06793 0.0146012 0)
(1.06835 0.0169181 0)
(1.06883 0.0192193 0)
(1.06937 0.0215031 0)
(1.06996 0.0237675 0)
(1.07062 0.0260106 0)
(1.07133 0.0282304 0)
(1.0721 0.0304251 0)
(1.07292 0.0325929 0)
(1.0738 0.034732 0)
(1.07473 0.0368407 0)
(1.07571 0.0389174 0)
(1.07674 0.0409605 0)
(1.07782 0.0429684 0)
(1.07895 0.0449398 0)
(1.08012 0.0468732 0)
(1.08134 0.0487674 0)
(1.0826 0.050621 0)
(1.0839 0.0524329 0)
(1.08524 0.054202 0)
(1.08662 0.0559273 0)
(1.08803 0.0576071 0)
(1.08948 0.059244 0)
(0.923472 0.000172656 0)
(0.97043 0.00418887 0)
(1.02557 0.00607904 0)
(1.05166 0.00898116 0)
(1.05378 0.0115526 0)
(1.05416 0.0141837 0)
(1.05459 0.0168673 0)
(1.0551 0.0195377 0)
(1.05567 0.0221885 0)
(1.05632 0.0248176 0)
(1.05704 0.0274225 0)
(1.05783 0.0300007 0)
(1.05869 0.0325499 0)
(1.05962 0.0350678 0)
(1.06061 0.0375522 0)
(1.06166 0.0400009 0)
(1.06278 0.0424118 0)
(1.06396 0.0447829 0)
(1.0652 0.0471123 0)
(1.06649 0.049398 0)
(1.06785 0.0516384 0)
(1.06925 0.0538318 0)
(1.07071 0.0559766 0)
(1.07222 0.0580714 0)
(1.07377 0.0601146 0)
(1.07538 0.0621051 0)
(1.07702 0.0640416 0)
(1.07871 0.065922 0)
(1.08043 0.0677502 0)
(0.910078 0.000200468 5.88552e-026)
(0.957039 0.00483856 0)
(1.01205 0.00700987 0)
(1.03707 0.0103665 0)
(1.0391 0.0133258 0)
(1.03955 0.0163591 0)
(1.04007 0.0194485 0)
(1.04068 0.0225207 0)
(1.04137 0.0255686 0)
(1.04215 0.0285893 0)
(1.04302 0.03158 0)
(1.04397 0.0345377 0)
(1.045 0.0374593 0)
(1.04611 0.0403421 0)
(1.04729 0.0431833 0)
(1.04856 0.0459803 0)
(1.0499 0.0487305 0)
(1.05131 0.0514315 0)
(1.05279 0.0540809 0)
(1.05434 0.0566764 0)
(1.05595 0.059216 0)
(1.05763 0.0616976 0)
(1.05937 0.0641194 0)
(1.06117 0.0664796 0)
(1.06302 0.0687766 0)
(1.06492 0.0710088 0)
(1.06688 0.073175 0)
(1.06888 0.075272 0)
(1.07093 0.0773061 0)
(0.895484 0.000230301 2.00989e-027)
(0.942464 0.00557785 0)
(0.997301 0.00806313 0)
(1.02119 0.0119372 0)
(1.02315 0.0153364 0)
(1.02369 0.0188262 0)
(1.02431 0.022375 0)
(1.02504 0.0259018 0)
(1.02587 0.0293983 0)
(1.0268 0.0328615 0)
(1.02783 0.0362874 0)
(1.02897 0.0396726 0)
(1.0302 0.0430133 0)
(1.03152 0.0463062 0)
(1.03294 0.0495478 0)
(1.03445 0.0527349 0)
(1.03604 0.0558644 0)
(1.03772 0.0589332 0)
(1.03949 0.0619386 0)
(1.04133 0.0648779 0)
(1.04325 0.0677484 0)
(1.04524 0.0705479 0)
(1.04731 0.0732738 0)
(1.04944 0.0759245 0)
(1.05164 0.0784979 0)
(1.05389 0.0809916 0)
(1.05621 0.0834057 0)
(1.05857 0.0857344 0)
(1.06099 0.087987 0)
(0.879626 0.000261341 -6.81227e-026)
(0.926648 0.00641527 0)
(0.981243 0.0092481 0)
(1.00395 0.0137085 0)
(1.00587 0.0176048 0)
(1.0065 0.0216098 0)
(1.00724 0.0256764 0)
(1.00811 0.0297149 0)
(1.0091 0.0337162 0)
(1.01021 0.0376766 0)
(1.01144 0.0415914 0)
(1.01278 0.0454562 0)
(1.01424 0.0492665 0)
(1.01582 0.0530181 0)
(1.0175 0.0567068 0)
(1.01929 0.0603289 0)
(1.02118 0.0638803 0)
(1.02318 0.0673578 0)
(1.02527 0.0707575 0)
(1.02745 0.0740764 0)
(1.02973 0.0773119 0)
(1.03208 0.0804597 0)
(1.03452 0.0835192 0)
(1.03704 0.0864865 0)
(1.03963 0.0893588 0)
(1.04229 0.0921373 0)
(1.04502 0.0948161 0)
(1.0478 0.0973925 0)
(1.05064 0.09988 0)
(0.862448 0.000292509 0)
(0.909541 0.00735927 0)
(0.96381 0.0105733 0)
(0.985289 0.0156948 0)
(0.987183 0.0201504 0)
(0.987935 0.0247342 0)
(0.988812 0.0293813 0)
(0.989836 0.033993 0)
(0.991006 0.0385594 0)
(0.99232 0.0430761 0)
(0.993775 0.0475372 0)
(0.995368 0.0519374 0)
(0.997097 0.0562712 0)
(0.998958 0.0605337 0)
(1.00095 0.0647198 0)
(1.00306 0.0688244 0)
(1.0053 0.0728439 0)
(1.00765 0.0767724 0)
(1.01012 0.0806074 0)
(1.01269 0.0843444 0)
(1.01537 0.0879776 0)
(1.01815 0.0915096 0)
(1.02102 0.0949292 0)
(1.02398 0.0982383 0)
(1.02702 0.101439 0)
(1.03014 0.104513 0)
(1.03335 0.107479 0)
(1.0366 0.110318 0)
(1.03993 0.113039 0)
(0.843902 0.000322099 -8.44522e-026)
(0.891104 0.00841791 0)
(0.944942 0.0120456 0)
(0.965164 0.0179085 0)
(0.967056 0.0229909 0)
(0.967939 0.0282214 0)
(0.968971 0.0335158 0)
(0.970178 0.0387662 0)
(0.971556 0.0439621 0)
(0.973103 0.0490977 0)
(0.974816 0.0541664 0)
(0.976691 0.0591614 0)
(0.978726 0.0640765 0)
(0.980915 0.0689054 0)
(0.983255 0.0736415 0)
(0.985742 0.078281 0)
(0.988368 0.0828143 0)
(0.991136 0.0872424 0)
(0.994024 0.0915543 0)
(0.997054 0.095746 0)
(1.00019 0.0998237 0)
(1.00344 0.103761 0)
(1.00682 0.107579 0)
(1.01026 0.111266 0)
(1.01384 0.114793 0)
(1.0175 0.118215 0)
(1.02119 0.121474 0)
(1.02504 0.124573 0)
(1.0289 0.127584 7.57738e-026)
(0.823957 0.000348191 -3.07042e-027)
(0.871313 0.00959828 0)
(0.924588 0.0136703 0)
(0.943532 0.0203598 0)
(0.945446 0.0261409 0)
(0.946478 0.0320898 0)
(0.947687 0.0381017 0)
(0.9491 0.04406 0)
(0.950713 0.0499529 0)
(0.952524 0.0557741 0)
(0.954529 0.0615147 0)
(0.956724 0.0671679 0)
(0.959104 0.0727246 0)
(0.961666 0.0781782 0)
(0.964402 0.083523 0)
(0.967309 0.0887453 0)
(0.970387 0.0938531 0)
(0.9736 0.098819 0)
(0.977011 0.103655 0)
(0.980505 0.108359 0)
(0.984186 0.112885 0)
(0.98801 0.117301 0)
(0.99185 0.121538 0)
(0.995986 0.125586 0)
(1.00008 0.129559 0)
(1.00427 0.13326 0)
(1.00876 0.136842 0)
(1.01303 0.1403 0)
(1.01756 0.143463 1.61191e-027)
(0.802593 0.000368536 9.81775e-026)
(0.850158 0.010906 0)
(0.902711 0.0154502 0)
(0.920371 0.0230554 0)
(0.922333 0.0296114 0)
(0.92353 0.036353 0)
(0.924938 0.0431556 0)
(0.926581 0.0498933 0)
(0.928459 0.0565543 0)
(0.930565 0.0631292 0)
(0.932898 0.0696109 0)
(0.935449 0.0759858 0)
(0.938222 0.0822499 0)
(0.941195 0.0883906 0)
(0.944382 0.0943953 0)
(0.947766 0.100277 0)
(0.951312 0.105982 0)
(0.955127 0.111564 0)
(0.958958 0.116974 0)
(0.963156 0.122177 0)
(0.967385 0.127297 0)
(0.971669 0.132138 0)
(0.976485 0.136809 0)
(0.980889 0.141428 0)
(0.98576 0.145592 0)
(0.990939 0.149786 0)
(0.995489 0.153767 0)
(1.00096 0.157273 0)
(1.00617 0.160984 -8.67598e-026)
(0.779811 0.000380544 0)
(0.827647 0.0123443 0)
(0.879289 0.0173858 0)
(0.895675 0.0259979 0)
(0.89771 0.0334078 0)
(0.899091 0.0410184 0)
(0.900717 0.0486859 0)
(0.902616 0.0562775 0)
(0.904784 0.0637774 0)
(0.90722 0.0711806 0)
(0.909912 0.0784673 0)
(0.91287 0.0856405 0)
(0.916057 0.0926704 0)
(0.919518 0.0995617 0)
(0.923182 0.106312 0)
(0.927074 0.112854 0)
(0.931291 0.119297 0)
(0.935426 0.125487 0)
(0.940265 0.131488 0)
(0.944741 0.137412 0)
(0.949646 0.142915 0)
(0.955177 0.148356 0)
(0.959673 0.153698 0)
(0.965687 0.158356 0)
(0.971281 0.163381 0)
(0.97609 0.167843 0)
(0.983025 0.171822 0)
(0.988269 0.176302 0)
(0.993909 0.179727 0)
(0.755631 0.000381993 0)
(0.803806 0.0139131 0)
(0.854317 0.0194746 0)
(0.869458 0.0291853 0)
(0.87159 0.0375291 0)
(0.873171 0.046085 0)
(0.875036 0.0546933 0)
(0.877214 0.0632106 0)
(0.879703 0.0716281 0)
(0.882491 0.0799211 0)
(0.885595 0.0881039 0)
(0.888958 0.0961166 0)
(0.892674 0.10401 0)
(0.896568 0.111714 0)
(0.900836 0.119216 0)
(0.905384 0.126623 0)
(0.909835 0.133678 0)
(0.915417 0.14063 0)
(0.919858 0.147425 0)
(0.92583 0.153696 0)
(0.931748 0.16006 0)
(0.936318 0.16619 0)
(0.944072 0.1714 0)
(0.949267 0.177492 0)
(0.954964 0.182355 0)
(0.963604 0.186947 0)
(0.968037 0.192418 0)
(0.975493 0.195834 0)
(0.983569 0.200371 1.02857e-025)
(0.730102 0.000371687 0)
(0.77868 0.0156076 0)
(0.827814 0.0217121 0)
(0.841757 0.0326101 0)
(0.844008 0.0419664 0)
(0.845806 0.0515434 0)
(0.847927 0.0611637 0)
(0.850406 0.0706869 0)
(0.853232 0.0800789 0)
(0.856425 0.089368 0)
(0.859914 0.0984578 0)
(0.863844 0.107471 0)
(0.867904 0.116202 0)
(0.872579 0.124824 0)
(0.877298 0.133251 0)
(0.882208 0.141316 0)
(0.888442 0.149348 0)
(0.892633 0.157083 0)
(0.900288 0.164284 0)
(0.905704 0.171686 0)
(0.911032 0.178715 0)
(0.920629 0.184494 0)
(0.924491 0.192005 0)
(0.932517 0.197106 0)
(0.941968 0.202605 0)
(0.945451 0.20925 0)
(0.95594 0.21253 0)
(0.9637 0.218469 0)
(0.968622 0.222542 1.67185e-027)
(0.703295 0.000350225 0)
(0.752334 0.0174177 0)
(0.799821 0.0240912 0)
(0.812633 0.0362577 0)
(0.815024 0.0467031 0)
(0.817049 0.0573708 0)
(0.819443 0.0680804 0)
(0.822235 0.0786618 0)
(0.825442 0.0891441 0)
(0.828997 0.0994063 0)
(0.833067 0.109645 0)
(0.837233 0.119477 0)
(0.84231 0.129397 0)
(0.846991 0.138836 0)
(0.852641 0.148168 0)
(0.85908 0.157284 0)
(0.863212 0.166152 0)
(0.872852 0.174364 0)
(0.876653 0.182971 0)
(0.884309 0.191008 0)
(0.894618 0.197331 0)
(0.89721 0.206865 0)
(0.908645 0.211672 0)
(0.917211 0.218739 0)
(0.921214 0.226589 0)
(0.934365 0.22931 0)
(0.941136 0.237528 0)
(0.94781 0.241211 0)
(0.961274 0.245464 -2.366e-025)
(0.675313 0.000321224 0)
(0.724846 0.0193262 0)
(0.770409 0.0266023 0)
(0.782173 0.0401067 0)
(0.784719 0.0517111 0)
(0.786983 0.0635407 0)
(0.789655 0.0753885 0)
(0.792789 0.0871405 0)
(0.796334 0.098669 0)
(0.800442 0.11021 0)
(0.804671 0.121238 0)
(0.81005 0.1326 0)
(0.814549 0.143036 0)
(0.821207 0.153968 0)
(0.827082 0.164005 0)
(0.832002 0.174401 0)
(0.843016 0.183434 0)
(0.844856 0.193776 0)
(0.856336 0.202562 0)
(0.865138 0.209852 0)
(0.868143 0.221785 0)
(0.882264 0.225401 0)
(0.889577 0.235591 0)
(0.895274 0.243625 0)
(0.910369 0.246403 0)
(0.916457 0.257502 0)
(0.925126 0.259961 0)
(0.939455 0.266012 0)
(0.944598 0.272451 -1.52112e-027)
(0.646285 0.000292806 0)
(0.696311 0.0213082 0)
(0.739678 0.0292343 0)
(0.75049 0.044127 0)
(0.753204 0.0569574 0)
(0.755709 0.069996 0)
(0.758674 0.0830762 0)
(0.762116 0.0959568 0)
(0.766143 0.108845 0)
(0.770395 0.121195 0)
(0.775872 0.134046 0)
(0.780214 0.145556 0)
(0.787862 0.158341 0)
(0.79248 0.1691 0)
(0.799488 0.181527 0)
(0.81016 0.191113 0)
(0.811203 0.204018 0)
(0.826131 0.212488 0)
(0.832057 0.222298 0)
(0.837264 0.235614 0)
(0.853604 0.238603 0)
(0.859591 0.252972 0)
(0.866912 0.259366 0)
(0.883237 0.264176 0)
(0.889419 0.277727 0)
(0.90065 0.278529 0)
(0.914573 0.287639 0)
(0.92074 0.294462 0)
(0.936813 0.296618 1.35594e-025)
(0.616371 0.000278657 0)
(0.666833 0.0233302 0)
(0.707757 0.0319749 0)
(0.717724 0.048284 0)
(0.720611 0.0623896 0)
(0.72336 0.0767061 0)
(0.726596 0.0909968 0)
(0.730425 0.105261 0)
(0.734633 0.11906 0)
(0.739962 0.133349 0)
(0.744304 0.146162 0)
(0.752492 0.160779 0)
(0.755778 0.17233 0)
(0.765747 0.187107 0)
(0.773639 0.197145 0)
(0.775975 0.212728 0)
(0.793592 0.220838 0)
(0.796233 0.234576 0)
(0.804952 0.247069 0)
(0.821668 0.251857 0)
(0.826484 0.269287 0)
(0.836735 0.273909 0)
(0.853375 0.283084 0)
(0.859403 0.29676 0)
(0.873388 0.29691 0)
(0.886866 0.310272 0)
(0.895056 0.316346 0)
(0.913118 0.318294 0)
(0.922056 0.328695 1.46765e-025)
(0.585753 0.000298817 0)
(0.636523 0.0253517 0)
(0.674807 0.0348111 0)
(0.684038 0.0525328 0)
(0.6871 0.0679637 0)
(0.69008 0.083559 0)
(0.693607 0.0992178 0)
(0.697657 0.114552 0)
(0.702639 0.130195 0)
(0.70712 0.1446 0)
(0.715139 0.160755 0)
(0.717734 0.173589 0)
(0.730145 0.190432 0)
(0.733787 0.201287 0)
(0.740903 0.219385 0)
(0.757574 0.227712 0)
(0.757905 0.244973 0)
(0.77138 0.256152 0)
(0.786691 0.26523 0)
(0.789907 0.283364 0)
(0.804699 0.288117 0)
(0.81983 0.30177 0)
(0.826257 0.313597 0)
(0.844499 0.316343 0)
(0.855851 0.333011 0)
(0.866731 0.336905 0)
(0.886188 0.341495 0)
(0.895557 0.354898 0)
(0.910251 0.355368 -1.55913e-025)
(0.55463 0.000379122 0)
(0.605499 0.0273271 0)
(0.641012 0.037727 0)
(0.649614 0.0568284 0)
(0.652849 0.0736013 0)
(0.656047 0.0905442 0)
(0.659801 0.107421 0)
(0.664323 0.124386 0)
(0.668911 0.14057 0)
(0.676154 0.157927 0)
(0.678948 0.172651 0)
(0.692207 0.190747 0)
(0.692555 0.203664 0)
(0.705571 0.22316 0)
(0.717074 0.232467 0)
(0.717846 0.252836 0)
(0.737029 0.264404 0)
(0.746194 0.277342 0)
(0.750929 0.294506 0)
(0.771764 0.301999 0)
(0.782038 0.318588 0)
(0.791436 0.328879 0)
(0.811681 0.336346 0)
(0.821468 0.353389 0)
(0.835757 0.35714 0)
(0.85677 0.365993 0)
(0.865348 0.379165 0)
(0.88331 0.37969 0)
(0.902687 0.388971 1.67146e-025)
(0.52321 0.000549034 0)
(0.573886 0.0292101 0)
(0.606575 0.0407037 0)
(0.614652 0.0611196 0)
(0.618043 0.0792488 0)
(0.621442 0.0974992 0)
(0.625456 0.115804 0)
(0.629948 0.133766 0)
(0.63615 0.152178 0)
(0.639709 0.16912 0)
(0.652115 0.188 0)
(0.651121 0.203819 0)
(0.66808 0.22331 0)
(0.672643 0.23558 0)
(0.679106 0.258793 0)
(0.698162 0.269141 0)
(0.701668 0.286575 0)
(0.715406 0.303373 0)
(0.734578 0.314505 0)
(0.739261 0.332136 0)
(0.754669 0.343151 0)
(0.776398 0.354835 0)
(0.784053 0.371593 0)
(0.801101 0.377729 0)
(0.82305 0.38938 0)
(0.831734 0.402485 0)
(0.855307 0.405226 0)
(0.871618 0.416456 0)
(0.884531 0.423353 -3.55507e-025)
(0.491699 0.00083681 0)
(0.541817 0.0309541 0)
(0.57171 0.043716 0)
(0.57935 0.0653512 0)
(0.582892 0.0848343 0)
(0.586446 0.104395 0)
(0.590598 0.12398 0)
(0.595802 0.143509 0)
(0.600113 0.162609 0)
(0.610405 0.182243 0)
(0.609691 0.200615 0)
(0.628524 0.220321 0)
(0.627827 0.236784 0)
(0.640618 0.259823 0)
(0.655377 0.270218 0)
(0.658113 0.294454 0)
(0.678158 0.308384 0)
(0.689363 0.325184 0)
(0.695666 0.342593 0)
(0.718465 0.356804 0)
(0.736784 0.369929 0)
(0.741576 0.388335 0)
(0.763998 0.396801 0)
(0.785637 0.411254 0)
(0.796119 0.424758 0)
(0.822602 0.429203 0)
(0.834173 0.444817 0)
(0.857636 0.450528 0)
(0.879661 0.455505 4.38124e-028)
(0.460301 0.00126375 0)
(0.509446 0.0325226 0)
(0.536645 0.0467231 0)
(0.54393 0.0694896 0)
(0.547579 0.0902514 0)
(0.551289 0.111179 0)
(0.555665 0.131952 0)
(0.56025 0.152907 0)
(0.56811 0.173398 0)
(0.569326 0.194172 0)
(0.586766 0.214371 0)
(0.583444 0.234304 0)
(0.601285 0.25675 0)
(0.608677 0.270255 0)
(0.615658 0.298707 0)
(0.635643 0.309353 0)
(0.641526 0.333587 0)
(0.654375 0.349241 0)
(0.679351 0.367645 0)
(0.689067 0.38199 0)
(0.69711 0.403571 0)
(0.727415 0.414268 0)
(0.74188 0.431292 0)
(0.758303 0.443377 0)
(0.781295 0.453607 0)
(0.796393 0.472835 0)
(0.828146 0.474298 0)
(0.840658 0.486447 0)
(0.865069 0.495999 1.08059e-027)
(0.429212 0.00184195 0)
(0.476946 0.0338879 0)
(0.501615 0.0496923 0)
(0.508594 0.0734454 0)
(0.512358 0.0955424 0)
(0.516132 0.117536 0)
(0.520456 0.139962 0)
(0.526365 0.161542 0)
(0.529604 0.184323 0)
(0.543294 0.20534 0)
(0.539848 0.227526 0)
(0.560384 0.25088 0)
(0.561551 0.26775 0)
(0.575264 0.29661 0)
(0.587868 0.308587 0)
(0.596155 0.337465 0)
(0.613121 0.351674 0)
(0.633178 0.374728 0)
(0.637022 0.392201 0)
(0.657453 0.414979 0)
(0.684113 0.426956 0)
(0.692837 0.447895 0)
(0.720103 0.459396 0)
(0.734211 0.479201 0)
(0.760263 0.494184 0)
(0.78643 0.497615 0)
(0.799913 0.517999 0)
(0.834041 0.524395 0)
(0.853555 0.531218 2.12566e-025)
(0.398612 0.00256579 0)
(0.444515 0.0350463 0)
(0.466848 0.0525541 0)
(0.473578 0.0772485 0)
(0.47738 0.100417 0)
(0.481225 0.123951 0)
(0.485849 0.146821 0)
(0.490074 0.17111 0)
(0.499564 0.19304 0)
(0.498792 0.217717 0)
(0.517704 0.24096 0)
(0.515814 0.261264 0)
(0.533471 0.289915 0)
(0.539392 0.305584 0)
(0.553608 0.335685 0)
(0.566865 0.350858 0)
(0.581434 0.378855 0)
(0.589068 0.397042 0)
(0.618188 0.420455 0)
(0.631095 0.436277 0)
(0.645447 0.461438 0)
(0.676491 0.473912 0)
(0.685831 0.499905 0)
(0.718816 0.509548 0)
(0.73725 0.524352 0)
(0.759807 0.54516 0)
(0.795117 0.550786 0)
(0.810379 0.564278 0)
(0.846005 0.57237 -2.21636e-025)
(0.368664 0.00341869 0)
(0.412361 0.0359987 0)
(0.432572 0.0552852 0)
(0.439062 0.0807349 0)
(0.442912 0.10521 0)
(0.446778 0.12935 0)
(0.450956 0.154601 0)
(0.45745 0.177746 0)
(0.459573 0.204344 0)
(0.474635 0.227188 0)
(0.47149 0.251205 0)
(0.491188 0.279907 0)
(0.492963 0.298327 0)
(0.509208 0.328839 0)
(0.518336 0.3474 0)
(0.532236 0.377513 0)
(0.545308 0.396335 0)
(0.570623 0.421255 0)
(0.574906 0.444269 0)
(0.602588 0.469031 0)
(0.620899 0.485519 0)
(0.637135 0.512619 0)
(0.672258 0.526873 0)
(0.68499 0.548128 0)
(0.718593 0.564418 0)
(0.745456 0.577285 0)
(0.766776 0.595391 0)
(0.807279 0.601426 0)
(0.827617 0.61582 2.36278e-025)
(0.339507 0.00436534 0)
(0.380695 0.0367742 0)
(0.398988 0.0577958 0)
(0.405258 0.0840427 0)
(0.4091 0.109312 0)
(0.412842 0.135213 0)
(0.417617 0.159869 0)
(0.421184 0.187351 0)
(0.431423 0.210545 0)
(0.430003 0.23852 0)
(0.448966 0.264989 0)
(0.447027 0.286528 0)
(0.464837 0.319266 0)
(0.47229 0.339732 0)
(0.484706 0.368999 0)
(0.499142 0.392834 0)
(0.517856 0.418357 0)
(0.522429 0.447169 0)
(0.555827 0.469703 0)
(0.562378 0.49307 0)
(0.593572 0.520337 0)
(0.614746 0.537695 0)
(0.631413 0.564691 0)
(0.673071 0.58068 0)
(0.689474 0.604814 0)
(0.722347 0.617313 0)
(0.756912 0.631186 0)
(0.782614 0.651098 0)
(0.824273 0.653961 0)
(0.311262 0.00536979 0)
(0.34972 0.0373926 0)
(0.366283 0.0600932 0)
(0.372328 0.0869314 0)
(0.376098 0.113429 0)
(0.379964 0.13948 0)
(0.383648 0.167133 0)
(0.390479 0.191859 0)
(0.391801 0.221487 0)
(0.40667 0.246498 0)
(0.403544 0.272474 0)
(0.422856 0.30522 0)
(0.425815 0.325951 0)
(0.438464 0.356999 0)
(0.453323 0.386934 0)
(0.464277 0.408398 0)
(0.475815 0.44422 0)
(0.503228 0.464494 0)
(0.508697 0.493834 0)
(0.543618 0.52295 0)
(0.554436 0.544631 0)
(0.581885 0.576498 0)
(0.615687 0.590576 0)
(0.63047 0.623486 0)
(0.674424 0.635789 0)
(0.699346 0.663527 0)
(0.734845 0.676061 0)
(0.773593 0.688268 0)
(0.803105 0.703968 2.52412e-025)
(0.284023 0.00638852 0)
(0.319617 0.0378968 0)
(0.334613 0.0620994 0)
(0.340403 0.0896229 0)
(0.344177 0.116716 0)
(0.347561 0.144475 0)
(0.35242 0.17105 0)
(0.355145 0.200499 0)
(0.36517 0.226269 0)
(0.364159 0.255191 0)
(0.381429 0.286441 0)
(0.38017 0.308402 0)
(0.396457 0.343542 0)
(0.406301 0.372544 0)
(0.413171 0.394958 0)
(0.434544 0.434823 0)
(0.446472 0.453646 0)
(0.458194 0.491096 0)
(0.489113 0.518825 0)
(0.496097 0.544849 0)
(0.529469 0.577506 0)
(0.552197 0.601558 0)
(0.576187 0.633817 0)
(0.615762 0.651253 0)
(0.635671 0.68356 0)
(0.684404 0.697235 0)
(0.71337 0.722499 0)
(0.75344 0.736405 0)
(0.800286 0.747275 -8.33289e-027)
(0.257869 0.00738931 0)
(0.290546 0.0383123 0)
(0.3041 0.0638492 0)
(0.309661 0.091896 0)
(0.313183 0.119963 0)
(0.316956 0.147901 0)
(0.319928 0.176814 0)
(0.326593 0.204541 0)
(0.328022 0.233815 0)
(0.340119 0.264751 0)
(0.339495 0.288563 0)
(0.356226 0.326567 0)
(0.358819 0.351063 0)
(0.369333 0.381377 0)
(0.390645 0.417125 0)
(0.391258 0.441763 0)
(0.412264 0.481924 0)
(0.433567 0.503987 0)
(0.439603 0.541047 0)
(0.476319 0.572488 0)
(0.486848 0.604571 0)
(0.521549 0.632624 0)
(0.54996 0.664207 0)