/*--------------------------------*- C++ -*----------------------------------*\
| =========                 |                                                 |
| \\      /  F ield         | OpenFOAM: The Open Source CFD Toolbox           |
|  \\    /   O peration     | Version:  5.x                                   |
|   \\  /    A nd           | Web:      www.OpenFOAM.org                      |
|    \\/     M anipulation  |                                                 |
\*---------------------------------------------------------------------------*/
/*   Windows 32 and 64 bit porting by blueCAPE: http://www.bluecape.com.pt   *\
|  Based on Windows porting (2.0.x v4) by Symscape: http://www.symscape.com   |
\*---------------------------------------------------------------------------*/
FoamFile
{
    version     2.0;
    format      ascii;
    class       volScalarField;
    location    "350";
    object      epsilon;
}
// * * * * * * * * * * * * * * * * * * * * * * * * * * * * * * * * * * * * * //

dimensions      [0 2 -3 0 0 0 0];

internalField   nonuniform List<scalar> 
43900
(
0.00152925
0.00151909
0.00151979
0.00151971
0.00151968
0.00151966
0.00151967
0.00151967
0.00151967
0.00151967
0.00151967
0.00151968
0.00151968
0.00151968
0.00151968
0.00151969
0.00151968
0.00151968
0.00151968
0.00151969
0.00151969
0.00151969
0.00151969
0.00151969
0.00151968
0.00151968
0.00151969
0.00151969
0.00151969
0.000414044
3.81931e-005
3.16659e-005
3.15204e-005
3.27291e-005
3.27926e-005
3.28047e-005
3.27901e-005
3.27906e-005
3.27951e-005
3.27957e-005
3.28009e-005
3.2803e-005
3.28017e-005
3.28057e-005
3.28089e-005
3.28051e-005
3.28042e-005
3.28092e-005
3.28104e-005
3.28122e-005
3.28136e-005
3.2814e-005
3.28137e-005
3.28094e-005
3.28085e-005
3.2813e-005
3.28185e-005
3.28192e-005
0.050845
0.00575441
0.000289871
1.14979e-005
1.71208e-006
1.3278e-006
1.32675e-006
1.40973e-006
1.41877e-006
1.41759e-006
1.41656e-006
1.41695e-006
1.41758e-006
1.4179e-006
1.41829e-006
1.41851e-006
1.41856e-006
1.41892e-006
1.41922e-006
1.41929e-006
1.41954e-006
1.41966e-006
1.41979e-006
1.41993e-006
1.42e-006
1.42031e-006
1.42064e-006
1.42059e-006
1.42048e-006
0.146464
0.043753
0.00967058
0.00131983
8.36825e-005
3.42408e-006
3.42862e-007
1.22618e-007
1.08351e-007
1.15565e-007
1.19865e-007
1.20206e-007
1.19635e-007
1.19501e-007
1.19632e-007
1.19676e-007
1.19672e-007
1.19722e-007
1.19764e-007
1.19787e-007
1.19808e-007
1.19821e-007
1.19864e-007
1.19897e-007
1.19913e-007
1.19929e-007
1.1994e-007
1.19937e-007
1.19979e-007
0.197733
0.0845266
0.0338748
0.0112594
0.00265173
0.000357911
2.25325e-005
9.68647e-007
8.45116e-008
2.22707e-008
1.64945e-008
1.71004e-008
1.84144e-008
1.86249e-008
1.84439e-008
1.84162e-008
1.84808e-008
1.84898e-008
1.84739e-008
1.84801e-008
1.84856e-008
1.84879e-008
1.84947e-008
1.84976e-008
1.84981e-008
1.85025e-008
1.85079e-008
1.85137e-008
1.85186e-008
0.22271
0.109127
0.0533108
0.0251168
0.010513
0.00332728
0.000708886
7.7681e-005
4.30383e-006
2.04022e-007
1.92237e-008
5.55761e-009
4.10097e-009
4.42611e-009
4.72644e-009
4.71209e-009
4.63354e-009
4.64588e-009
4.67408e-009
4.66827e-009
4.66754e-009
4.67145e-009
4.6737e-009
4.67504e-009
4.67697e-009
4.67899e-009
4.67924e-009
4.67993e-009
4.68056e-009
0.234101
0.123587
0.0660777
0.0352787
0.0183567
0.00890314
0.00355585
0.00097296
0.000152952
1.17214e-005
6.07633e-007
3.34975e-008
4.39675e-009
1.74139e-009
1.52107e-009
1.66687e-009
1.75063e-009
1.71471e-009
1.69669e-009
1.70907e-009
1.70988e-009
1.70582e-009
1.7057e-009
1.70603e-009
1.70595e-009
1.70675e-009
1.70761e-009
1.70774e-009
1.70788e-009
0.237357
0.1313
0.0739702
0.0420951
0.0238994
0.0132744
0.00695682
0.00317514
0.00103923
0.000216508
2.27903e-005
1.4003e-006
7.82639e-008
5.55062e-009
1.23488e-009
7.33366e-010
7.52404e-010
8.1609e-010
8.12937e-010
7.96275e-010
7.99587e-010
8.05704e-010
8.05403e-010
8.05733e-010
8.06061e-010
8.05396e-010
8.05105e-010
8.05689e-010
8.06475e-010
0.236388
0.135227
0.0789714
0.0468213
0.0279617
0.016637
0.00969807
0.00538211
0.0026875
0.00102415
0.000248518
3.19984e-005
2.30457e-006
1.40847e-007
9.25865e-009
1.12385e-009
4.80937e-010
4.01652e-010
4.45567e-010
4.62698e-010
4.5231e-010
4.50364e-010
4.52633e-010
4.52644e-010
4.5292e-010
4.53889e-010
4.53942e-010
4.53453e-010
4.53418e-010
0.232089
0.135882
0.0814084
0.0496678
0.0306846
0.0190571
0.0117798
0.0071388
0.00413593
0.00217934
0.000920372
0.000246393
3.62436e-005
2.98231e-006
2.01483e-007
1.39229e-008
1.29312e-009
3.93823e-010
2.64337e-010
2.75938e-010
2.92929e-010
2.88488e-010
2.85265e-010
2.86971e-010
2.87532e-010
2.87534e-010
2.87751e-010
2.88322e-010
2.88261e-010
0.224991
0.134162
0.0818153
0.0509202
0.0321914
0.0205631
0.0131815
0.00839949
0.00524551
0.0031358
0.00171594
0.000773995
0.00022038
3.53016e-005
3.23294e-006
2.41703e-007
1.8123e-008
1.60157e-009
3.2855e-010
1.96326e-010
1.88449e-010
2.01928e-010
2.01439e-010
1.97688e-010
1.97862e-010
1.9843e-010
1.98414e-010
1.98696e-010
1.99245e-010
0.21699
0.131342
0.0813593
0.0514445
0.033097
0.0215728
0.0141747
0.0093274
0.00609075
0.0038931
0.00238162
0.00133728
0.000626739
0.000185194
3.15928e-005
3.16513e-006
2.60541e-007
2.13227e-008
1.92337e-009
3.11323e-010
1.60897e-010
1.34709e-010
1.45372e-010
1.49628e-010
1.47352e-010
1.46575e-010
1.4671e-010
1.4664e-010
1.46479e-010
0.208067
0.127593
0.0800827
0.051311
0.0334894
0.0221836
0.0148536
0.0100038
0.00673301
0.00448794
0.00292291
0.00181952
0.00103949
0.000497025
0.000149233
2.64012e-005
2.85498e-006
2.58891e-007
2.32863e-008
2.23352e-009
3.2213e-010
1.38503e-010
1.0692e-010
1.11091e-010
1.16061e-010
1.14691e-010
1.13884e-010
1.1415e-010
1.14076e-010
0.198396
0.123048
0.0781148
0.0506635
0.0334575
0.0224647
0.0152749
0.0104765
0.00721226
0.00495131
0.00335919
0.00222207
0.00140194
0.000809893
0.00039021
0.000117034
2.10028e-005
2.43105e-006
2.43038e-007
2.4099e-008
2.49915e-009
3.45899e-010
1.20903e-010
8.89112e-011
8.84896e-011
9.30049e-011
9.3047e-011
9.21781e-011
9.21617e-011
0.188213
0.117906
0.0756129
0.0495536
0.0331083
0.0224737
0.0154819
0.010779
0.00755468
0.00530356
0.00370491
0.00255194
0.00170963
0.00108922
0.000632768
0.000304214
8.99785e-005
1.61588e-005
1.99055e-006
2.18455e-007
2.38138e-008
2.68292e-009
3.71745e-010
1.11346e-010
7.80021e-011
7.04364e-011
7.46115e-011
7.66899e-011
7.62365e-011
0.177723
0.112361
0.0727175
0.0481087
0.0324603
0.0222862
0.0155177
0.0109435
0.00778523
0.00556434
0.00397536
0.00281998
0.00196768
0.00133161
0.000853823
0.000496184
0.000235254
6.8411e-005
1.24041e-005
1.63434e-006
1.96721e-007
2.35496e-008
2.89202e-009
4.11961e-010
1.09611e-010
7.04489e-011
6.01628e-011
6.20481e-011
6.39897e-011
0.167063
0.106536
0.0695425
0.046411
0.0316034
0.021908
0.0154234
0.0109964
0.0079242
0.0057497
0.00418348
0.00303658
0.00218379
0.00154114
0.00105184
0.000677531
0.000392931
0.000182516
5.2229e-005
9.66034e-006
1.36983e-006
1.80809e-007
2.37448e-008
3.17502e-009
4.71833e-010
1.13846e-010
6.33591e-011
5.27504e-011
5.28766e-011
0.156353
0.100535
0.0661672
0.0445277
0.0305812
0.0213927
0.015209
0.01096
0.00798907
0.00587298
0.00433906
0.00320851
0.00236211
0.0017193
0.00122509
0.000841758
0.000543593
0.000313629
0.000141909
4.01218e-005
7.62901e-006
1.1643e-006
1.67631e-007
2.39711e-008
3.46868e-009
5.41709e-010
1.21808e-010
5.90683e-011
4.79419e-011
0.145714
0.0944541
0.0626645
0.0425129
0.0294397
0.020771
0.0149014
0.0108469
0.00798703
0.00594196
0.00444992
0.00334307
0.0025089
0.00187089
0.0013764
0.000988911
0.000683061
0.000441458
0.000252759
0.000110732
3.11069e-005
6.12615e-006
1.00662e-006
1.57503e-007
2.44464e-008
3.81974e-009
6.30687e-010
1.36112e-010
5.77073e-011
0.13524
0.088368
0.0590924
0.0404103
0.0282116
0.0200712
0.0145254
0.010671
0.00794131
0.00596914
0.00452375
0.00344539
0.00262789
0.00199872
0.00150771
0.00111981
0.000810381
0.000562142
0.000363252
0.000206149
8.71698e-005
2.45194e-005
5.03935e-006
8.91319e-007
1.51066e-007
2.53623e-008
4.27532e-009
7.48742e-010
1.56697e-010
0.125009
0.0823393
0.0554981
0.0382549
0.0269224
0.0193118
0.0140944
0.0104466
0.00784701
0.00595909
0.00456659
0.00352131
0.00272409
0.00210681
0.00162203
0.00123637
0.000926135
0.000674489
0.000469546
0.000303202
0.00017049
6.9484e-005
1.97035e-005
4.24165e-006
8.05429e-007
1.47207e-007
2.66226e-008
4.82637e-009
8.81941e-010
0.11509
0.0764216
0.0519219
0.0360769
0.025595
0.0185105
0.0136232
0.010185
0.00772029
0.00592155
0.00458338
0.00357413
0.00280001
0.00219714
0.00172088
0.00133961
0.00103074
0.000778028
0.000569819
0.000397875
0.000256656
0.000142978
5.59824e-005
1.61265e-005
3.65301e-006
7.43919e-007
1.46371e-007
2.84683e-008
5.41388e-009
0.105538
0.0706578
0.0483965
0.0339004
0.024247
0.0176799
0.0131206
0.00989293
0.00756497
0.00585521
0.0045773
0.00360737
0.00285896
0.00227271
0.00180685
0.00143168
0.00112581
0.000873728
0.000664172
0.000488996
0.000342462
0.00022081
0.000122265
4.68781e-005
1.3692e-005
3.25229e-006
7.06444e-007
1.48669e-007
3.02182e-008
0.0963946
0.0650823
0.0449479
0.0317451
0.0228933
0.0168316
0.012596
0.0095784
0.00738845
0.00577051
0.00455498
0.00362508
0.00290363
0.0023354
0.00188138
0.00151369
0.00121215
0.000962049
0.000752594
0.000575867
0.000426131
0.000299379
0.000193097
0.000106198
4.05597e-005
1.20294e-005
2.98976e-006
6.8875e-007
1.50777e-007
0.087693
0.0597216
0.0415969
0.0296269
0.0215457
0.0159743
0.0120554
0.00924531
0.00719288
0.00566707
0.00451313
0.00362568
0.00293415
0.0023861
0.00194559
0.00158675
0.00129077
0.00104379
0.000835578
0.000658547
0.000507085
0.000377129
0.000265872
0.000171607
9.38509e-005
3.60132e-005
1.09156e-005
2.84003e-006
6.75588e-007
0.0794538
0.054595
0.0383595
0.027558
0.0202137
0.0151152
0.0115046
0.00889859
0.00698292
0.0055499
0.00445971
0.00361695
0.00295481
0.00242734
0.00200114
0.00165209
0.00136259
0.00111967
0.000913645
0.000737298
0.000585221
0.000453405
0.000338951
0.00023989
0.000155137
8.45817e-005
3.2845e-005
1.02567e-005
2.72664e-006
0.0716921
0.0497175
0.0352481
0.0255486
0.0189052
0.0142604
0.0109483
0.00854163
0.00676089
0.00542025
0.00439403
0.00359601
0.00296504
0.00245948
0.00204866
0.00171035
0.00142823
0.0011902
0.000987173
0.000812338
0.00066053
0.000527868
0.000411467
0.000309255
0.000219881
0.000142713
7.78791e-005
3.07991e-005
9.71687e-006
0.0644158
0.0450993
0.0322725
0.0236068
0.0176264
0.0134147
0.0103901
0.00817711
0.00652865
0.00527944
0.00431707
0.00356371
0.00296468
0.0024826
0.00208844
0.00176194
0.00148813
0.0012558
0.00105654
0.000883952
0.00073316
0.000600457
0.00048304
0.000378828
0.000286356
0.00020473
0.000133591
7.33945e-005
2.906e-005
0.0576274
0.0407472
0.02944
0.0217389
0.0163828
0.0125824
0.00983327
0.00780764
0.00628843
0.00512954
0.00423105
0.00352347
0.00295795
0.00249897
0.00212176
0.00180765
0.00154282
0.0013169
0.00112207
0.000952382
0.000803258
0.000671191
0.000553496
0.000448139
0.000353629
0.000268945
0.000193497
0.000127458
6.94105e-005
0.051326
0.0366656
0.026756
0.0199503
0.0151789
0.0117671
0.00928069
0.00743543
0.00604185
0.00497163
0.00413646
0.0034746
0.00294242
0.00250785
0.00214857
0.00184767
0.00159255
0.00137373
0.00118399
0.00101782
0.000870964
0.000740125
0.000622765
0.000516935
0.000421164
0.000334391
0.000255921
0.000185511
0.000123158
0.0455062
0.032856
0.0242246
0.0182452
0.0140184
0.010972
0.00873486
0.00706237
0.00579029
0.00480666
0.00403394
0.0034176
0.00291867
0.00250887
0.00216865
0.00188194
0.0016374
0.00142644
0.00124248
0.00108045
0.00093643
0.000807369
0.000690886
0.000585139
0.000488715
0.000400563
0.000319945
0.000246445
0.000180041
0.0401598
0.0293181
0.0218483
0.0166271
0.0129047
0.0101998
0.00819804
0.00669025
0.00553518
0.00463583
0.00392461
0.0033537
0.00288875
0.00250486
0.00218354
0.00191132
0.00167787
0.00147536
0.00129777
0.00114047
0.000999845
0.000873084
0.00075798
0.000652811
0.000556244
0.000467266
0.000385142
0.000309393
0.000239826
0.0352753
0.0260494
0.0196284
0.0150985
0.0118404
0.00945316
0.00767234
0.00632075
0.0052778
0.00446008
0.00380909
0.00328315
0.0028522
0.00249437
0.00219274
0.00193572
0.00171404
0.00152063
0.00135005
0.00119807
0.00106141
0.000937473
0.000824237
0.00072011
0.000623851
0.00053451
0.000451378
0.000373967
0.000301995
0.0308385
0.0230457
0.0175649
0.0136611
0.0108279
0.0087342
0.00715964
0.00595539
0.00501931
0.00428025
0.00368791
0.00320626
0.00280908
0.00247708
0.00219577
0.00195488
0.0017458
0.00156227
0.00139941
0.00125342
0.00112132
0.00100076
0.000889898
0.000787276
0.000691755
0.000602459
0.000518729
0.000440097
0.000366259
0.0268324
0.0203008
0.0156569
0.0123162
0.00986912
0.0080449
0.00666174
0.00559565
0.00476088
0.00409722
0.00356178
0.00312362
0.00276011
0.00245443
0.00219396
0.00196951
0.00177358
0.00160055
0.00144607
0.00130673
0.00117982
0.00106323
0.000955276
0.000854639
0.000760288
0.000671427
0.000587459
0.000507958
0.000432638
0.0232377
0.017807
0.0139021
0.0110642
0.00896545
0.00738702
0.00618029
0.00524296
0.00450367
0.00391189
0.00343136
0.00303572
0.00270555
0.00242638
0.00218742
0.00197973
0.00179747
0.00163561
0.00149022
0.00135822
0.00123719
0.00112521
0.00102075
0.000922628
0.000829908
0.00074188
0.000658018
0.000577949
0.000501432
0.0200329
0.0155551
0.0122975
0.00990481
0.00811802
0.00676211
0.00571686
0.00489871
0.0042488
0.00372512
0.00329725
0.0029429
0.00264552
0.00239267
0.00217494
0.00198495
0.00181723
0.00166736
0.00153189
0.00140806
0.00129369
0.00118705
0.00108677
0.00099177
0.000901208
0.000814455
0.000731055
0.000650701
0.000573208
0.0171947
0.0135343
0.0108389
0.00883724
0.00732755
0.00617149
0.00527292
0.00456425
0.00399743
0.0035378
0.00316009
0.00284558
0.00258029
0.00235362
0.00215738
0.00198514
0.00183279
0.00169578
0.00157111
0.00145635
0.00134955
0.00124914
0.00115385
0.00106271
0.000974943
0.000889993
0.000807467
0.000727122
0.000648843
0.0146986
0.0117328
0.00952116
0.00786
0.00659432
0.00561626
0.00484981
0.0042409
0.00375067
0.00335083
0.00302053
0.00274421
0.00251014
0.00230935
0.00213491
0.00198146
0.00184453
0.00172093
0.00160788
0.00150315
0.00140494
0.00131179
0.0012225
0.00113616
0.00105202
0.000969564
0.000888444
0.000808473
0.000729606
0.0125186
0.0101376
0.00833835
0.00697091
0.0059182
0.00509727
0.00444878
0.00392996
0.00350973
0.00316519
0.00287931
0.00263926
0.00243527
0.0022598
0.00210699
0.0019723
0.00185155
0.00174221
0.00164177
0.00154818
0.00145976
0.00137512
0.0012931
0.00121277
0.00113338
0.0010544
0.000975456
0.000896399
0.000817235
0.0106283
0.00873457
0.00728364
0.00616723
0.00529864
0.00461513
0.00407099
0.00363278
0.00327591
0.00298204
0.00273738
0.00253143
0.00235611
0.00220514
0.00207357
0.0019574
0.00185322
0.00175904
0.0016722
0.00159091
0.0015136
0.00143892
0.0013657
0.00129295
0.00121982
0.00114568
0.00107009
0.000992823
0.000913895
0.00900099
0.00750931
0.00634962
0.00544568
0.00473481
0.00417038
0.00371769
0.00335097
0.00305093
0.00280305
0.00259625
0.00242202
0.00227375
0.00214623
0.00203532
0.00193767
0.00185057
0.00177159
0.00169893
0.00163089
0.00156594
0.00150273
0.00144002
0.00137669
0.00131173
0.0012443
0.00117374
0.00109966
0.00102193
0.00761038
0.00644707
0.00552854
0.00480277
0.00422578
0.00376366
0.00339049
0.00308665
0.0028372
0.00263075
0.00245846
0.0023135
0.00219047
0.00208512
0.00199402
0.00191438
0.00184395
0.00178042
0.00172237
0.00166827
0.0016167
0.0015663
0.00151577
0.00146382
0.0014092
0.00135075
0.00128744
0.00121851
0.00114352
0.00643133
0.0055334
0.00481268
0.00423502
0.00377081
0.003396
0.00309158
0.00284281
0.00263826
0.00246901
0.0023281
0.00221003
0.00211046
0.00202591
0.00195357
0.00189116
0.00183673
0.00178837
0.00174485
0.0017049
0.00166726
0.00163061
0.00159359
0.00155477
0.00151263
0.00146557
0.00141206
0.00135071
0.00128052
0.00544027
0.00475457
0.00419463
0.00373919
0.00336948
0.00306896
0.00282394
0.0026235
0.00245892
0.0023233
0.0022111
0.00211793
0.00204026
0.00197526
0.00192069
0.00187465
0.00183575
0.00180136
0.00177158
0.00174539
0.0017216
0.00169898
0.00167621
0.00165174
0.00162379
0.00159032
0.00154915
0.00149802
0.00143496
0.00461551
0.00409778
0.00366748
0.00331241
0.00302176
0.00278458
0.00259122
0.00243365
0.00230524
0.00220058
0.00211525
0.00204564
0.0019889
0.00194264
0.00190519
0.00187467
0.0018485
0.00182767
0.00181107
0.00179795
0.00178735
0.00177834
0.00176976
0.00176006
0.00174724
0.00172895
0.00170232
0.00166389
0.00161021
0.00393724
0.00355107
0.00322465
0.00295189
0.00272764
0.00254502
0.00239735
0.00227873
0.00218406
0.00210898
0.00204986
0.00200356
0.00196783
0.0019402
0.00191793
0.00190064
0.00188837
0.00188064
0.00187662
0.00187561
0.00187697
0.00188044
0.00188519
0.00188973
0.00189186
0.00188939
0.0018791
0.00185538
0.00181272
0.00338721
0.0031031
0.00285962
0.00265459
0.00248676
0.00235208
0.002246
0.00216415
0.00210245
0.00205724
0.00202546
0.00200372
0.00198829
0.00197856
0.00197378
0.00197273
0.00197485
0.00198026
0.00198792
0.00199777
0.00200984
0.0020242
0.00204052
0.00205789
0.00207456
0.00208775
0.0020924
0.00208373
0.00205448
0.00294829
0.00274276
0.00256554
0.00241682
0.00229788
0.00220664
0.00214003
0.00209477
0.00206737
0.0020545
0.00205141
0.00205585
0.00206663
0.00208118
0.00209819
0.00211654
0.00213548
0.0021546
0.0021741
0.00219439
0.002216
0.00223954
0.00226537
0.0022933
0.00232228
0.00234967
0.00237056
0.00237387
0.00235541
0.00260429
0.00245897
0.00233505
0.00223399
0.00215872
0.00210847
0.00208126
0.00207477
0.00208446
0.00210747
0.00214157
0.00218293
0.00222881
0.00227622
0.00232276
0.002367
0.00240817
0.00244603
0.00248096
0.00251378
0.00254559
0.00257767
0.00261125
0.00264711
0.00268537
0.00272383
0.00275867
0.00277377
0.0027602
0.0023399
0.00224077
0.00216031
0.00210069
0.0020659
0.00205623
0.00207046
0.00210599
0.00216063
0.00223182
0.00231559
0.00240726
0.0025028
0.00259834
0.00269039
0.00277631
0.00285446
0.0029241
0.00298541
0.00303935
0.00308745
0.00313161
0.00317418
0.00321714
0.00326222
0.00330772
0.00335267
0.00337387
0.00335884
0.00214098
0.00207754
0.00203333
0.00201096
0.0020153
0.00204722
0.00210687
0.00219355
0.00230556
0.00243929
0.00259079
0.00275491
0.00292608
0.00309856
0.00326681
0.00342606
0.0035727
0.00370441
0.00382024
0.00392049
0.0040064
0.00407998
0.00414492
0.00420439
0.00426232
0.0043159
0.00436906
0.00438717
0.00435794
0.00199487
0.00195941
0.00194632
0.00195855
0.00200188
0.00207872
0.00219132
0.00234016
0.00252437
0.00274184
0.00298887
0.00326002
0.00354842
0.00384621
0.00414514
0.0044373
0.00471582
0.00497534
0.00521221
0.00542447
0.00561156
0.00577385
0.00591749
0.0060451
0.00615675
0.00624938
0.00632994
0.00635558
0.0062852
0.00189056
0.00187749
0.00189184
0.00193736
0.00202115
0.00214785
0.00232177
0.00254602
0.0028227
0.00315227
0.00353305
0.00396077
0.00442866
0.00492774
0.00544754
0.0059771
0.00650593
0.00702492
0.00752679
0.00800626
0.00845963
0.00888394
0.00928165
0.00965438
0.00999733
0.0103016
0.0105432
0.0107494
0.0105556
0.00181875
0.00182397
0.00186334
0.00194189
0.00206822
0.00225003
0.00249495
0.0028106
0.00320402
0.00368083
0.00424433
0.00489475
0.00562879
0.00643978
0.00731836
0.00825364
0.00923464
0.0102517
0.0112974
0.0123675
0.0134605
0.0145769
0.0157116
0.0168815
0.0180885
0.0193243
0.0204284
0.021969
0.0214719
0.00177174
0.00179219
0.00185514
0.0019665
0.00213785
0.00238024
0.00270656
0.00313094
0.00366817
0.00433275
0.00513761
0.00609293
0.00720529
0.00847756
0.00990948
0.0114992
0.0132454
0.0151496
0.0172192
0.0194693
0.0219257
0.0246252
0.027621
0.0309472
0.0347609
0.0391309
0.0438833
0.0516219
0.0512121
0.00174329
0.0017766
0.001862
0.00200638
0.00222474
0.00253299
0.00295081
0.00350127
0.00421047
0.00510656
0.00621845
0.00757443
0.0092011
0.0111232
0.0133644
0.0159499
0.0189095
0.022283
0.0261262
0.0305187
0.0355752
0.0414539
0.0483979
0.0566795
0.0669024
0.0794255
0.0957965
0.121275
0.128176
0.00172847
0.00177263
0.00187967
0.00205689
0.00232397
0.00270252
0.00322082
0.00391354
0.00482209
0.0059941
0.00748255
0.00934481
0.011642
0.0144397
0.0178095
0.0218338
0.0266129
0.0322743
0.0389879
0.0469854
0.0565934
0.0682635
0.0827047
0.100785
0.124486
0.154863
0.199959
0.261502
0.305868
0.00172421
0.00177733
0.00190552
0.00211512
0.00243207
0.00288443
0.00351078
0.00436023
0.00549385
0.00698539
0.00892168
0.0114032
0.014545
0.01848
0.0233637
0.0293835
0.0367731
0.0458325
0.05696
0.0706957
0.0878021
0.109341
0.137002
0.172933
0.222131
0.287315
0.392514
0.520234
0.68594
0.00151969
0.00151969
0.00151969
0.00151969
0.0015197
0.0015197
0.0015197
0.00151969
0.00151969
0.0015197
0.00151971
0.0015197
0.00151969
0.0015197
0.00151971
0.0015197
0.00151969
0.00151968
0.00151969
0.00151971
0.0015197
0.00151969
0.00151968
0.00151968
0.00151969
0.0015197
0.0015197
0.00151971
0.00151971
0.00151969
0.00151968
0.00151967
0.00151969
0.0015197
0.0015197
0.0015197
0.0015197
0.0015197
0.0015197
0.0015197
0.0015197
0.0015197
0.0015197
0.0015197
0.0015197
0.0015197
0.0015197
0.0015197
0.0015197
0.0015197
0.0015197
0.0015197
0.0015197
0.0015197
0.0015197
0.0015197
0.0015197
0.0015197
0.0015197
0.0015197
0.0015197
0.0015197
0.0015197
0.0015197
0.0015197
0.0015197
0.0015197
0.0015197
0.0015197
0.0015197
0.0015197
0.0015197
0.0015197
0.0015197
0.00151971
0.0015197
0.00151971
0.00151971
0.00151971
0.00151971
0.00151971
0.00151971
0.00151971
0.00151971
0.00151971
0.00151971
0.00151971
0.0015197
0.00151971
0.00151971
0.00151971
0.00151971
0.00151971
0.00151971
0.00151971
0.00151971
0.00151971
0.00151971
0.00151971
0.00151971
0.00151971
0.00151971
0.00151971
0.00151971
0.00151971
0.00151971
0.00151971
0.00151971
0.00151971
0.00151971
0.00151971
0.00151971
0.00151971
0.00151971
0.00151971
0.00151971
0.00151971
0.00151971
0.00151971
0.00151971
0.00151971
0.00151971
0.00151971
0.00151971
0.00151971
0.00151971
0.00151971
0.00151971
0.00151971
0.00151971
0.00151971
0.00151972
0.00151971
0.00151972
0.00151972
0.00151972
0.00151972
0.00151973
0.00154195
3.28173e-005
3.28127e-005
3.28113e-005
3.28164e-005
3.28261e-005
3.28291e-005
3.28228e-005
3.28151e-005
3.28152e-005
3.28255e-005
3.2834e-005
3.28291e-005
3.282e-005
3.28253e-005
3.28351e-005
3.28318e-005
3.2817e-005
3.28094e-005
3.28214e-005
3.2834e-005
3.28314e-005
3.28114e-005
3.28e-005
3.28035e-005
3.28211e-005
3.28255e-005
3.28271e-005
3.28341e-005
3.28333e-005
3.28184e-005
3.28048e-005
3.2798e-005
3.28143e-005
3.28246e-005
3.28244e-005
3.28239e-005
3.28237e-005
3.28235e-005
3.28235e-005
3.28235e-005
3.28236e-005
3.28238e-005
3.28243e-005
3.28248e-005
3.28253e-005
3.28255e-005
3.28257e-005
3.28257e-005
3.28259e-005
3.28261e-005
3.28263e-005
3.28265e-005
3.28269e-005
3.28273e-005
3.28276e-005
3.28279e-005
3.28285e-005
3.28287e-005
3.28293e-005
3.28295e-005
3.28299e-005
3.28303e-005
3.28305e-005
3.28311e-005
3.28312e-005
3.28318e-005
3.28319e-005
3.28329e-005
3.28326e-005
3.28332e-005
3.28336e-005
3.28331e-005
3.28351e-005
3.2834e-005
3.28353e-005
3.28347e-005
3.28357e-005
3.28367e-005
3.28369e-005
3.28378e-005
3.28393e-005
3.28416e-005
3.28403e-005
3.28383e-005
3.28379e-005
3.28393e-005
3.28374e-005
3.28354e-005
3.28399e-005
3.28414e-005
3.28405e-005
3.284e-005
3.284e-005
3.28401e-005
3.28404e-005
3.28405e-005
3.2841e-005
3.2841e-005
3.28413e-005
3.28414e-005
3.28416e-005
3.28417e-005
3.28418e-005
3.28419e-005
3.28418e-005
3.28419e-005
3.28418e-005
3.28419e-005
3.28419e-005
3.2842e-005
3.2842e-005
3.28421e-005
3.28421e-005
3.28423e-005
3.28422e-005
3.28423e-005
3.28423e-005
3.28423e-005
3.28423e-005
3.28422e-005
3.28422e-005
3.28421e-005
3.2842e-005
3.2842e-005
3.28422e-005
3.28423e-005
3.28425e-005
3.28431e-005
3.28426e-005
3.28436e-005
3.28442e-005
3.2847e-005
3.28458e-005
3.28506e-005
3.28479e-005
3.28541e-005
3.28535e-005
3.28691e-005
3.51578e-005
1.42055e-006
1.42064e-006
1.42091e-006
1.42153e-006
1.42178e-006
1.42114e-006
1.42043e-006
1.4206e-006
1.42162e-006
1.42237e-006
1.42191e-006
1.42091e-006
1.42088e-006
1.42202e-006
1.42252e-006
1.42187e-006
1.42089e-006
1.42082e-006
1.42159e-006
1.42145e-006
1.4206e-006
1.41992e-006
1.42029e-006
1.4214e-006
1.42198e-006
1.42187e-006
1.42204e-006
1.42214e-006
1.42129e-006
1.42055e-006
1.42068e-006
1.42136e-006
1.4226e-006
1.42242e-006
1.4224e-006
1.42245e-006
1.42249e-006
1.42253e-006
1.42256e-006
1.42261e-006
1.42267e-006
1.42273e-006
1.42282e-006
1.4229e-006
1.42297e-006
1.42302e-006
1.42306e-006
1.42308e-006
1.42313e-006
1.42316e-006
1.42322e-006
1.42326e-006
1.42332e-006
1.42338e-006
1.42343e-006
1.42349e-006
1.42356e-006
1.42361e-006
1.42368e-006
1.42372e-006
1.42379e-006
1.42385e-006
1.42389e-006
1.42396e-006
1.42401e-006
1.42408e-006
1.42412e-006
1.4242e-006
1.42422e-006
1.4243e-006
1.42436e-006
1.42437e-006
1.42451e-006
1.42449e-006
1.42462e-006
1.42465e-006
1.42467e-006
1.4248e-006
1.42482e-006
1.42468e-006
1.42485e-006
1.42496e-006
1.42497e-006
1.42501e-006
1.425e-006
1.42502e-006
1.42478e-006
1.42485e-006
1.42502e-006
1.42508e-006
1.42515e-006
1.42517e-006
1.42517e-006
1.42518e-006
1.4252e-006
1.42522e-006
1.42526e-006
1.42525e-006
1.42528e-006
1.42528e-006
1.42529e-006
1.42529e-006
1.42529e-006
1.4253e-006
1.42529e-006
1.42528e-006
1.42526e-006
1.42525e-006
1.42523e-006
1.42522e-006
1.4252e-006
1.42519e-006
1.42516e-006
1.42513e-006
1.42511e-006
1.42507e-006
1.42505e-006
1.42499e-006
1.42496e-006
1.42491e-006
1.42486e-006
1.42479e-006
1.42474e-006
1.42469e-006
1.42465e-006
1.42461e-006
1.4246e-006
1.42452e-006
1.42457e-006
1.42465e-006
1.42439e-006
1.42468e-006
1.42465e-006
1.42506e-006
1.42442e-006
1.42851e-006
1.41057e-006
1.33212e-006
2.092e-006
1.20003e-007
1.20009e-007
1.20048e-007
1.2009e-007
1.20054e-007
1.19994e-007
1.2003e-007
1.20148e-007
1.20229e-007
1.2018e-007
1.20073e-007
1.2006e-007
1.20181e-007
1.20303e-007
1.20298e-007
1.20188e-007
1.20116e-007
1.20132e-007
1.20173e-007
1.20163e-007
1.20107e-007
1.20103e-007
1.20138e-007
1.20226e-007
1.2026e-007
1.20292e-007
1.20308e-007
1.20292e-007
1.20228e-007
1.20229e-007
1.20232e-007
1.20307e-007
1.20357e-007
1.20362e-007
1.20385e-007
1.20398e-007
1.2041e-007
1.20421e-007
1.20432e-007
1.20445e-007
1.20458e-007
1.20473e-007
1.20488e-007
1.20503e-007
1.20515e-007
1.20527e-007
1.20538e-007
1.20547e-007
1.20559e-007
1.20571e-007
1.20583e-007
1.20594e-007
1.20607e-007
1.2062e-007
1.20632e-007
1.20645e-007
1.20658e-007
1.20671e-007
1.20684e-007
1.20696e-007
1.20709e-007
1.20722e-007
1.20734e-007
1.20747e-007
1.20759e-007
1.20771e-007
1.20784e-007
1.20794e-007
1.20806e-007
1.20818e-007
1.20828e-007
1.20842e-007
1.20854e-007
1.20863e-007
1.20872e-007
1.20885e-007
1.20875e-007
1.2089e-007
1.20904e-007
1.20895e-007
1.20918e-007
1.20918e-007
1.20936e-007
1.2094e-007
1.20963e-007
1.20953e-007
1.20939e-007
1.20943e-007
1.20946e-007
1.2096e-007
1.20981e-007
1.20982e-007
1.20985e-007
1.20994e-007
1.21005e-007
1.21012e-007
1.21017e-007
1.21019e-007
1.21022e-007
1.21024e-007
1.21025e-007
1.21027e-007
1.21028e-007
1.21028e-007
1.21028e-007
1.21028e-007
1.21025e-007
1.21023e-007
1.2102e-007
1.21016e-007
1.21012e-007
1.21006e-007
1.21001e-007
1.20993e-007
1.20989e-007
1.20981e-007
1.20976e-007
1.20965e-007
1.20957e-007
1.20945e-007
1.20933e-007
1.20918e-007
1.20902e-007
1.20885e-007
1.20868e-007
1.20844e-007
1.2083e-007
1.20799e-007
1.20772e-007
1.20779e-007
1.20771e-007
1.20765e-007
1.20679e-007
1.21941e-007
1.21357e-007
1.09526e-007
1.55939e-007
8.49643e-006
0.0014036
1.85196e-008
1.85246e-008
1.85327e-008
1.85346e-008
1.8532e-008
1.85368e-008
1.85518e-008
1.85602e-008
1.85568e-008
1.8547e-008
1.85468e-008
1.85609e-008
1.85767e-008
1.85805e-008
1.85724e-008
1.85555e-008
1.85573e-008
1.85643e-008
1.85736e-008
1.8577e-008
1.85758e-008
1.85784e-008
1.85838e-008
1.85925e-008
1.85991e-008
1.86056e-008
1.86108e-008
1.86114e-008
1.86075e-008
1.86079e-008
1.86095e-008
1.86225e-008
1.86301e-008
1.8637e-008
1.86412e-008
1.86447e-008
1.86483e-008
1.86514e-008
1.86547e-008
1.86582e-008
1.86619e-008
1.86658e-008
1.86696e-008
1.86731e-008
1.86765e-008
1.86801e-008
1.86835e-008
1.86875e-008
1.86912e-008
1.86943e-008
1.86978e-008
1.87019e-008
1.87057e-008
1.87094e-008
1.8713e-008
1.87169e-008
1.87204e-008
1.87242e-008
1.87277e-008
1.87314e-008
1.87351e-008
1.87384e-008
1.87422e-008
1.87454e-008
1.8749e-008
1.87521e-008
1.87559e-008
1.87583e-008
1.87621e-008
1.87649e-008
1.87672e-008
1.87717e-008
1.87732e-008
1.87768e-008
1.87782e-008
1.87815e-008
1.87812e-008
1.87826e-008
1.87853e-008
1.87846e-008
1.87883e-008
1.87894e-008
1.87922e-008
1.87966e-008
1.88007e-008
1.88001e-008
1.87973e-008
1.88011e-008
1.88047e-008
1.8808e-008
1.88118e-008
1.88145e-008
1.88184e-008
1.88211e-008
1.8822e-008
1.8822e-008
1.88222e-008
1.88232e-008
1.88237e-008
1.88246e-008
1.88249e-008
1.88254e-008
1.88256e-008
1.88258e-008
1.88258e-008
1.88256e-008
1.88253e-008
1.88245e-008
1.88239e-008
1.88222e-008
1.88209e-008
1.88182e-008
1.88163e-008
1.88126e-008
1.8811e-008
1.8808e-008
1.8806e-008
1.88028e-008
1.88003e-008
1.87971e-008
1.87939e-008
1.87898e-008
1.8786e-008
1.87815e-008
1.87772e-008
1.87746e-008
1.87743e-008
1.87574e-008
1.87412e-008
1.87823e-008
1.87166e-008
1.8715e-008
1.89964e-008
1.68365e-008
1.68223e-008
5.76e-008
4.561e-006
0.000540546
0.0145404
4.68243e-009
4.68471e-009
4.68615e-009
4.68697e-009
4.68769e-009
4.68915e-009
4.69092e-009
4.69159e-009
4.69192e-009
4.69297e-009
4.69446e-009
4.69675e-009
4.6986e-009
4.6996e-009
4.69843e-009
4.69787e-009
4.69965e-009
4.70225e-009
4.70624e-009
4.70774e-009
4.70753e-009
4.70773e-009
4.70965e-009
4.71299e-009
4.71646e-009
4.7175e-009
4.71866e-009
4.71918e-009
4.71862e-009
4.71804e-009
4.71936e-009
4.72358e-009
4.72653e-009
4.729e-009
4.73032e-009
4.73169e-009
4.73321e-009
4.73468e-009
4.73614e-009
4.73764e-009
4.73916e-009
4.74066e-009
4.74204e-009
4.74335e-009
4.7447e-009
4.74623e-009
4.74767e-009
4.74889e-009
4.75027e-009
4.75201e-009
4.75392e-009
4.7555e-009
4.75691e-009
4.75833e-009
4.75976e-009
4.76125e-009
4.76262e-009
4.76408e-009
4.76543e-009
4.76683e-009
4.7682e-009
4.7695e-009
4.77091e-009
4.77213e-009
4.77349e-009
4.77468e-009
4.77604e-009
4.77711e-009
4.77848e-009
4.77957e-009
4.78049e-009
4.78218e-009
4.78272e-009
4.78442e-009
4.78489e-009
4.7864e-009
4.78707e-009
4.78788e-009
4.78928e-009
4.7899e-009
4.79112e-009
4.79158e-009
4.79236e-009
4.79365e-009
4.79473e-009