/*--------------------------------*- C++ -*----------------------------------*\
| =========                 |                                                 |
| \\      /  F ield         | OpenFOAM: The Open Source CFD Toolbox           |
|  \\    /   O peration     | Version:  5.x                                   |
|   \\  /    A nd           | Web:      www.OpenFOAM.org                      |
|    \\/     M anipulation  |                                                 |
\*---------------------------------------------------------------------------*/
/*   Windows 32 and 64 bit porting by blueCAPE: http://www.bluecape.com.pt   *\
|  Based on Windows porting (2.0.x v4) by Symscape: http://www.symscape.com   |
\*---------------------------------------------------------------------------*/
FoamFile
{
    version     2.0;
    format      ascii;
    class       volScalarField;
    location    "350";
    object      k;
}
// * * * * * * * * * * * * * * * * * * * * * * * * * * * * * * * * * * * * * //

dimensions      [0 2 -2 0 0 0 0];

internalField   nonuniform List<scalar> 
43900
(
0.000985519
0.000989435
0.000990248
0.000990177
0.000990127
0.000990115
0.000990119
0.00099012
0.00099012
0.000990124
0.000990124
0.000990128
0.00099013
0.000990129
0.000990132
0.000990134
0.000990131
0.00099013
0.000990134
0.000990135
0.000990137
0.000990138
0.000990138
0.000990138
0.000990134
0.000990133
0.000990136
0.000990141
0.000990142
0.00165001
5.60188e-005
3.89321e-005
3.81757e-005
4.08097e-005
4.09662e-005
4.09873e-005
4.09549e-005
4.09549e-005
4.09606e-005
4.09617e-005
4.09683e-005
4.09711e-005
4.09697e-005
4.09746e-005
4.09786e-005
4.09739e-005
4.09732e-005
4.09793e-005
4.09807e-005
4.09831e-005
4.09848e-005
4.09853e-005
4.0985e-005
4.09799e-005
4.09791e-005
4.09849e-005
4.09913e-005
4.09919e-005
0.294477
0.0540221
0.00410467
0.000117957
5.00857e-006
3.0838e-006
2.97868e-006
3.34452e-006
3.38102e-006
3.37576e-006
3.37063e-006
3.37127e-006
3.37314e-006
3.37406e-006
3.37493e-006
3.37538e-006
3.37554e-006
3.37645e-006
3.37712e-006
3.37728e-006
3.37785e-006
3.37812e-006
3.37846e-006
3.37883e-006
3.37904e-006
3.37974e-006
3.38047e-006
3.38028e-006
3.3801e-006
0.880111
0.376682
0.120036
0.0238348
0.00208248
8.30386e-005
4.02783e-006
5.91918e-007
4.57911e-007
4.9873e-007
5.33625e-007
5.36508e-007
5.31593e-007
5.30297e-007
5.31212e-007
5.31499e-007
5.31374e-007
5.31578e-007
5.31796e-007
5.31899e-007
5.31984e-007
5.32053e-007
5.32245e-007
5.32375e-007
5.32437e-007
5.32511e-007
5.32557e-007
5.32559e-007
5.3274e-007
1.28972
0.739188
0.394898
0.176616
0.056167
0.0103309
0.000826538
3.77406e-005
1.7114e-006
2.30599e-007
1.28839e-007
1.26032e-007
1.44642e-007
1.48208e-007
1.45441e-007
1.44998e-007
1.45936e-007
1.46007e-007
1.45731e-007
1.45793e-007
1.4584e-007
1.4584e-007
1.45885e-007
1.45913e-007
1.45919e-007
1.45954e-007
1.45989e-007
1.46034e-007
1.46064e-007
1.54684
0.984219
0.616974
0.370129
0.199011
0.0834578
0.0232504
0.00329641
0.000213621
1.0423e-005
5.55777e-007
9.80032e-008
5.39592e-008
5.46595e-008
6.15714e-008
6.15743e-008
5.95692e-008
5.98556e-008
6.05583e-008
6.03938e-008
6.03648e-008
6.04582e-008
6.04951e-008
6.0511e-008
6.05431e-008
6.05674e-008
6.05646e-008
6.05719e-008
6.05824e-008
1.71098
1.15005
0.773491
0.514139
0.330818
0.198305
0.100275
0.0349716
0.00705973
0.000652952
3.691e-005
1.99007e-006
1.40105e-007
4.02415e-008
2.89526e-008
3.14241e-008
3.4893e-008
3.36074e-008
3.2781e-008
3.32524e-008
3.32757e-008
3.31015e-008
3.30849e-008
3.30851e-008
3.30736e-008
3.30949e-008
3.31228e-008
3.31228e-008
3.31207e-008
1.81114
1.2587
0.880549
0.615691
0.425743
0.286347
0.181847
0.102531
0.0433143
0.0113327
0.0014541
9.88821e-005
5.76978e-006
3.59819e-007
4.32079e-008
2.14469e-008
1.89509e-008
2.14999e-008
2.19657e-008
2.1114e-008
2.12661e-008
2.16045e-008
2.15815e-008
2.15909e-008
2.16016e-008
2.15616e-008
2.15399e-008
2.1566e-008
2.15958e-008
1.87426
1.33354
0.957794
0.691133
0.497736
0.35446
0.246124
0.162721
0.0976894
0.0468209
0.0141387
0.0022212
0.00017865
1.15264e-005
7.53594e-007
6.45204e-008
1.98491e-008
1.45455e-008
1.50982e-008
1.64103e-008
1.57772e-008
1.55185e-008
1.56615e-008
1.56581e-008
1.56689e-008
1.57296e-008
1.57328e-008
1.56961e-008
1.56856e-008
1.90138
1.3758
1.00688
0.742641
0.549428
0.405255
0.29551
0.210361
0.143151
0.0894136
0.0464327
0.0153162
0.00273341
0.000251494
1.7931e-005
1.26914e-006
1.03124e-007
1.92117e-008
1.21715e-008
1.12421e-008
1.24027e-008
1.2381e-008
1.21199e-008
1.22247e-008
1.22615e-008
1.22413e-008
1.22501e-008
1.22885e-008
1.22801e-008
1.90115
1.39234
1.03247
0.773127
0.582489
0.439608
0.330434
0.245409
0.177975
0.123623
0.0793265
0.0433129
0.0150558
0.00290052
0.000295647
2.32453e-005
1.79873e-006
1.50007e-007
2.1435e-008
1.12852e-008
9.44341e-009
9.96906e-009
1.02458e-008
9.93579e-009
9.92172e-009
9.99185e-009
9.99577e-009
1.00132e-008
1.00528e-008
1.89184
1.39954
1.04883
0.794462
0.606522
0.465103
0.356737
0.272174
0.20499
0.150697
0.106174
0.0693276
0.0389565
0.0141128
0.00285949
0.00031597
2.71949e-005
2.29353e-006
2.02894e-007
2.59775e-008
1.02346e-008
8.23363e-009
8.35893e-009
8.83165e-009
8.67369e-009
8.5019e-009
8.51603e-009
8.51618e-009
8.50181e-009
1.86957
1.39523
1.05492
0.806793
0.62259
0.48342
0.376437
0.292759
0.226168
0.172272
0.127959
0.0910474
0.0600661
0.0341447
0.0125808
0.00261287
0.000308515
2.91125e-005
2.69272e-006
2.58107e-007
3.15437e-008
9.84374e-009
7.51056e-009
7.1346e-009
7.59052e-009
7.63487e-009
7.52537e-009
7.52195e-009
7.50581e-009
1.83677
1.38145
1.05265
0.811624
0.631985
0.495786
0.390759
0.30841
0.242755
0.189541
0.145717
0.109102
0.0781504
0.0518199
0.029513
0.010747
0.00223809
0.00027993
2.90191e-005
2.95496e-006
3.08678e-007
3.80924e-008
1.0061e-008
7.11284e-009
6.38904e-009
6.63182e-009
6.83654e-009
6.75128e-009
6.73796e-009
1.79569
1.35958
1.04351
0.810398
0.635933
0.503237
0.400641
0.319997
0.255576
0.20328
0.160153
0.124053
0.0934317
0.0671903
0.0445977
0.0252894
0.00888311
0.00182796
0.0002409
2.73435e-005
3.05829e-006
3.48445e-007
4.48883e-008
1.07161e-008
6.6018e-009
5.81918e-009
5.90916e-009
6.16311e-009
6.14402e-009
1.74819
1.33167
1.02842
0.804255
0.635463
0.506716
0.406891
0.328262
0.265324
0.214148
0.171883
0.13645
0.106327
0.0804099
0.0579153
0.0383401
0.0214857
0.00731888
0.00149413
0.000208227
2.58129e-005
3.16297e-006
3.93465e-007
5.37292e-008
1.17028e-008
6.27488e-009
5.43762e-009
5.29161e-009
5.46742e-009
1.69559
1.29897
1.00897
0.793769
0.631516
0.506941
0.410191
0.333802
0.272551
0.222668
0.181414
0.146783
0.117295
0.0918596
0.0696818
0.0502053
0.0330851
0.0181752
0.00601985
0.00123325
0.000183255
2.48212e-005
3.32881e-006
4.5132e-007
6.53957e-008
1.33355e-008
6.21726e-009
5.19412e-009
4.8559e-009
1.63898
1.26243
0.985977
0.780082
0.624317
0.504661
0.41114
0.337171
0.277729
0.229234
0.189072
0.155317
0.12654
0.101677
0.0799395
0.060754
0.0437218
0.0286031
0.015327
0.00495382
0.0010278
0.000163143
2.40289e-005
3.50154e-006
5.1366e-007
7.89898e-008
1.56522e-008
6.40953e-009
4.93521e-009
1.57935
1.22292
0.960204
0.763839
0.614793
0.499951
0.410086
0.338716
0.281243
0.234264
0.195283
0.162467
0.13445
0.110206
0.0889663
0.0701601
0.053371
0.0383158
0.024837
0.012917
0.0040941
0.000867866
0.000147394
2.35279e-005
3.71412e-006
5.879e-007
9.6284e-008
1.90342e-008
6.77578e-009
1.5175
1.18114
0.932241
0.745547
0.603372
0.493485
0.407299
0.338599
0.283191
0.237805
0.200091
0.168293
0.141106
0.117545
0.096869
0.0785177
0.0620742
0.0472379
0.0338106
0.0216959
0.0109196
0.00341994
0.000747684
0.000136001
2.34621e-005
3.99966e-006
6.82421e-007
1.19246e-007
2.34423e-008
1.4541
1.13767
0.902592
0.725643
0.590444
0.485628
0.40319
0.337425
0.284112
0.240364
0.203937
0.173172
0.146829
0.123968
0.103876
0.086011
0.0699619
0.0554235
0.0421787
0.0300914
0.0191117
0.0092975
0.00289836
0.000657166
0.000127804
2.37281e-005
4.35056e-006
7.97556e-007
1.45887e-007
1.38976
1.09301
0.871671
0.704471
0.57629
0.476596
0.397946
0.335014
0.283904
0.241863
0.206781
0.177102
0.151645
0.129519
0.110043
0.0926966
0.0770809
0.0628935
0.0499108
0.0379777
0.0270049
0.0169763
0.00796522
0.00249102
0.000589233
0.000122442
2.44224e-005
4.80764e-006
9.23449e-007
1.32497
1.04757
0.839832
0.682333
0.561175
0.466639
0.391836
0.331821
0.283005
0.242688
0.20897
0.180383
0.155818
0.134431
0.115577
0.0987583
0.0835901
0.069778
0.0570985
0.0453883
0.0345384
0.0244955
0.0152854
0.00691197
0.00217748
0.000537992
0.000119144
2.54118e-005
5.22547e-006
1.26017
1.00171
0.807355
0.659458
0.545287
0.455905
0.384953
0.327849
0.281251
0.242678
0.210378
0.182931
0.159299
0.138688
0.120486
0.10422
0.0895238
0.0761137
0.0637706
0.0523297
0.041673
0.0317264
0.0224652
0.0139504
0.0060899
0.00193898
0.000500419
0.000117614
2.6115e-005
1.1957
0.955707
0.774477
0.636044
0.528794
0.444545
0.37745
0.323289
0.278974
0.242231
0.211325
0.185009
0.162307
0.142467
0.124916
0.109206
0.0949877
0.0819896
0.0699993
0.0588538
0.0484313
0.0386471
0.0294531
0.0208475
0.0129072
0.00548115
0.00177442
0.000478725
0.000116249
1.13184
0.909793
0.741385
0.612245
0.511825
0.432665
0.369414
0.318196
0.276165
0.241218
0.211745
0.186589
0.164837
0.14579
0.128906
0.113766
0.100039
0.0874657
0.0758429
0.065012
0.0548513
0.0452715
0.0362129
0.0276474
0.0195886
0.0121085
0.00511926
0.00169283
0.000464865
1.06885
0.864167
0.708237
0.588188
0.494483
0.420349
0.360912
0.312621
0.272867
0.239706
0.211674
0.187701
0.16692
0.148683
0.132485
0.11793
0.104708
0.0925735
0.0813329
0.0708335
0.0609564
0.0516109
0.042732
0.0342791
0.0262389
0.0186329
0.0115099
0.00491046
0.00163093
1.00693
0.818996
0.67517
0.563983
0.476858
0.407674
0.35201
0.306636
0.269167
0.237825
0.211276
0.188473
0.168664
0.15124
0.135731
0.121766
0.109056
0.0973676
0.0865181
0.0763615
0.0667825
0.0576917
0.0490218
0.0407261
0.0327783
0.0251749
0.0179336
0.0111321
0.00473296
0.946264
0.774429
0.642301
0.539724
0.459023
0.394698
0.342757
0.300273
0.265076
0.235544
0.210453
0.188851
0.170033
0.153441
0.138638
0.125281
0.113096
0.101868
0.0914225
0.0816213
0.0723545
0.063535
0.0550958
0.0469876
0.0391775
0.0316497
0.0244065
0.01749
0.0107864
0.887022
0.7306
0.609736
0.515495
0.441048
0.381476
0.333195
0.293565
0.260624
0.232894
0.209256
0.188846
0.171044
0.155305
0.141227
0.128493
0.11685
0.106095
0.0960665
0.0866337
0.0776921
0.0691583
0.0609667
0.0530675
0.045425
0.038017
0.0308361
0.023895
0.0172289
0.829357
0.687632
0.577575
0.491375
0.422991
0.368055
0.323363
0.28655
0.255847
0.229922
0.207761
0.18859
0.171786
0.156897
0.143548
0.131445
0.120352
0.110081
0.100479
0.0914258
0.0828206
0.0745843
0.0666536
0.0589794
0.0515249
0.044265
0.0371864
0.0302896
0.0235945
0.773408
0.645641
0.545909
0.467434
0.404911
0.354478
0.313295
0.27925
0.25076
0.226627
0.205938
0.187989
0.172211
0.158191
0.145589
0.134133
0.123607
0.113835
0.104677
0.0960158
0.08776
0.0798338
0.0721769
0.0647413
0.0574908
0.0503988
0.043449
0.0366354
0.0299629
0.719306
0.604732
0.514822
0.44374
0.386858
0.340787
0.303021
0.271688
0.245379
0.223022
0.203794
0.187057
0.172308
0.159182
0.14735
0.136564
0.126626
0.117372
0.108673
0.100422
0.0925306
0.0849287
0.0775588
0.0703752
0.0633423
0.0564337
0.0496314
0.0429261
0.0363158
0.66717
0.565006
0.484398
0.420359
0.368883
0.327018
0.292569
0.263887
0.239723
0.219126
0.20136
0.185855
0.172162
0.159929
0.148874
0.13877
0.129434
0.120715
0.112493
0.104668
0.0971571
0.0898949
0.0828265
0.0759083
0.069106
0.0623937
0.055753
0.049173
0.042649
0.617108
0.526559
0.454714
0.397353
0.351035
0.313211
0.281968
0.255865
0.233805
0.214945
0.198634
0.184365
0.171738
0.160411
0.150151
0.140749
0.132036
0.123874
0.116151
0.108773
0.101664
0.0947599
0.0880102
0.0813729
0.0748151
0.0683115
0.0618443
0.0554019
0.0489788
0.569221
0.48948
0.425847
0.374785
0.333365
0.299402
0.271246
0.247643
0.227637
0.210486
0.195616
0.182574
0.171
0.160602
0.151166
0.142495
0.134434
0.126857
0.11966
0.112757
0.106074
0.099553
0.0931438
0.0868067
0.08051
0.0742293
0.0679472
0.0616524
0.0553395
0.523601
0.453858
0.397876
0.352721
0.315926
0.285634
0.260433
0.239242
0.221232
0.205757
0.192312
0.180496
0.169991
0.160535
0.15194
0.144021
0.136638
0.129676
0.123037
0.11664
0.110416
0.104307
0.0982662
0.0922544
0.0862402
0.0801999
0.0741163
0.0679787
0.0617824
0.480337
0.419782
0.370884
0.331233
0.298777
0.271954
0.249565
0.230689
0.214609
0.200768
0.188725
0.17813
0.168702
0.160218
0.152469
0.145322
0.138647
0.132333
0.126289
0.120437
0.11471
0.109054
0.103419
0.0977662
0.0920644
0.0862887
0.0804218
0.0744532
0.0683792
0.439514
0.387345
0.344958
0.310401
0.281987
0.258419
0.238689
0.222016
0.207791
0.195533
0.18486
0.175468
0.167109
0.159581
0.152707
0.146368
0.140436
0.134811
0.129407
0.124148
0.11897
0.113816
0.108638
0.103393
0.0980461
0.0925715
0.0869495
0.0811687
0.0752257
0.401217
0.356643
0.320195
0.290316
0.26564
0.245102
0.227865
0.213275
0.200815
0.190077
0.180732
0.172517
0.165215
0.158647
0.152658
0.147147
0.141988
0.137089
0.13237
0.127758
0.123188
0.118601
0.113944
0.109171
0.104243
0.0991248
0.0937937
0.0882341
0.0824412
0.365526
0.327774
0.296702
0.271083
0.249833
0.232093
0.217174
0.204534
0.19374
0.184447
0.176377
0.169301
0.163034
0.15742
0.152335
0.147643
0.143271
0.139129
0.135137
0.131225
0.127326
0.123379
0.119324
0.115109
0.110682
0.106003
0.101035
0.0957552
0.0901525
0.332519
0.300842
0.274592
0.25282
0.234686
0.219506
0.206723
0.195892
0.186655
0.178721
0.171857
0.165868
0.160594
0.155902
0.15168
0.147813
0.144245
0.14088
0.137649
0.134482
0.131314
0.12808
0.124715
0.121156
0.117339
0.113206
0.108706
0.103798
0.0984586
0.302268
0.275952
0.25399
0.235663
0.220339
0.207484
0.196653
0.187486
0.179688
0.173018
0.167279
0.16231
0.157973
0.154157
0.150763
0.147705
0.144913
0.142317
0.139852
0.137454
0.13506
0.132601
0.130007
0.127203
0.124112
0.120656
0.116757
0.11235
0.107384
0.274838
0.253208
0.235027
0.21976
0.206951
0.196193
0.187135
0.179487
0.173009
0.167502
0.162801
0.158771
0.1553
0.152292
0.14967
0.147365
0.145303
0.143439
0.141718
0.140082
0.138471
0.13682
0.135055
0.133093
0.13084
0.128193
0.125045
0.121293
0.116847
0.250276
0.232705
0.217831
0.205264
0.194695
0.185821
0.178367
0.172101
0.166827
0.16238
0.158625
0.155448
0.152756
0.150475
0.14854
0.146899
0.1455
0.144303
0.143266
0.142345
0.14149
0.14064
0.139724
0.138653
0.137322
0.135603
0.133352
0.130422
0.126663
0.22861
0.21452
0.202515
0.19232
0.183741
0.176558
0.170556
0.165548
0.161372
0.157891
0.154989
0.152575
0.150572
0.148923
0.147579
0.146505
0.145665
0.145031
0.144584
0.144288
0.144115
0.144013
0.143916
0.143739
0.143372
0.14266
0.141428
0.139483
0.136584
0.209827
0.198693
0.189165
0.181046
0.174237
0.168577
0.163898
0.160043
0.156877
0.154279
0.152151
0.150416
0.149013
0.147898
0.147042
0.146425
0.146012
0.145814
0.145834
0.146032
0.14643
0.146972
0.147612
0.148276
0.148855
0.149173
0.149031
0.148234
0.146366
0.193863
0.185217
0.177813
0.171514
0.166287
0.162014
0.158555
0.155777
0.153556
0.151784
0.150371
0.149249
0.148374
0.147706
0.14722
0.146913
0.146816
0.146925
0.147255
0.147822
0.148628
0.149662
0.1509
0.152291
0.153743
0.155096
0.156119
0.156422
0.155695
0.180588
0.174016
0.16843
0.163734
0.159938
0.156948
0.154645
0.152902
0.1516
0.150634
0.149916
0.14937
0.148941
0.148627
0.148434
0.148379
0.14848
0.148762
0.149263
0.150014
0.151047
0.152384
0.154031
0.15597
0.158146
0.160427
0.162591
0.164193
0.164566
0.169806
0.16495
0.160923
0.157651
0.155173
0.153405
0.152235
0.151529
0.151173
0.151029
0.151
0.151037
0.151105
0.151177
0.151264
0.151395
0.151606
0.151937
0.15245
0.153207
0.154269
0.155687
0.157508
0.159755
0.162423
0.165434
0.168626
0.171507
0.173315
0.161265
0.157822
0.155139
0.153157
0.151924
0.151358
0.15135
0.151735
0.152382
0.15317
0.153997
0.154775
0.155451
0.155996
0.156416
0.156744
0.157033
0.157348
0.157771
0.158388
0.159289
0.160561
0.162288
0.164544
0.167389
0.170816
0.174792
0.17881
0.182239
0.154676
0.152395
0.150888
0.1501
0.150085
0.150744
0.151962
0.153562
0.155423
0.157377
0.159286
0.161039
0.162561
0.163808
0.164773
0.165484
0.165994
0.166382
0.166743
0.167187
0.167827
0.168784
0.170176
0.172133
0.174775
0.178188
0.182527
0.187307
0.192365
0.149739
0.148418
0.147959
0.148309
0.149513
0.151473
0.154056
0.1571
0.160421
0.163837
0.167183
0.170314
0.17312
0.175527
0.177499
0.179043
0.180201
0.181048
0.18168
0.182215
0.182782
0.183517
0.184561
0.186098
0.188272
0.191268
0.195396
0.200286
0.206394
0.146162
0.145643
0.14614
0.147601
0.15007
0.153444
0.157588
0.162314
0.167426
0.172721
0.178001
0.183088
0.187832
0.192119
0.195877
0.199082
0.201751
0.20394
0.205736
0.20725
0.208606
0.209938
0.211379
0.213062
0.215127
0.21791
0.221575
0.226382
0.231892
0.143678
0.143837
0.145228
0.147805
0.151602
0.156529
0.162437
0.169143
0.176441
0.184112
0.191939
0.199713
0.20725
0.214402
0.221065
0.227183
0.232753
0.237819
0.242463
0.246801
0.250966
0.255103
0.259356
0.263862
0.268429
0.273808
0.278932
0.286849
0.287249
0.14205
0.142789
0.14504
0.148743
0.15395
0.160569
0.168465
0.177465
0.187369
0.197959
0.209009
0.220301
0.231634
0.242841
0.253805
0.264465
0.27482
0.284935
0.294935
0.304995
0.315341
0.326236
0.337967
0.350939
0.365202
0.381948
0.397879
0.424272
0.416512
0.141073
0.142313
0.145404
0.150254
0.156943
0.165392
0.175491
0.187089
0.200008
0.214053
0.229015
0.244688
0.260884
0.277451
0.294293
0.311381
0.328772
0.34661
0.365137
0.384698
0.405753
0.428887
0.454861
0.484646
0.519377
0.561867
0.610288
0.687516
0.677943
0.140581
0.142253
0.146175
0.152186
0.160422
0.170821
0.183308
0.197771
0.214075
0.232069
0.251591
0.272481
0.294604
0.317869
0.342251
0.367819
0.394752
0.423364
0.454124
0.487688
0.524951
0.567083
0.615772
0.67309
0.742546
0.828714
0.938876
1.09222
1.12113
0.140472
0.142511
0.147266
0.154444
0.164279
0.176723
0.19175
0.209301
0.229305
0.251683
0.276352
0.303244
0.332325
0.363624
0.397262
0.433484
0.472693
0.515492
0.562729
0.615558
0.675577
0.744883
0.826683
0.924775
1.04696
1.19967
1.40946
1.66195
1.82819
0.00099014
0.000990136
0.000990135
0.000990139
0.000990147
0.00099015
0.000990145
0.000990138
0.000990138
0.000990146
0.000990154
0.000990151
0.000990143
0.000990146
0.000990155
0.000990152
0.00099014
0.000990133
0.000990143
0.000990155
0.000990153
0.000990136
0.000990125
0.000990127
0.000990143
0.000990147
0.000990148
0.000990154
0.000990154
0.000990141
0.000990129
0.000990123
0.000990136
0.000990145
0.000990145
0.000990145
0.000990145
0.000990144
0.000990144
0.000990144
0.000990144
0.000990144
0.000990145
0.000990145
0.000990146
0.000990146
0.000990146
0.000990146
0.000990146
0.000990146
0.000990146
0.000990147
0.000990147
0.000990147
0.000990147
0.000990148
0.000990148
0.000990148
0.000990149
0.000990149
0.000990149
0.000990149
0.00099015
0.00099015
0.00099015
0.000990151
0.000990151
0.000990152
0.000990151
0.000990152
0.000990152
0.000990152
0.000990153
0.000990152
0.000990153
0.000990153
0.000990154
0.000990154
0.000990155
0.000990155
0.000990157
0.000990159
0.000990157
0.000990156
0.000990155
0.000990157
0.000990155
0.000990153
0.000990157
0.000990158
0.000990158
0.000990157
0.000990157
0.000990157
0.000990157
0.000990157
0.000990158
0.000990158
0.000990158
0.000990158
0.000990158
0.000990158
0.000990159
0.000990159
0.000990159
0.000990159
0.000990159
0.000990159
0.000990159
0.000990159
0.000990159
0.000990159
0.000990159
0.000990159
0.000990159
0.000990159
0.000990159
0.000990159
0.000990159
0.000990159
0.000990159
0.000990159
0.000990159
0.000990159
0.000990159
0.00099016
0.00099016
0.00099016
0.00099016
0.000990161
0.000990161
0.000990164
0.000990163
0.000990166
0.000990165
0.00099017
0.000990167
0.000990178
0.00100814
4.09897e-005
4.09843e-005
4.09829e-005
4.09897e-005
4.10014e-005
4.10042e-005
4.09958e-005
4.09868e-005
4.09881e-005
4.10012e-005
4.10108e-005
4.10038e-005
4.09929e-005
4.10004e-005
4.10126e-005
4.10079e-005
4.09894e-005
4.09802e-005
4.09953e-005
4.101e-005
4.10058e-005
4.09813e-005
4.09681e-005
4.09736e-005
4.0995e-005
4.10001e-005
4.10023e-005
4.10106e-005
4.10085e-005
4.09899e-005
4.09741e-005
4.09668e-005
4.09875e-005
4.09994e-005
4.0999e-005
4.09985e-005
4.09982e-005
4.09981e-005
4.09981e-005
4.09981e-005
4.09982e-005
4.09985e-005
4.09991e-005
4.09998e-005
4.10005e-005
4.10007e-005
4.1001e-005
4.1001e-005
4.10013e-005
4.10015e-005
4.10018e-005
4.10021e-005
4.10026e-005
4.1003e-005
4.10035e-005
4.10039e-005
4.10046e-005
4.10049e-005
4.10056e-005
4.10059e-005
4.10064e-005
4.1007e-005
4.10072e-005
4.1008e-005
4.10081e-005
4.10089e-005
4.1009e-005
4.10103e-005
4.10099e-005
4.10107e-005
4.10112e-005
4.10106e-005
4.10131e-005
4.10117e-005
4.10134e-005
4.10126e-005
4.10139e-005
4.10152e-005
4.10154e-005
4.10163e-005
4.10183e-005
4.10211e-005
4.10196e-005
4.10173e-005
4.10167e-005
4.10185e-005
4.10158e-005
4.10136e-005
4.10191e-005
4.10209e-005
4.10199e-005
4.10193e-005
4.10194e-005
4.10195e-005
4.10198e-005
4.10199e-005
4.10206e-005
4.10205e-005
4.1021e-005
4.10211e-005
4.10213e-005
4.10214e-005
4.10215e-005
4.10216e-005
4.10216e-005
4.10216e-005
4.10215e-005
4.10216e-005
4.10216e-005
4.10217e-005
4.10217e-005
4.10219e-005
4.10218e-005
4.1022e-005
4.1022e-005
4.10221e-005
4.1022e-005
4.10219e-005
4.10219e-005
4.10218e-005
4.10218e-005
4.10216e-005
4.10215e-005
4.10215e-005
4.10217e-005
4.10219e-005
4.1022e-005
4.10228e-005
4.10222e-005
4.10234e-005
4.1024e-005
4.10276e-005
4.10261e-005
4.10324e-005
4.10287e-005
4.10361e-005
4.10381e-005
4.10664e-005
4.46382e-005
3.3803e-006
3.38053e-006
3.38121e-006
3.38266e-006
3.38307e-006
3.38144e-006
3.37993e-006
3.38061e-006
3.38311e-006
3.38463e-006
3.38329e-006
3.38098e-006
3.38121e-006
3.384e-006
3.38507e-006
3.3834e-006
3.38111e-006
3.38103e-006
3.38273e-006
3.38228e-006
3.38021e-006
3.37882e-006
3.37978e-006
3.38246e-006
3.38366e-006
3.38345e-006
3.38384e-006
3.38396e-006
3.3819e-006
3.38033e-006
3.38072e-006
3.38247e-006
3.38521e-006
3.38473e-006
3.38471e-006
3.38484e-006
3.38495e-006
3.38503e-006
3.38512e-006
3.38524e-006
3.38537e-006
3.38554e-006
3.38574e-006
3.38594e-006
3.38611e-006
3.38623e-006
3.38633e-006
3.38638e-006
3.38649e-006
3.38659e-006
3.38671e-006
3.38682e-006
3.38696e-006
3.3871e-006
3.38724e-006
3.38737e-006
3.38754e-006
3.38766e-006
3.38783e-006
3.38795e-006
3.3881e-006
3.38824e-006
3.38836e-006
3.38853e-006
3.38864e-006
3.3888e-006
3.38891e-006
3.38909e-006
3.38916e-006
3.38935e-006
3.38949e-006
3.38954e-006
3.38985e-006
3.38983e-006
3.39011e-006
3.39019e-006
3.39023e-006
3.39052e-006
3.39059e-006
3.39025e-006
3.39065e-006
3.39087e-006
3.39094e-006
3.39105e-006
3.39106e-006
3.39107e-006
3.39051e-006
3.39069e-006
3.39104e-006
3.3912e-006
3.3914e-006
3.39144e-006
3.39143e-006
3.39145e-006
3.39153e-006
3.39157e-006
3.39166e-006
3.39164e-006
3.3917e-006
3.39171e-006
3.39173e-006
3.39174e-006
3.39174e-006
3.39175e-006
3.39173e-006
3.39172e-006
3.39166e-006
3.39164e-006
3.39159e-006
3.39156e-006
3.39152e-006
3.39147e-006
3.39142e-006
3.39135e-006
3.39129e-006
3.39119e-006
3.39114e-006
3.391e-006
3.39093e-006
3.3908e-006
3.39069e-006
3.39053e-006
3.3904e-006
3.39026e-006
3.39016e-006
3.39005e-006
3.39003e-006
3.38982e-006
3.3899e-006
3.39014e-006
3.38948e-006
3.39016e-006
3.39017e-006
3.39043e-006
3.3893e-006
3.40528e-006
3.32715e-006
3.08165e-006
5.74923e-006
5.32834e-007
5.32867e-007
5.33048e-007
5.33203e-007
5.33023e-007
5.32798e-007
5.33006e-007
5.33529e-007
5.33815e-007
5.33553e-007
5.331e-007
5.33116e-007
5.33672e-007
5.34156e-007
5.3408e-007
5.33575e-007
5.33315e-007
5.33408e-007
5.33563e-007
5.33519e-007
5.33288e-007
5.33316e-007
5.33475e-007
5.33837e-007
5.3395e-007
5.34096e-007
5.34163e-007
5.34082e-007
5.33821e-007
5.33855e-007
5.33874e-007
5.34224e-007
5.34387e-007
5.34422e-007
5.34517e-007
5.34574e-007
5.34625e-007
5.34671e-007
5.3472e-007
5.34774e-007
5.34833e-007
5.34897e-007
5.34965e-007
5.35026e-007
5.3508e-007
5.35131e-007
5.35177e-007
5.35224e-007
5.35275e-007
5.35327e-007
5.35376e-007
5.35427e-007
5.35482e-007
5.35537e-007
5.35591e-007
5.35649e-007
5.35706e-007
5.35762e-007
5.3582e-007
5.35875e-007
5.35932e-007
5.35985e-007
5.36042e-007
5.36094e-007
5.3615e-007
5.362e-007
5.36259e-007
5.36301e-007
5.36359e-007
5.36408e-007
5.36448e-007
5.36514e-007
5.36559e-007
5.36601e-007
5.36636e-007
5.36696e-007
5.3665e-007
5.36709e-007
5.36763e-007
5.36721e-007
5.36818e-007
5.36814e-007
5.36892e-007
5.36924e-007
5.3703e-007
5.36982e-007
5.36919e-007
5.36947e-007
5.3696e-007
5.37029e-007
5.37124e-007
5.37131e-007
5.37154e-007
5.37195e-007
5.37239e-007
5.37261e-007
5.3728e-007
5.37284e-007
5.37296e-007
5.37303e-007
5.37309e-007
5.37314e-007
5.37317e-007
5.3732e-007
5.37317e-007
5.37315e-007
5.37305e-007
5.37297e-007
5.37282e-007
5.37264e-007
5.37244e-007
5.37218e-007
5.37193e-007
5.37156e-007
5.37137e-007
5.37101e-007
5.37077e-007
5.37031e-007
5.36996e-007
5.36944e-007
5.36893e-007
5.36826e-007
5.3676e-007
5.36687e-007
5.36614e-007
5.36504e-007
5.36433e-007
5.36325e-007
5.36213e-007
5.36141e-007
5.36273e-007
5.36178e-007
5.35368e-007
5.45465e-007
5.40586e-007
4.53145e-007
8.94388e-007
9.6831e-005
0.0108782
1.46075e-007
1.4612e-007
1.46177e-007
1.46184e-007
1.46167e-007
1.46212e-007
1.46323e-007
1.46376e-007
1.46339e-007
1.46272e-007
1.4628e-007
1.46394e-007
1.46501e-007
1.46514e-007
1.46445e-007
1.46333e-007
1.4636e-007
1.46418e-007
1.46486e-007
1.46509e-007
1.46508e-007
1.46532e-007
1.46574e-007
1.46629e-007
1.46677e-007
1.46721e-007
1.46758e-007
1.46761e-007
1.4674e-007
1.4674e-007
1.46755e-007
1.46853e-007
1.469e-007
1.46952e-007
1.46982e-007
1.47008e-007
1.47035e-007
1.47058e-007
1.47083e-007
1.47109e-007
1.47136e-007
1.47165e-007
1.47193e-007
1.47217e-007
1.47242e-007
1.47269e-007
1.47295e-007
1.47323e-007
1.47349e-007
1.47373e-007
1.47401e-007
1.47431e-007
1.47459e-007
1.47487e-007
1.47513e-007
1.47542e-007
1.47568e-007
1.47596e-007
1.47622e-007
1.47649e-007
1.47676e-007
1.477e-007
1.47729e-007
1.47752e-007
1.47779e-007
1.47801e-007
1.47829e-007
1.47846e-007
1.47875e-007
1.47894e-007
1.47911e-007
1.47945e-007
1.47954e-007
1.47982e-007
1.47991e-007
1.48015e-007
1.48016e-007
1.48024e-007
1.48045e-007
1.4804e-007
1.48066e-007
1.48074e-007
1.48093e-007
1.48129e-007
1.48159e-007
1.48154e-007
1.48136e-007
1.48162e-007
1.48186e-007
1.48207e-007
1.48236e-007
1.4826e-007
1.48288e-007
1.48306e-007
1.4831e-007
1.48312e-007
1.48314e-007
1.48324e-007
1.48327e-007
1.48335e-007
1.48337e-007
1.48341e-007
1.48342e-007
1.48343e-007
1.48344e-007
1.48341e-007
1.4834e-007
1.48333e-007
1.48329e-007
1.48316e-007
1.48307e-007
1.48286e-007
1.48272e-007
1.48244e-007
1.48232e-007
1.48209e-007
1.48195e-007
1.48171e-007
1.48153e-007
1.48129e-007
1.48106e-007
1.48076e-007
1.48049e-007
1.48017e-007
1.47986e-007
1.47992e-007
1.48023e-007
1.47822e-007
1.4767e-007
1.48278e-007
1.47333e-007
1.47414e-007
1.51042e-007
1.20181e-007
1.31145e-007
7.72124e-007
7.99743e-005
0.00678963
0.112749
6.06054e-008
6.06308e-008
6.06481e-008
6.06568e-008
6.06651e-008
6.06827e-008
6.07037e-008
6.07118e-008
6.07142e-008
6.07265e-008
6.07456e-008
6.07719e-008
6.07937e-008
6.08002e-008
6.07846e-008
6.07841e-008
6.08065e-008
6.08442e-008
6.08925e-008
6.09057e-008
6.09035e-008
6.09045e-008
6.0928e-008
6.09679e-008
6.10078e-008
6.10177e-008
6.10295e-008
6.10322e-008
6.1024e-008
6.10166e-008
6.10353e-008
6.10857e-008
6.11223e-008
6.11485e-008
6.1162e-008
6.11772e-008
6.11943e-008
6.12111e-008
6.12279e-008
6.1245e-008
6.12622e-008
6.12789e-008
6.12938e-008
6.13076e-008
6.13225e-008
6.13394e-008
6.13553e-008
6.13703e-008
6.13882e-008
6.141e-008
6.14309e-008
6.14475e-008
6.1463e-008
6.14791e-008
6.14955e-008
6.15126e-008
6.1528e-008
6.15445e-008
6.15597e-008
6.15756e-008
6.1591e-008
6.16056e-008
6.16217e-008
6.16352e-008
6.16507e-008
6.16639e-008
6.16791e-008
6.16912e-008
6.17067e-008
6.17187e-008
6.17295e-008
6.17481e-008
6.17545e-008
6.17735e-008
6.17791e-008
6.17949e-008
6.18035e-008
6.18118e-008
6.18263e-008
6.18351e-008
6.18492e-008
6.18533e-008
6.18614e-008
6.18765e-008
6.18881e-008
6.18892e-008
6.18933e-008
6.19033e-008
6.19053e-008
6.19098e-008
6.19262e-008
6.19391e-008
6.19453e-008
6.1948e-008
6.19533e-008
6.19641e-008
6.19701e-008
6.19807e-008
6.19845e-008
6.19907e-008
6.1994e-008
6.19982e-008
6.20001e-008
6.20022e-008
6.20026e-008
6.20023e-008
6.20021e-008
6.19994e-008
6.19979e-008
6.19917e-008
6.19872e-008
6.19765e-008
6.19698e-008
6.19568e-008
6.19506e-008
6.19389e-008
6.19303e-008
6.19176e-008
6.19077e-008
6.18954e-008
6.18827e-008
6.18655e-008
6.18496e-008
6.18291e-008
6.18022e-008
6.1663e-008
6.15453e-008
6.18013e-008
6.1803e-008
6.09063e-008
6.21393e-008
6.2412e-008
5.36572e-008
1.08518e-007
2.10465e-006
0.0001511
0.00675476
0.0867954
0.427411
3.31354e-008
3.31569e-008
3.31673e-008
3.31689e-008
3.3174e-008
3.31856e-008
3.31956e-008
3.3206e-008
3.32181e-008
3.32311e-008
3.32403e-008
3.32469e-008
3.3259e-008
3.3264e-008
3.32673e-008
3.32837e-008
3.33063e-008
3.33232e-008
3.3336e-008
3.33459e-008
3.3357e-008
3.33711e-008
3.3385e-008
3.33981e-008
3.34154e-008
3.34298e-008
3.34394e-008
3.34424e-008
3.34444e-008
3.34542e-008
3.34719e-008
3.34946e-008
3.35105e-008
3.35213e-008
3.35335e-008
3.35479e-008
3.35616e-008
3.35744e-008
3.35869e-008
3.35995e-008
3.36118e-008
3.36232e-008
3.36339e-008
3.36451e-008
3.36566e-008
3.36692e-008
3.36836e-008
3.37009e-008
3.37146e-008
3.37235e-008
3.37301e-008
3.37402e-008
3.37538e-008
3.37672e-008
3.37797e-008
3.3792e-008
3.38031e-008
3.38148e-008
3.38256e-008
3.38369e-008
3.38475e-008
3.38583e-008
3.38689e-008
3.38794e-008
3.38896e-008
3.39e-008
3.39098e-008
3.39201e-008
3.39297e-008
3.39399e-008
3.39485e-008
3.396e-008
3.39665e-008
3.39782e-008
3.39835e-008
3.3993e-008
3.39984e-008
3.40029e-008
3.40115e-008
3.40214e-008
3.40299e-008
3.40337e-008
3.40404e-008
3.40469e-008
3.40564e-008
3.40601e-008
3.40661e-008
3.4077e-008
3.40801e-008
3.40877e-008
3.40959e-008
3.41004e-008
3.41038e-008
3.41113e-008
3.41201e-008
3.41276e-008
3.41302e-008
3.41324e-008
3.41339e-008
3.41375e-008
3.41391e-008
3.4142e-008
3.4143e-008
3.41448e-008
3.41452e-008
3.4145e-008
3.41449e-008
3.41436e-008
3.41419e-008
3.41396e-008
3.41365e-008
3.41317e-008
3.41271e-008
3.41218e-008
3.41165e-008
3.41111e-008
3.41043e-008
3.40977e-008