/*--------------------------------*- C++ -*----------------------------------*\
| =========                 |                                                 |
| \\      /  F ield         | OpenFOAM: The Open Source CFD Toolbox           |
|  \\    /   O peration     | Version:  5.x                                   |
|   \\  /    A nd           | Web:      www.OpenFOAM.org                      |
|    \\/     M anipulation  |                                                 |
\*---------------------------------------------------------------------------*/
/*   Windows 32 and 64 bit porting by blueCAPE: http://www.bluecape.com.pt   *\
|  Based on Windows porting (2.0.x v4) by Symscape: http://www.symscape.com   |
\*---------------------------------------------------------------------------*/
FoamFile
{
    version     2.0;
    format      ascii;
    class       volScalarField;
    location    "350";
    object      nut;
}
// * * * * * * * * * * * * * * * * * * * * * * * * * * * * * * * * * * * * * //

dimensions      [0 2 -1 0 0 0 0];

internalField   nonuniform List<scalar> 
43900
(
5.71601e-005
5.80007e-005
5.80694e-005
5.80643e-005
5.80595e-005
5.80585e-005
5.80589e-005
5.80589e-005
5.80589e-005
5.80592e-005
5.80592e-005
5.80596e-005
5.80597e-005
5.80596e-005
5.80598e-005
5.806e-005
5.80598e-005
5.80597e-005
5.806e-005
5.80601e-005
5.80602e-005
5.80603e-005
5.80603e-005
5.80603e-005
5.806e-005
5.80599e-005
5.80602e-005
5.80606e-005
5.80606e-005
0.000591792
7.39478e-006
4.3079e-006
4.16126e-006
4.57969e-006
4.60594e-006
4.60898e-006
4.60376e-006
4.60367e-006
4.60432e-006
4.60448e-006
4.60524e-006
4.60557e-006
4.60544e-006
4.606e-006
4.60644e-006
4.60593e-006
4.60588e-006
4.60656e-006
4.60671e-006
4.60699e-006
4.60717e-006
4.60723e-006
4.6072e-006
4.60667e-006
4.60662e-006
4.60727e-006
4.60794e-006
4.60798e-006
0.153496
0.0456441
0.0052311
0.000108911
1.3187e-006
6.44589e-007
6.01867e-007
7.14124e-007
7.25147e-007
7.23494e-007
7.21821e-007
7.21898e-007
7.22375e-007
7.22607e-007
7.22779e-007
7.2286e-007
7.22906e-007
7.23112e-007
7.23244e-007
7.2328e-007
7.23396e-007
7.23447e-007
7.23528e-007
7.23616e-007
7.23669e-007
7.23815e-007
7.23954e-007
7.239e-007
7.23878e-007
0.475977
0.291866
0.134094
0.0387391
0.00466411
0.000181242
4.25859e-006
2.57164e-007
1.74169e-007
1.93708e-007
2.13808e-007
2.15511e-007
2.12589e-007
2.11792e-007
2.1229e-007
2.12442e-007
2.12349e-007
2.12423e-007
2.12523e-007
2.12565e-007
2.12596e-007
2.12626e-007
2.12705e-007
2.12751e-007
2.12772e-007
2.12802e-007
2.12819e-007
2.12826e-007
2.12897e-007
0.757103
0.581779
0.41432
0.249336
0.107072
0.0268375
0.00272872
0.000132341
3.11911e-006
2.14892e-007
9.05723e-008
8.35978e-008
1.02253e-007
1.06143e-007
1.0322e-007
1.02747e-007
1.03717e-007
1.03767e-007
1.03464e-007
1.03516e-007
1.03553e-007
1.0354e-007
1.03565e-007
1.0359e-007
1.03595e-007
1.0362e-007
1.0364e-007
1.03671e-007
1.03686e-007
0.966934
0.798902
0.642631
0.490891
0.339055
0.188403
0.0686319
0.0125896
0.00095428
4.79237e-005
1.44613e-006
1.55537e-007
6.38979e-008
6.07507e-008
7.21882e-008
7.24149e-008
6.89244e-008
6.9404e-008
7.06145e-008
7.03187e-008
7.02623e-008
7.04208e-008
7.0473e-008
7.04897e-008
7.05354e-008
7.05617e-008
7.05512e-008
7.05579e-008
7.05728e-008
1.12546
0.96317
0.814888
0.674359
0.536568
0.397529
0.254499
0.11313
0.0293268
0.00327359
0.000201785
1.06406e-005
4.01806e-007
8.36938e-008
4.95984e-008
5.33173e-008
6.25929e-008
5.9282e-008
5.70015e-008
5.82275e-008
5.82818e-008
5.78102e-008
5.77563e-008
5.77457e-008
5.77084e-008
5.77555e-008
5.78239e-008
5.78196e-008
5.78072e-008
1.24379
1.08598
0.943392
0.81047
0.682576
0.555921
0.427803
0.297985
0.162477
0.0533867
0.0083499
0.000628429
3.82824e-005
2.09927e-006
1.36064e-007
5.64485e-008
4.29588e-008
5.09772e-008
5.34165e-008
5.03872e-008
5.0904e-008
5.21382e-008
5.20469e-008
5.20706e-008
5.21009e-008
5.19512e-008
5.18652e-008
5.19532e-008
5.20464e-008
1.33745
1.18357
1.04548
0.918167
0.797402
0.679676
0.562167
0.442767
0.319587
0.192645
0.0723947
0.0138768
0.0012464
8.48945e-005
5.52039e-006
3.33372e-007
7.37286e-008
4.74075e-008
4.60446e-008
5.23812e-008
4.95295e-008
4.81259e-008
4.87714e-008
4.87487e-008
4.87866e-008
4.90604e-008
4.90744e-008
4.88985e-008
4.88367e-008
1.40193
1.25369
1.12081
0.999368
0.88541
0.775611
0.667192
0.55789
0.445921
0.33016
0.210827
0.0856871
0.0185532
0.00190873
0.00014362
1.04119e-005
7.4016e-007
8.4348e-008
5.04399e-008
4.12218e-008
4.72621e-008
4.7822e-008
4.63438e-008
4.68686e-008
4.70594e-008
4.69039e-008
4.69357e-008
4.71373e-008
4.70823e-008
1.44581
1.30048
1.17264
1.05646
0.948588
0.845835
0.745498
0.645316
0.543469
0.438621
0.330048
0.218141
0.0925718
0.0214486
0.00243328
0.000201201
1.60674e-005
1.26451e-006
1.2586e-007
5.83823e-008
4.25899e-008
4.4295e-008
4.69017e-008
4.49436e-008
4.47769e-008
4.5282e-008
4.53214e-008
4.54152e-008
4.56484e-008
1.48447
1.34217
1.21688
1.10421
1.00034
0.902472
0.808025
0.714786
0.620922
0.524993
0.425996
0.323468
0.217929
0.096793
0.0232934
0.00283886
0.000255471
2.2203e-005
1.92627e-006
1.95085e-007
5.85911e-008
4.52926e-008
4.32578e-008
4.69151e-008
4.5951e-008
4.43829e-008
4.44895e-008
4.45122e-008
4.44108e-008
1.51191
1.37312
1.25067
1.14171
1.04169
0.948111
0.858608
0.77108
0.683745
0.595146
0.504162
0.410034
0.312379
0.211111
0.0954539
0.0232732
0.00300049
0.000294635
2.80235e-005
2.68444e-006
2.77995e-007
6.29658e-008
4.74817e-008
4.12384e-008
4.46784e-008
4.57421e-008
4.47543e-008
4.46094e-008
4.4447e-008
1.53045
1.39586
1.27668
1.17019
1.07439
0.984762
0.899668
0.817111
0.735374
0.653021
0.568893
0.482115
0.39208
0.298406
0.200896
0.0888186
0.0214645
0.002901
0.000311844
3.26096e-005
3.43133e-006
3.77545e-007
7.53508e-008
5.1212e-008
4.15166e-008
4.25601e-008
4.52077e-008
4.45028e-008
4.43352e-008
1.54189
1.41096
1.29611
1.19279
1.09933
1.01418
0.933104
0.85498
0.778157
0.701238
0.623069
0.542735
0.459547
0.373028
0.282894
0.189208
0.0789285
0.0186108
0.00262388
0.000308028
3.53485e-005
4.0729e-006
4.87824e-007
9.28199e-008
5.02876e-008
4.32682e-008
4.212e-008
4.45763e-008
4.4564e-008
1.54765
1.42044
1.30902
1.21006
1.11962
1.0369
0.960218
0.886187
0.813815
0.741749
0.668856
0.594214
0.517106
0.437004
0.353558
0.266628
0.176605
0.0704703
0.0161977
0.00238768
0.000304836
3.82339e-005
4.81786e-006
6.30677e-007
1.12453e-007
5.03013e-008
4.42315e-008
4.06153e-008
4.20434e-008
1.54884
1.42542
1.31749
1.22183
1.13573
1.05573
0.981826
0.911944
0.843691
0.776088
0.708021
0.638574
0.567013
0.492776
0.415464
0.334821
0.250721
0.162892
0.0624456
0.0141694
0.0022064
0.000306667
4.20004e-005
5.77385e-006
8.15741e-007
1.40586e-007
5.49074e-008
4.603e-008
4.01345e-008
1.54627
1.42672
1.32231
1.22997
1.14709
1.07146
1.00028
0.933543
0.86894
0.80527
0.741482
0.676669
0.610093
0.54117
0.469459
0.394643
0.316494
0.234775
0.148986
0.0550483
0.0124621
0.00205739
0.000309995
4.60334e-005
6.84588e-006
1.03662e-006
1.81016e-007
6.25952e-008
4.57233e-008
1.54063
1.42502
1.32418
1.23517
1.15549
1.08303
1.0157
0.951934
0.891293
0.831232
0.771293
0.710606
0.648454
0.584253
0.517546
0.447987
0.375314
0.299302
0.219651
0.135611
0.0484958
0.0110652
0.00194241
0.000316316
5.07855e-005
8.14357e-006
1.32293e-006
2.39562e-007
7.16028e-008
1.53247
1.42086
1.32363
1.23794
1.16141
1.09199
1.02788
0.966965
0.908883
0.852657
0.796523
0.739839
0.681908
0.622159
0.560137
0.495486
0.427932
0.357255
0.283231
0.205501
0.123108
0.0429309
0.00998399
0.00186763
0.000327952
5.67676e-005
9.80345e-006
1.70921e-006
3.15633e-007
1.52226
1.41471
1.32113
1.2388
1.16543
1.09907
1.03804
0.980896
0.925802
0.872574
0.819675
0.766469
0.712268
0.656501
0.598708
0.538522
0.475655
0.409879
0.340997
0.26878
0.192815
0.111967
0.0383711
0.00916342
0.00182518
0.000344222
6.39856e-005
1.18616e-005
2.17187e-006
1.51037
1.40693
1.31703
1.23805
1.1678
1.1044
1.04619
0.991759
0.939616
0.889087
0.839614
0.7898
0.739159
0.687146
0.63331
0.577287
0.518785
0.457571
0.393454
0.326252
0.255728
0.181408
0.101997
0.0346302
0.00855391
0.00181376
0.000366744
7.30708e-005
1.41762e-005
1.4971
1.39782
1.31164
1.23603
1.16891
1.10847
1.05317
1.00167
0.952849
0.905311
0.858623
0.811789
0.764308
0.71565
0.665373
0.613116
0.558583
0.501537
0.441786
0.379162
0.313498
0.244566
0.171987
0.0917227
0.0311662
0.0080095
0.00180847
0.000390925
8.13252e-005
1.48269
1.3876
1.30516
1.23293
1.16892
1.11138
1.05883
1.00994
0.963555
0.918524
0.874497
0.830806
0.786554
0.74124
0.694442
0.645813
0.595065
0.541964
0.48632
0.427974
0.366782
0.302596
0.235228
0.16493
0.0822938
0.0281285
0.00753831
0.00180759
0.000407087
1.46731
1.37645
1.29777
1.22894
1.16803
1.1134
1.06361
1.01742
0.973793
0.931844
0.890566
0.849653
0.808041
0.76557
0.721818
0.67643
0.629114
0.579626
0.527768
0.473375
0.416308
0.356441
0.293653
0.227939
0.159759
0.0750801
0.0259602
0.0072626
0.00180029
1.45111
1.3645
1.28961
1.22418
1.16638
1.11463
1.06757
1.02402
0.982978
0.943575
0.904817
0.86631
0.827601
0.788069
0.747335
0.705077
0.661021
0.614935
0.566624
0.515924
0.462697
0.406824
0.348203
0.286774
0.222605
0.156007
0.0718103
0.0251454
0.00713292
1.43419
1.35185
1.28075
1.21873
1.16403
1.11515
1.07077
1.02977
0.991154
0.954071
0.917729
0.881765
0.845722
0.80895
0.77109
0.731823
0.690881
0.648034
0.603089
0.555883
0.506277
0.454151
0.399406
0.341967
0.281803
0.218948
0.153097
0.070461
0.0246369
1.4166
1.33856
1.27126
1.21266
1.16106
1.11503
1.07333
1.03488
0.998761
0.964204
0.93058
0.897096
0.863587
0.829221
0.793921
0.757366
0.719282
0.679437
0.637631
0.593694
0.547482
0.49887
0.447753
0.394046
0.337683
0.27861
0.216671
0.151962
0.0693766
1.39842
1.32467
1.26119
1.206
1.15751
1.11432
1.07527
1.03933
1.00563
0.973439
0.942115
0.910982
0.879665
0.847936
0.815288
0.781442
0.746151
0.709197
0.67039
0.629562
0.586568
0.54128
0.493589
0.443399
0.390631
0.335211
0.277062
0.216
0.150859
1.37967
1.31022
1.25056
1.19879
1.15338
1.11303
1.07661
1.04315
1.01181
0.981887
0.952732
0.92375
0.894857
0.865584
0.835466
0.804226
0.771624
0.737449
0.701515
0.663657
0.623729
0.581602
0.53716
0.490303
0.440941
0.388995
0.334392
0.277006
0.216917
1.36036
1.29521
1.23938
1.19102
1.1487
1.11118
1.07738
1.04639
1.01743
0.989826
0.963034
0.936608
0.909981
0.883062
0.855164
0.826274
0.796144
0.764558
0.731323
0.696268
0.65924
0.620105
0.57874
0.535037
0.488901
0.440243
0.388988
0.33505
0.278286
1.34051
1.27964
1.22762
1.18268
1.14344
1.10874
1.07755
1.04903
1.02241
0.997102
0.972568
0.948387
0.923963
0.899128
0.873646
0.847189
0.819539
0.790496
0.759879
0.727521
0.693272
0.656992
0.618558
0.577854
0.534778
0.489236
0.441145
0.390422
0.33691
1.32008
1.26349
1.21527
1.17373
1.13757
1.10568
1.07711
1.05103
1.02675
1.00368
0.981309
0.959182
0.936851
0.914262
0.891162
0.867113
0.841909
0.815362
0.787299
0.757558
0.72599
0.692457
0.656829
0.618989
0.578828
0.536245
0.491151
0.443456
0.393037
1.29904
1.24669
1.20227
1.16412
1.13103
1.10195
1.07599
1.05237
1.03043
1.00962
0.989481
0.969596
0.949624
0.929299
0.908438
0.886579
0.86366
0.839481
0.81386
0.786632
0.757641
0.726746
0.69381
0.65871
0.62133
0.581562
0.53931
0.494478
0.446963
1.27734
1.2292
1.18854
1.15376
1.12374
1.09748
1.07413
1.05297
1.03338
1.01487
0.996974
0.979352
0.961721
0.943547
0.924854
0.905264
0.884662
0.86285
0.839648
0.814889
0.788419
0.760088
0.729759
0.697299
0.662586
0.625507
0.585955
0.543831
0.499039
1.25491
1.21094
1.174
1.14258
1.11561
1.09215
1.07142
1.05274
1.03552
1.0193
1.00365
0.98823
0.972701
0.956722
0.940204
0.923068
0.90489
0.885506
0.864754
0.842474
0.818511
0.792716
0.764944
0.735059
0.70293
0.668436
0.631463
0.591906
0.549669
1.23169
1.19182
1.15857
1.13047
1.10653
1.08587
1.06777
1.05157
1.03675
1.02285
1.00949
0.996329
0.983063
0.969388
0.955303
0.940469
0.924653
0.90768
0.889383
0.869594
0.848151
0.824895
0.799672
0.772334
0.742741
0.710761
0.676269
0.639156
0.599322
1.20764
1.1718
1.14218
1.11736
1.09642
1.07855
1.06306
1.04936
1.03695
1.02541
1.01438
1.00356
0.992691
0.981584
0.969789
0.957453
0.94395
0.929408
0.913616
0.896381
0.877522
0.856864
0.834238
0.80948
0.782432
0.752945
0.720883
0.686123
0.648561
1.1828
1.1509
1.12483
1.10323
1.08526
1.07015
1.05726
1.04605
1.03606
1.0269
1.01823
1.00976
1.00125
0.992465
0.983065
0.973085
0.962313
0.950456
0.937351
0.922824
0.906692
0.888769
0.868869
0.846804
0.822394
0.795465
0.765855
0.733422
0.69805
1.1573
1.12921
1.10661
1.08817
1.0731
1.06071
1.05041
1.04168
1.0341
1.02731
1.021
1.01491
1.00878
1.00239
0.995442
0.988034
0.979961
0.970842
0.96053
0.948851
0.935612
0.920611
0.903635
0.884468
0.862892
0.838694
0.811674
0.781653
0.748486
1.13139
1.107
1.08776
1.0724
1.06018
1.05046
1.0427
1.03641
1.03121
1.02677
1.0228
1.01905
1.01532
1.01141
1.00721
1.00228
0.996856
0.990378
0.982888
0.974162
0.963977
0.952105
0.938301
0.92231
0.903866
0.882699
0.858551
0.831181
0.80039
1.10557
1.08472
1.06873
1.05636
1.04693
1.03982
1.03454
1.03064
1.02775
1.02557
1.02383
1.02232
1.02084
1.01923
1.01734
1.01482
1.0119
1.00828
1.00372
0.998037
0.99104
0.982487
0.972109
0.959611
0.94467
0.926947
0.906098
0.881792
0.853743
1.08049
1.06304
1.05019
1.04072
1.03399
1.02944
1.02655
1.02493
1.02421
1.02411
1.02439
1.02485
1.02535
1.02574
1.02589
1.02566
1.02496
1.02384
1.02201
1.01928
1.01546
1.01032
1.00355
0.994832
0.983783
0.96998
0.952973
0.932308
0.907568
1.05705
1.04281
1.03298
1.02633
1.02222
1.0201
1.01946
1.01991
1.02109
1.02272
1.0246
1.02657
1.02851
1.03034
1.032
1.03349
1.03453
1.03543
1.03594
1.03587
1.03504
1.03323
1.03012
1.02538
1.01857
1.00917
0.996607
0.980287
0.959605
1.03624
1.02505
1.01809
1.01412
1.01249
1.0126
1.01394
1.01608
1.01866
1.02142
1.02418
1.02683
1.02933
1.03168
1.03389
1.036
1.0379
1.04038
1.04273
1.0448
1.04655
1.04779
1.04823
1.04752
1.04519
1.04062
1.03312
1.02194
1.00623
1.0191
1.01071
1.00645
1.00496
1.00554
1.00753
1.01035
1.01352
1.01667
1.01957
1.02208
1.02418
1.02594
1.02748
1.02886
1.03043
1.03307
1.03578
1.03883
1.04214
1.04581
1.04961
1.05328
1.05649
1.05881
1.05941
1.05748
1.05235
1.0427
1.00641
1.00058
0.998712
0.99936
1.0017
1.00496
1.00845
1.01163
1.01413
1.01574
1.01641
1.01631
1.01555
1.01466
1.0146
1.01525
1.01609
1.01751
1.01996
1.02328
1.02812
1.03384
1.04023
1.04709
1.0541
1.05999
1.06377
1.06587
1.06364
0.998598
0.994964
0.995083
0.997343
1.00076
1.00437
1.00738
1.00917
1.00938
1.00788
1.00473
1.00053
0.996495
0.992408
0.988276
0.984683
0.982331
0.981093
0.981703
0.984413
0.9892
0.995898
1.00434
1.0143
1.02544
1.03696
1.04836
1.05681
1.06191
0.995519
0.99365
0.995185
0.998332
1.00188
1.00467
1.00577
1.00445
1.00051
0.99399
0.986014
0.976734
0.966069
0.955269
0.945066
0.936184
0.92914
0.924402
0.922291
0.922983
0.926613
0.93317
0.942578
0.954698
0.969269
0.985804
1.00366
1.02211
1.0348
0.996461
0.995853
0.998121
1.00128
1.00387
1.00451
1.00218
0.996015
0.986734
0.974093
0.958221
0.940526
0.921991
0.903646
0.886561
0.871506
0.858988
0.84939
0.8431
0.84038
0.841412
0.846297
0.855062
0.867714
0.884169
0.904295
0.927665
0.954406
0.979428
1.00029
1.00041
1.00269
1.00497
1.00551
1.00272
0.995731
0.983916
0.967224
0.946083
0.921728
0.895611
0.868965
0.8429
0.818448
0.796445
0.777498
0.762035
0.750401
0.742858
0.739626
0.740893
0.746763
0.757421
0.773002
0.793906
0.820151
0.852895
0.889887
1.00572
1.00608
1.00772
1.00832
1.00596
0.998978
0.98645
0.96753
0.942965
0.913822
0.881384
0.847217
0.812805
0.779388
0.747986
0.719379
0.694115
0.672568
0.655012
0.641662
0.632722
0.628418
0.628817
0.634259
0.644994
0.66211
0.686291
0.719726
0.764208
1.01157
1.01179
1.01231
1.01074
1.00499
0.993383
0.974757
0.949186
0.917507
0.881099
0.841625
0.800797
0.760156
0.720934
0.68406
0.650186
0.619728
0.592934
0.56995
0.550878
0.535827
0.524963
0.518066
0.515613
0.518158
0.526855
0.542845
0.568052
0.609984
1.017
1.01683
1.016
1.01207
1.00284
0.986593
0.962646
0.931301
0.893762
0.85174
0.807122
0.761701
0.716985
0.674116
0.633885
0.596784
0.563072
0.532851
0.50612
0.482838
0.462959
0.446495
0.433252
0.423185
0.416628
0.41485
0.419092
0.429082
0.458493
1.02153
1.02086
1.01871
1.0125
1.00013
0.980041
0.951814
0.916115
0.874467
0.828823
0.781193
0.73337
0.686779
0.642436
0.60099
0.562792
0.527975
0.496524
0.468335
0.443258
0.421125
0.4018
0.385313
0.371181
0.358508
0.349167
0.342771
0.337085
0.345851
1.025
1.02387
1.02058
1.01256
0.997758
0.974866
0.943726
0.905306
0.861367
0.814005
0.765264
0.716884
0.670184
0.626061
0.585051
0.547406
0.513186
0.482317
0.454654
0.430009
0.408177
0.388978
0.372178
0.358165
0.345318
0.335531
0.324672
0.313833
0.304877
1.02746
1.02598
1.02192
1.01271
0.99643
0.971941
0.939313
0.899728
0.855084
0.807529
0.759083
0.711407
0.665729
0.622854
0.583243
0.547103
0.51446
0.485233
0.45928
0.436433
0.416505
0.399359
0.384746
0.372963
0.362882
0.357726
0.349915
0.350783
0.322717
1.02905
1.02742
1.02307
1.0134
0.996642
0.971752
0.93894
0.899489
0.855342
0.808639
0.761347
0.715064
0.670952
0.629769
0.591945
0.557673
0.526986
0.499819
0.47606
0.45558
0.438243
0.423982
0.412621
0.40457
0.398627
0.39912
0.396751
0.41057
0.369844
1.02999
1.02843
1.02431
1.01496
0.998685
0.974475
0.942559
0.904221
0.861378
0.816132
0.770409
0.725774
0.683367
0.643941
0.607932
0.575551
0.546854
0.521811
0.500346
0.482377
0.467829
0.456707
0.448944
0.44508
0.444115
0.450826
0.455505
0.47784
0.438531
5.80605e-005
5.80602e-005
5.806e-005
5.80604e-005
5.8061e-005
5.80612e-005
5.80609e-005
5.80603e-005
5.80603e-005
5.80609e-005
5.80615e-005
5.80613e-005
5.80606e-005
5.80609e-005
5.80616e-005
5.80614e-005
5.80604e-005
5.80599e-005
5.80607e-005
5.80616e-005
5.80615e-005
5.80601e-005
5.80593e-005
5.80595e-005
5.80607e-005
5.8061e-005
5.80611e-005
5.80615e-005
5.80615e-005
5.80606e-005
5.80596e-005
5.80591e-005
5.80601e-005
5.80609e-005
5.80609e-005
5.80608e-005
5.80608e-005
5.80608e-005
5.80608e-005
5.80608e-005
5.80608e-005
5.80608e-005
5.80608e-005
5.80609e-005
5.80609e-005
5.80609e-005
5.80609e-005
5.80609e-005
5.80609e-005
5.80609e-005
5.80609e-005
5.8061e-005
5.8061e-005
5.8061e-005
5.8061e-005
5.8061e-005
5.80611e-005
5.80611e-005
5.80611e-005
5.80611e-005
5.80612e-005
5.80612e-005
5.80612e-005
5.80612e-005
5.80612e-005
5.80613e-005
5.80613e-005
5.80613e-005
5.80613e-005
5.80613e-005
5.80614e-005
5.80613e-005
5.80615e-005
5.80614e-005
5.80615e-005
5.80614e-005
5.80615e-005
5.80616e-005
5.80616e-005
5.80616e-005
5.80617e-005
5.80619e-005
5.80618e-005
5.80617e-005
5.80616e-005
5.80617e-005
5.80616e-005
5.80615e-005
5.80618e-005
5.80619e-005
5.80618e-005
5.80618e-005
5.80618e-005
5.80618e-005
5.80618e-005
5.80618e-005
5.80618e-005
5.80618e-005
5.80618e-005
5.80619e-005
5.80619e-005
5.80619e-005
5.80619e-005
5.80619e-005
5.80619e-005
5.80619e-005
5.80619e-005
5.80619e-005
5.80619e-005
5.80619e-005
5.80619e-005
5.80619e-005
5.80619e-005
5.80619e-005
5.80619e-005
5.80619e-005
5.80619e-005
5.80619e-005
5.80619e-005
5.80619e-005
5.80619e-005
5.80619e-005
5.80619e-005
5.80619e-005
5.80619e-005
5.8062e-005
5.8062e-005
5.8062e-005
5.8062e-005
5.8062e-005
5.80621e-005
5.80623e-005
5.80622e-005
5.80625e-005
5.80623e-005
5.80627e-005
5.80625e-005
5.80634e-005
5.93211e-005
4.60774e-006
4.60718e-006
4.60706e-006
4.60786e-006
4.60915e-006
4.60936e-006
4.60836e-006
4.60741e-006
4.60769e-006
4.6092e-006
4.61016e-006
4.60927e-006
4.6081e-006
4.60904e-006
4.6104e-006
4.60981e-006
4.60772e-006
4.60673e-006
4.60844e-006
4.60996e-006
4.60938e-006
4.60668e-006
4.60533e-006
4.60607e-006
4.60842e-006
4.60894e-006
4.6092e-006
4.61008e-006
4.60973e-006
4.60766e-006
4.60599e-006
4.60532e-006
4.60768e-006
4.60891e-006
4.60886e-006
4.60881e-006
4.60878e-006
4.60877e-006
4.60876e-006
4.60877e-006
4.60879e-006
4.60882e-006
4.60889e-006
4.60898e-006
4.60905e-006
4.60908e-006
4.60911e-006
4.60912e-006
4.60915e-006
4.60917e-006
4.60921e-006
4.60924e-006
4.60929e-006
4.60935e-006
4.6094e-006
4.60944e-006
4.60953e-006
4.60956e-006
4.60965e-006
4.60968e-006
4.60974e-006
4.6098e-006
4.60983e-006
4.60992e-006
4.60994e-006
4.61003e-006
4.61004e-006
4.61019e-006
4.61014e-006
4.61023e-006
4.6103e-006
4.61023e-006
4.61051e-006
4.61036e-006
4.61055e-006
4.61047e-006
4.61061e-006
4.61075e-006
4.61078e-006
4.61086e-006
4.6111e-006
4.61141e-006
4.61125e-006
4.61101e-006
4.61094e-006
4.61113e-006
4.61081e-006
4.61059e-006
4.61119e-006
4.61139e-006
4.61129e-006
4.61123e-006
4.61123e-006
4.61124e-006
4.61128e-006
4.61129e-006
4.61137e-006
4.61136e-006
4.61141e-006
4.61142e-006
4.61144e-006
4.61146e-006
4.61147e-006
4.61148e-006
4.61147e-006
4.61148e-006
4.61146e-006
4.61147e-006
4.61147e-006
4.61148e-006
4.61148e-006
4.6115e-006
4.61149e-006
4.61151e-006
4.6115e-006
4.61151e-006
4.6115e-006
4.61149e-006
4.61149e-006
4.61148e-006
4.61147e-006
4.61145e-006
4.61144e-006
4.61143e-006
4.61145e-006
4.61147e-006
4.61148e-006
4.61157e-006
4.61151e-006
4.61164e-006
4.6117e-006
4.6121e-006
4.61194e-006
4.61268e-006
4.61222e-006
4.61302e-006
4.61356e-006
4.61773e-006
5.10074e-006
7.23931e-007
7.23983e-007
7.24136e-007
7.24442e-007
7.24487e-007
7.24121e-007
7.23834e-007
7.24035e-007
7.24586e-007
7.24854e-007
7.24515e-007
7.2404e-007
7.24153e-007
7.24769e-007
7.24965e-007
7.24584e-007
7.24104e-007
7.24103e-007
7.24438e-007
7.2432e-007
7.23867e-007
7.23621e-007
7.23838e-007
7.24422e-007
7.2464e-007
7.24609e-007
7.2469e-007
7.24686e-007
7.24235e-007
7.23946e-007
7.2404e-007
7.24447e-007
7.24988e-007
7.24874e-007
7.24878e-007
7.24906e-007
7.2493e-007
7.24949e-007
7.24969e-007
7.24995e-007
7.25025e-007
7.25061e-007
7.25106e-007
7.2515e-007
7.25186e-007
7.25212e-007
7.25233e-007
7.25246e-007
7.25268e-007
7.25291e-007
7.25318e-007
7.25342e-007
7.25372e-007
7.25403e-007
7.25431e-007
7.2546e-007
7.25497e-007
7.25524e-007
7.25561e-007
7.25587e-007
7.2562e-007
7.25651e-007
7.25677e-007
7.25713e-007
7.25739e-007
7.25773e-007
7.25799e-007
7.25836e-007
7.25854e-007
7.25895e-007
7.25924e-007
7.25939e-007
7.26003e-007
7.26001e-007
7.26058e-007
7.2608e-007
7.26081e-007
7.26143e-007
7.26159e-007
7.26083e-007
7.26171e-007
7.26213e-007
7.26234e-007
7.26261e-007
7.26271e-007
7.26264e-007
7.26148e-007
7.26189e-007
7.26251e-007
7.26288e-007
7.26338e-007
7.26347e-007
7.26342e-007
7.26349e-007
7.26367e-007
7.26376e-007
7.26396e-007
7.26392e-007
7.26404e-007
7.26406e-007
7.2641e-007
7.26412e-007
7.26413e-007
7.26414e-007
7.2641e-007
7.26409e-007
7.26396e-007
7.26392e-007
7.26381e-007
7.26373e-007
7.26363e-007
7.26353e-007
7.2634e-007
7.26325e-007
7.26313e-007
7.2629e-007
7.26279e-007
7.26251e-007
7.26235e-007
7.26208e-007
7.26183e-007
7.26149e-007
7.2612e-007
7.2609e-007
7.26066e-007
7.2604e-007
7.26034e-007
7.25984e-007
7.25994e-007
7.26056e-007
7.25907e-007
7.26051e-007
7.26069e-007
7.25969e-007
7.25812e-007
7.30574e-007
7.06305e-007
6.416e-007
1.422e-006
2.12929e-007
2.12945e-007
2.13019e-007
2.13069e-007
2.12988e-007
2.12916e-007
2.13018e-007
2.13227e-007
2.13312e-007
2.13189e-007
2.13017e-007
2.13053e-007
2.13283e-007
2.13453e-007
2.13402e-007
2.13193e-007
2.13113e-007
2.13159e-007
2.1321e-007
2.13191e-007
2.13108e-007
2.13136e-007
2.13201e-007
2.13334e-007
2.13365e-007
2.13424e-007
2.1345e-007
2.13413e-007
2.13318e-007
2.13344e-007
2.13353e-007
2.135e-007
2.13542e-007
2.13561e-007
2.13596e-007
2.13618e-007
2.13637e-007
2.13655e-007
2.13674e-007
2.13696e-007
2.13718e-007
2.13744e-007
2.1377e-007
2.13794e-007
2.13815e-007
2.13835e-007
2.13853e-007
2.13872e-007
2.13893e-007
2.13913e-007
2.13932e-007
2.13952e-007
2.13974e-007
2.13995e-007
2.14017e-007
2.14039e-007
2.14062e-007
2.14084e-007
2.14107e-007
2.14129e-007
2.14151e-007
2.14172e-007
2.14195e-007
2.14215e-007
2.14238e-007
2.14257e-007
2.14281e-007
2.14296e-007
2.1432e-007
2.14339e-007
2.14354e-007
2.14382e-007
2.14396e-007
2.14414e-007
2.14426e-007
2.14451e-007
2.14432e-007
2.14451e-007
2.1447e-007
2.14454e-007
2.14489e-007
2.14486e-007
2.14517e-007
2.14536e-007
2.14579e-007
2.14559e-007
2.14533e-007
2.14548e-007
2.14554e-007
2.14583e-007
2.14621e-007
2.14626e-007
2.14638e-007
2.14656e-007
2.14671e-007
2.14677e-007
2.14682e-007
2.14683e-007
2.14687e-007
2.14689e-007
2.14691e-007
2.14693e-007
2.14694e-007
2.14694e-007
2.14693e-007
2.14692e-007
2.14688e-007
2.14685e-007
2.14679e-007
2.14671e-007
2.14663e-007
2.14652e-007
2.14642e-007
2.14626e-007
2.14618e-007
2.14603e-007
2.14593e-007
2.14575e-007
2.14562e-007
2.14541e-007
2.14522e-007
2.14496e-007
2.14471e-007
2.14443e-007
2.14415e-007
2.14369e-007
2.14338e-007
2.14307e-007
2.14264e-007
2.14194e-007
2.14315e-007
2.1425e-007
2.13755e-007
2.19597e-007
2.16725e-007
1.68733e-007
4.61677e-007
9.93195e-005
0.00758778
1.03696e-007
1.03732e-007
1.03768e-007
1.03767e-007
1.03758e-007
1.03795e-007
1.03868e-007
1.03896e-007
1.03863e-007
1.03822e-007
1.03835e-007
1.03918e-007
1.03981e-007
1.03979e-007
1.03925e-007
1.03862e-007
1.03889e-007
1.03933e-007
1.03977e-007
1.0399e-007
1.03997e-007
1.04016e-007
1.04045e-007
1.04074e-007
1.04106e-007
1.04131e-007
1.04155e-007
1.04156e-007
1.04148e-007
1.04146e-007
1.04159e-007
1.04225e-007
1.04249e-007
1.04284e-007
1.04303e-007
1.04321e-007
1.04338e-007
1.04354e-007
1.04371e-007
1.04388e-007
1.04406e-007
1.04426e-007
1.04443e-007
1.04458e-007
1.04474e-007
1.04493e-007
1.0451e-007
1.04529e-007
1.04544e-007
1.0456e-007
1.0458e-007
1.04601e-007
1.0462e-007
1.04638e-007
1.04655e-007
1.04674e-007
1.04691e-007
1.0471e-007
1.04727e-007
1.04745e-007
1.04763e-007
1.04779e-007
1.04798e-007
1.04812e-007
1.0483e-007
1.04845e-007
1.04863e-007
1.04874e-007
1.04894e-007
1.04906e-007
1.04916e-007
1.0494e-007
1.04944e-007
1.04963e-007
1.04968e-007
1.04985e-007
1.04987e-007
1.04991e-007
1.05005e-007
1.05003e-007
1.05019e-007
1.05024e-007
1.05036e-007
1.05062e-007
1.05081e-007
1.05078e-007
1.05068e-007
1.05084e-007
1.05097e-007
1.05108e-007
1.05129e-007
1.05147e-007
1.05166e-007
1.05176e-007
1.05176e-007
1.05179e-007
1.0518e-007
1.05189e-007
1.05191e-007
1.05197e-007
1.05198e-007
1.05201e-007
1.05201e-007
1.05202e-007
1.05202e-007
1.052e-007
1.052e-007
1.05195e-007
1.05193e-007
1.05184e-007
1.05178e-007
1.05163e-007
1.05154e-007
1.05135e-007
1.05128e-007
1.05112e-007
1.05102e-007
1.05086e-007
1.05075e-007
1.05059e-007
1.05045e-007
1.05025e-007
1.05007e-007
1.04986e-007
1.04967e-007
1.0499e-007
1.05035e-007
1.04845e-007
1.0472e-007
1.05352e-007
1.0438e-007
1.04503e-007
1.08085e-007
7.7208e-008
9.2015e-008
9.31526e-007
0.000126207
0.00767543
0.0786851
7.05982e-008
7.06232e-008
7.06417e-008
7.06496e-008
7.0658e-008
7.06771e-008
7.06993e-008
7.07081e-008
7.07087e-008
7.07214e-008
7.07435e-008
7.07702e-008
7.07932e-008
7.07933e-008
7.07745e-008
7.07819e-008
7.08071e-008
7.08558e-008
7.09082e-008
7.09163e-008
7.09144e-008
7.09137e-008
7.09395e-008
7.09821e-008
7.10227e-008
7.103e-008
7.104e-008
7.10386e-008
7.10278e-008
7.10194e-008
7.10431e-008
7.10968e-008
7.11378e-008
7.11614e-008
7.11729e-008
7.11877e-008
7.12046e-008
7.12216e-008
7.12386e-008
7.1256e-008
7.12733e-008
7.12896e-008
7.13034e-008
7.13159e-008
7.13301e-008
7.13467e-008
7.13619e-008
7.13784e-008
7.13994e-008
7.14237e-008
7.14437e-008
7.14586e-008
7.14736e-008
7.14897e-008
7.15063e-008
7.15235e-008
7.15389e-008
7.15554e-008
7.15705e-008
7.15863e-008
7.16017e-008
7.1616e-008
7.16321e-008
7.16453e-008
7.16608e-008
7.16737e-008
7.16888e-008
7.17009e-008
7.17162e-008
7.17277e-008
7.1739e-008
7.17569e-008
7.17637e-008
7.17823e-008
7.17883e-008
7.18024e-008
7.18123e-008
7.18194e-008
7.18322e-008
7.18433e-008
7.18576e-008
7.18604e-008
7.18676e-008
7.18832e-008
7.18939e-008
7.18961e-008
7.19042e-008
7.1916e-008
7.19164e-008
7.19223e-008
7.19399e-008
7.19526e-008
7.19569e-008
7.19583e-008
7.19658e-008
7.19782e-008
7.19847e-008
7.19935e-008
7.1997e-008
7.20013e-008
7.20051e-008
7.20086e-008
7.20109e-008
7.20127e-008
7.20127e-008
7.20124e-008
7.20114e-008
7.20091e-008
7.20066e-008
7.20011e-008
7.19951e-008
7.19847e-008
7.19766e-008
7.19643e-008
7.19564e-008
7.19451e-008
7.19349e-008
7.19223e-008
7.19118e-008
7.18993e-008
7.18863e-008
7.18695e-008
7.1853e-008
7.18329e-008
7.18011e-008
7.15789e-008
7.13938e-008
7.186e-008
7.18832e-008
7.03539e-008
7.25039e-008
7.28184e-008
6.23273e-008
1.74519e-007
4.86585e-006
0.000324485
0.011077
0.0940015
0.297621
5.78289e-008
5.78687e-008
5.78823e-008
5.78797e-008
5.78873e-008
5.79089e-008
5.79231e-008
5.79351e-008
5.79542e-008
5.79742e-008
5.79893e-008
5.79967e-008
5.80098e-008
5.80086e-008
5.80173e-008
5.80498e-008
5.80921e-008
5.81163e-008
5.81232e-008
5.81352e-008
5.81613e-008
5.81897e-008
5.82061e-008
5.82169e-008
5.82351e-008
5.82593e-008
5.82718e-008
5.82729e-008
5.82783e-008
5.82983e-008
5.83237e-008
5.83502e-008
5.83679e-008
5.83765e-008
5.83967e-008
5.84196e-008
5.84397e-008
5.84578e-008
5.84753e-008
5.84929e-008
5.85094e-008
5.85242e-008
5.85381e-008
5.85536e-008
5.85696e-008
5.85873e-008
5.86095e-008
5.86366e-008
5.86537e-008
5.86614e-008
5.86667e-008
5.8682e-008
5.87026e-008
5.87223e-008
5.87398e-008
5.87569e-008
5.87719e-008
5.87881e-008
5.88027e-008
5.88184e-008
5.88326e-008
5.88477e-008
5.88621e-008
5.88768e-008
5.88907e-008
5.89052e-008
5.89185e-008
5.89332e-008
5.89461e-008
5.89602e-008
5.89722e-008
5.89881e-008
5.89966e-008
5.90134e-008
5.90206e-008
5.90334e-008
5.90399e-008
5.90463e-008
5.90595e-008
5.90727e-008
5.90851e-008
5.90907e-008
5.91011e-008
5.91068e-008
5.91217e-008
5.91287e-008
5.91372e-008
5.91523e-008
5.91572e-008
5.91672e-008
5.91762e-008
5.91808e-008
5.91858e-008
5.91999e-008
5.92127e-008
5.92238e-008
5.92254e-008
5.92283e-008
5.923e-008
5.92355e-008
5.92372e-008
5.92409e-008
5.92422e-008
5.92437e-008
5.92452e-008
5.92437e-008
5.92446e-008
5.92413e-008
5.92388e-008
5.92341e-008
5.92298e-008
5.92215e-008
5.92149e-008
5.92065e-008
5.91986e-008
5.91898e-008
5.91794e-008
5.91695e-008
5.91579e-008
5.9147e-008
5.91337e-008
5.91197e-008
5.91036e-008
5.90896e-008
5.91029e-008
5.95233e-008
5.96764e-008
5.86365e-008
5.88351e-008
6.08473e-008
5.79448e-008
5.68152e-008
2.2451e-007
1.371e-005
0.000725355
0.0184996
0.124182
0.352712
0.611024
5.20323e-008
5.20164e-008
5.20241e-008
5.20443e-008
5.20505e-008
5.20595e-008
5.20967e-008
5.21267e-008
5.21265e-008
5.21089e-008
5.21078e-008
5.2141e-008
5.21847e-008
5.22006e-008
5.21945e-008
5.21799e-008
5.21956e-008
5.2259e-008
5.23048e-008
5.23132e-008
5.23018e-008
5.2314e-008
5.23568e-008
5.24011e-008