/*--------------------------------*- C++ -*----------------------------------*\
| =========                 |                                                 |
| \\      /  F ield         | OpenFOAM: The Open Source CFD Toolbox           |
|  \\    /   O peration     | Version:  5.x                                   |
|   \\  /    A nd           | Web:      www.OpenFOAM.org                      |
|    \\/     M anipulation  |                                                 |
\*---------------------------------------------------------------------------*/
/*   Windows 32 and 64 bit porting by blueCAPE: http://www.bluecape.com.pt   *\
|  Based on Windows porting (2.0.x v4) by Symscape: http://www.symscape.com   |
\*---------------------------------------------------------------------------*/
FoamFile
{
    version     2.0;
    format      ascii;
    class       volScalarField;
    location    "350";
    object      p;
}
// * * * * * * * * * * * * * * * * * * * * * * * * * * * * * * * * * * * * * //

dimensions      [0 2 -2 0 0 0 0];

internalField   nonuniform List<scalar> 
43900
(
0.338096
0.337747
0.337705
0.337578
0.337374
0.337149
0.336944
0.336613
0.336371
0.336046
0.335723
0.335392
0.335045
0.334684
0.334313
0.333935
0.333544
0.333146
0.332741
0.332326
0.331906
0.331478
0.331043
0.330604
0.330158
0.329708
0.329253
0.328792
0.328328
0.336102
0.344187
0.338046
0.341339
0.338825
0.339579
0.338667
0.338487
0.338036
0.337605
0.337202
0.336768
0.336334
0.335905
0.335473
0.335036
0.334597
0.334154
0.333705
0.333256
0.332802
0.332342
0.331881
0.331414
0.330942
0.330467
0.329985
0.329501
0.329014
0.329268
0.351062
0.339967
0.346217
0.341132
0.343702
0.341312
0.34165
0.340557
0.340141
0.33955
0.338985
0.338445
0.337911
0.337381
0.336857
0.336338
0.335821
0.33531
0.3348
0.334287
0.33378
0.333271
0.332759
0.332248
0.331734
0.331219
0.330704
0.330181
0.324469
0.352125
0.3454
0.345193
0.344837
0.344415
0.343327
0.343283
0.34249
0.342113
0.341547
0.341028
0.340504
0.339976
0.339447
0.338919
0.33839
0.337861
0.33733
0.336797
0.336269
0.335737
0.335201
0.33467
0.334135
0.333598
0.333063
0.332523
0.331982
0.327106
0.350938
0.34593
0.345319
0.345296
0.344868
0.344674
0.344442
0.343914
0.343606
0.343175
0.342752
0.342328
0.341886
0.341431
0.340963
0.340488
0.340001
0.339505
0.339004
0.33849
0.33797
0.337449
0.336915
0.336371
0.335825
0.335272
0.334712
0.334148
0.332173
0.350227
0.347198
0.346888
0.346812
0.346401
0.346125
0.345874
0.345653
0.34538
0.345006
0.344658
0.344283
0.343891
0.343486
0.343068
0.342633
0.342183
0.341724
0.341247
0.340757
0.34026
0.339742
0.339213
0.338683
0.338135
0.337571
0.337
0.336419
0.338335
0.352295
0.350478
0.349942
0.349891
0.349746
0.349411
0.348954
0.348628
0.348393
0.348058
0.347694
0.347325
0.346933
0.346526
0.346109
0.345678
0.345232
0.344768
0.344292
0.343804
0.343295
0.342776
0.342246
0.341695
0.341132
0.340562
0.339986
0.339396
0.34527
0.356469
0.355328
0.354714
0.354533
0.354391
0.354174
0.353821
0.353356
0.35291
0.35257
0.352201
0.351786
0.351361
0.350919
0.350462
0.349986
0.349497
0.348993
0.348469
0.347932
0.347381
0.346815
0.346228
0.345628
0.34502
0.344388
0.343736
0.343072
0.353176
0.362145
0.361447
0.360813
0.360531
0.360319
0.360067
0.359757
0.359363
0.358843
0.358322
0.357901
0.357459
0.356972
0.356471
0.355956
0.355426
0.354868
0.354292
0.353709
0.353096
0.352464
0.351821
0.351162
0.350489
0.349791
0.349078
0.348361
0.347624
0.362322
0.369231
0.368827
0.368184
0.36782
0.367538
0.367227
0.366872
0.366471
0.366
0.36542
0.364798
0.364264
0.363727
0.363157
0.36257
0.361968
0.361348
0.360694
0.360015
0.35932
0.358609
0.35788
0.357126
0.356355
0.355573
0.354769
0.353947
0.353102
0.371765
0.37771
0.377417
0.376747
0.376317
0.375971
0.375598
0.37518
0.374717
0.374206
0.373628
0.372953
0.372213
0.37155
0.370892
0.370216
0.369521
0.368799
0.368053
0.367274
0.36648
0.365668
0.364826
0.363964
0.363082
0.362166
0.361234
0.360297
0.359337
0.381849
0.387285
0.387043
0.386339
0.385852
0.385449
0.385018
0.384539
0.38401
0.383429
0.382791
0.382084
0.381292
0.380431
0.379617
0.378818
0.37801
0.37718
0.376315
0.375426
0.374514
0.373557
0.372593
0.371615
0.370575
0.369523
0.368443
0.367331
0.366211
0.393094
0.397837
0.397626
0.396901
0.396363
0.395904
0.395418
0.394881
0.39429
0.393642
0.392931
0.392154
0.391299
0.390353
0.389337
0.388357
0.387394
0.386421
0.385409
0.384374
0.383308
0.382222
0.381099
0.379925
0.378751
0.377538
0.376299
0.375061
0.373766
0.405073
0.409303
0.409095
0.408343
0.407753
0.407237
0.406693
0.406093
0.405436
0.404715
0.403925
0.403061
0.402119
0.401088
0.399957
0.39876
0.397594
0.396441
0.395279
0.394071
0.392844
0.391588
0.390294
0.388978
0.387604
0.386219
0.384801
0.383337
0.381871
0.417752
0.421613
0.421393
0.420608
0.419967
0.419395
0.418791
0.418128
0.417402
0.416607
0.415735
0.414781
0.413742
0.412613
0.411384
0.410047
0.408649
0.40727
0.405908
0.404526
0.403092
0.401635
0.400144
0.398604
0.397035
0.395416
0.393772
0.39211
0.390363
0.431037
0.434646
0.434405
0.433583
0.43289
0.432261
0.431597
0.430869
0.43007
0.429196
0.428237
0.427187
0.426042
0.424796
0.423448
0.421988
0.420413
0.41877
0.417132
0.415503
0.413842
0.41213
0.41039
0.408596
0.406776
0.404922
0.403014
0.401091
0.399143
0.444834
0.448288
0.448021
0.447157
0.446413
0.445727
0.445001
0.444206
0.443333
0.442376
0.441326
0.440175
0.438918
0.437549
0.436067
0.434465
0.432736
0.430881
0.428961
0.427034
0.425119
0.42317
0.421177
0.41917
0.417088
0.414957
0.412828
0.410644
0.408414
0.459059
0.462431
0.462138
0.461231
0.460437
0.459697
0.458912
0.458051
0.457107
0.456071
0.454934
0.453688
0.452324
0.450839
0.449229
0.447491
0.44562
0.44361
0.441472
0.43927
0.437059
0.434853
0.432607
0.43031
0.427977
0.425564
0.423096
0.420617
0.41806
0.473599
0.476948
0.476631
0.47568
0.474836
0.474043
0.473199
0.472273
0.471256
0.470138
0.468909
0.467562
0.466087
0.46448
0.462735
0.460849
0.45882
0.456644
0.454314
0.451849
0.4493
0.446737
0.444166
0.441523
0.438819
0.436095
0.433301
0.430462
0.42759
0.48833
0.491712
0.491372
0.490373
0.489479
0.488632
0.487728
0.486731
0.485636
0.484432
0.483108
0.481652
0.480058
0.478317
0.476423
0.474374
0.472165
0.469796
0.467259
0.464552
0.461689
0.458748
0.455787
0.452799
0.449748
0.446659
0.443539
0.440348
0.437111
0.503152
0.506612
0.506252
0.505206
0.504263
0.503364
0.502403
0.501342
0.500172
0.498882
0.497461
0.495897
0.494183
0.492309
0.49027
0.488061
0.485678
0.483118
0.480381
0.477461
0.474354
0.471094
0.467749
0.464362
0.460954
0.457477
0.453941
0.450333
0.446639
0.517961
0.521538
0.52116
0.520067
0.519076
0.518126
0.517105
0.515976
0.514727
0.51335
0.511832
0.510162
0.508327
0.50632
0.504134
0.501763
0.499204
0.496453
0.49351
0.490372
0.487037
0.483502
0.479801
0.475986
0.472109
0.468186
0.464171
0.4601
0.456018
0.532649
0.536377
0.535985
0.534843
0.533804
0.532804
0.531725
0.530529
0.529205
0.52774
0.52612
0.524334
0.522371
0.520222
0.517881
0.51534
0.512595
0.509642
0.506479
0.503106
0.499523
0.495726
0.491707
0.487503
0.483185
0.478789
0.474347
0.469844
0.465289
0.547134
0.551041
0.550638
0.549448
0.548362
0.547312
0.546174
0.544908
0.5435
0.541939
0.540213
0.53831
0.536217
0.533923
0.53142
0.528702
0.525764
0.522601
0.519212
0.515596
0.511755
0.507689
0.503395
0.498862
0.494132
0.489274
0.484324
0.479312
0.474209
0.561323
0.565435
0.565021
0.563782
0.562649
0.561547
0.560348
0.559008
0.557518
0.555863
0.554029
0.552001
0.549767
0.547316
0.544641
0.541734
0.538589
0.535203
0.531573
0.527697
0.523577
0.519215
0.514614
0.509772
0.504672
0.499361
0.493895
0.48832
0.482678
0.57515
0.57949
0.579066
0.577779
0.5766
0.575447
0.574185
0.572771
0.571192
0.569434
0.56748
0.565316
0.562931
0.560313
0.557453
0.554343
0.550977
0.547351
0.543461
0.539306
0.534888
0.530208
0.52527
0.52008
0.514634
0.508933
0.503007
0.496908
0.490686
0.588549
0.593137
0.592705
0.591369
0.590143
0.588938
0.587611
0.586119
0.584446
0.582578
0.580499
0.578194
0.57565
0.572855
0.569796
0.566468
0.562863
0.558976
0.554807
0.550352
0.545613
0.540593
0.535296
0.529729
0.523899
0.517808
0.511457
0.504883
0.498086
0.601465
0.606319
0.605879
0.604494
0.603222
0.601963
0.600569
0.598994
0.597223
0.595242
0.593032
0.590577
0.587861
0.584872
0.5816
0.578035
0.574172
0.570005
0.565531
0.56075
0.555663
0.550272
0.544584
0.538605
0.532345
0.525811
0.519011
0.511958
0.504664
0.613854
0.61899
0.618543
0.61711
0.615793
0.614482
0.61302
0.611361
0.609489
0.607388
0.605037
0.60242
0.599519
0.596323
0.592821
0.589002
0.584859
0.580386
0.575582
0.570444
0.564975
0.559179
0.553062
0.546632
0.5399
0.532879
0.525579
0.518011
0.510219
0.625677
0.63111
0.630655
0.629176
0.627815
0.626451
0.624921
0.623175
0.621198
0.618971
0.616473
0.613685
0.610592
0.607179
0.603432
0.59934
0.594894
0.590091
0.584926
0.579399
0.573512
0.567271
0.560683
0.553759
0.546511
0.538956
0.531111
0.522992
0.514616
0.636904
0.642644
0.642182
0.640657
0.639256
0.637841
0.636241
0.634407
0.632321
0.629965
0.627315
0.624352
0.621057
0.617412
0.613403
0.609017
0.604248
0.599087
0.593532
0.587581
0.581238
0.574509
0.567402
0.559931
0.55211
0.54396
0.535502
0.52676
0.517754
0.647514
0.653568
0.653097
0.651531
0.650092
0.648628
0.646961
0.645039
0.642846
0.640358
0.637554
0.634408
0.630898
0.627008
0.622722
0.618027
0.612912
0.607368
0.601391
0.594981
0.58814
0.580874
0.573196
0.565119
0.556662
0.547847
0.538702
0.529254
0.519536
0.657489
0.663861
0.66338
0.661776
0.660304
0.658795
0.657062
0.655055
0.652754
0.650135
0.647171
0.643837
0.640108
0.635967
0.631394
0.626373
0.62089
0.614937
0.608507
0.6016
0.594217
0.586367
0.578061
0.569317
0.560156
0.550604
0.540694
0.53046
0.519941
0.666822
0.673508
0.673015
0.671378
0.669879
0.668328
0.666534
0.664443
0.662035
0.659283
0.65616
0.652635
0.648685
0.644285
0.639414
0.634052
0.628183
0.621796
0.614884
0.607444
0.599478
0.590993
0.582002
0.572526
0.56259
0.552225
0.541468
0.530363
0.518956
0.675509
0.682502
0.681995
0.680332
0.678812
0.677224
0.675371
0.6732
0.670689
0.667809
0.664527
0.660813
0.656637
0.651971
0.646791
0.641073
0.634801
0.627959
0.620537
0.612528
0.603935
0.594764
0.585029
0.574754
0.563966
0.552704
0.541012
0.528941
0.516551
0.683554
0.690843
0.69032
0.688637
0.687102
0.685484
0.683577
0.681331
0.678721
0.675716
0.672278
0.668375
0.663971
0.659035
0.65354
0.647459
0.640769
0.63345
0.625489
0.616876
0.607611
0.5977
0.587159
0.57601
0.564289
0.552039
0.539314
0.526175
0.512693
0.690962
0.698537
0.697993
0.696298
0.694757
0.693113
0.691158
0.688842
0.686137
0.683009
0.679419
0.675327
0.670695
0.66549
0.659676
0.653224
0.646103
0.638287
0.62976
0.620508
0.610528
0.599823
0.588408
0.576309
0.563565
0.550228
0.53636
0.522038
0.507349
0.697744
0.705596
0.705028
0.703328
0.701789
0.700124
0.698127
0.695745
0.692951
0.689705
0.685965
0.681688
0.676832
0.671356
0.665221
0.658387
0.650822
0.642493
0.633376
0.623453
0.612713
0.601157
0.588798
0.575665
0.5618
0.547264
0.532134
0.516501
0.500472
0.703911
0.712039
0.711443
0.709746
0.708215
0.706536
0.7045
0.702059
0.699181
0.695823
0.691938
0.687481
0.682403
0.676658
0.670198
0.66298
0.654962
0.646106
0.636376
0.625747
0.614202
0.601735
0.588358
0.574098
0.559002
0.543142
0.52661
0.509519
0.492003
0.709475
0.717891
0.71726
0.715573
0.714058
0.712369
0.7103
0.707804
0.704847
0.701381
0.697358
0.692724
0.687428
0.681416
0.674635
0.667033
0.658559
0.649163
0.638801
0.627436
0.61504
0.601602
0.587125
0.571635
0.555186
0.537857
0.519761
0.50104
0.48186
0.714446
0.723183
0.722507
0.720834
0.719341
0.717647
0.715549
0.713003
0.709971
0.706404
0.702246
0.697442
0.691934
0.685662
0.678565
0.670583
0.661651
0.65171
0.640701
0.628575
0.61529
0.600819
0.585158
0.568329
0.550384
0.531419
0.511567
0.491007
0.469953
0.718836
0.727946
0.727211
0.725556
0.724088
0.722392
0.720269
0.717677
0.714577
0.710914
0.70663
0.701664
0.695953
0.689433
0.682031
0.673677
0.664296
0.653813
0.642156
0.629252
0.615043
0.599484
0.582555
0.564265
0.54467
0.523872
0.502035
0.479383
0.456194
0.722659
0.732214
0.731397
0.72976
0.728322
0.726626
0.724481
0.721849
0.718686
0.714934
0.710533
0.705418
0.69952
0.692767
0.68508
0.676376
0.666567
0.655562
0.643265
0.629583
0.614431
0.597739
0.579461
0.559591
0.538174
0.515322
0.491227
0.466172
0.440522
0.725935
0.736016
0.735087
0.733468
0.732062
0.730368
0.728205
0.725538
0.722321
0.718493
0.713989
0.708742
0.70268
0.695722
0.687783
0.678765
0.668567
0.657075
0.64417
0.62973
0.613637
0.595787
0.576098
0.554533
0.531117
0.505961
0.479288
0.45145
0.422931
0.728695
0.739375
0.738297
0.736699
0.735327
0.733638
0.731464
0.728772
0.725513
0.721624
0.71704
0.711691
0.7055
0.698382
0.69024
0.680964
0.670434
0.658516
0.64506
0.629909
0.612908
0.593905
0.572769
0.549413
0.523825
0.496099
0.466477
0.435394
0.403487
0.730986
0.742307
0.741043
0.739471
0.738141
0.736462
0.734287
0.731585
0.728305
0.724383
0.719754
0.714345
0.708078
0.700858
0.692578
0.68312
0.672343
0.660087
0.646168
0.630392
0.612555
0.592447
0.569867
0.544657
0.516743
0.486171
0.453191
0.418309
0.382359
0.732868
0.744827
0.74334
0.741813
0.740531
0.738874
0.736715
0.734027
0.730758
0.726843
0.722217
0.716807
0.710527
0.70328
0.694954
0.685414
0.674499
0.662021
0.647766
0.631494
0.612941
0.591825
0.567859
0.540786
0.510425
0.476732
0.439954
0.400639
0.359837
0.734409
0.746949
0.745217
0.743761
0.742541
0.740922
0.738805
0.736165
0.732948
0.729091
0.724528
0.719187
0.712981
0.70581
0.697548
0.688049
0.67713
0.664578
0.650141
0.633534
0.61443
0.59246
0.567234
0.53836
0.50551
0.468469
0.427418
0.382885
0.336298
0.73568
0.748699
0.746712
0.745364
0.744221
0.742664
0.740622
0.73807
0.734954
0.731214
0.726787
0.721602
0.715572
0.708586
0.700512
0.691187
0.680407
0.667936
0.653491
0.63674
0.61729
0.594683
0.568408
0.537899
0.502635
0.46212
0.41638
0.365668
0.312139
0.736743
0.750117
0.747876
0.746679
0.74563
0.744161
0.742228
0.739805
0.736842
0.733282
0.729067
0.724121
0.718355
0.711652
0.703868
0.694829
0.684321
0.672085
0.657812
0.641127
0.621576
0.59861
0.571588
0.539737
0.502301
0.458349
0.407693
0.349798
0.287883
0.737646
0.75125
0.748767
0.747763
0.74682
0.745462
0.743669
0.741412
0.738645
0.735314
0.731358
0.726703
0.721251
0.714884
0.707454
0.698782
0.688644
0.676768
0.662826
0.646406
0.627007
0.603992
0.576601
0.543827
0.504669
0.457569
0.402078
0.336102
0.264218
0.738422
0.752155
0.74944
0.748664
0.747831
0.746602
0.744968
0.742898
0.740346
0.737258
0.733571
0.729211
0.724078
0.718054
0.710991
0.702706
0.692973
0.681517
0.667993
0.651973
0.632919
0.610126
0.582742
0.549519
0.509235
0.459526
0.399709
0.325047
0.241705
0.739093
0.75289
0.74995
0.749425
0.748698
0.747603
0.746131
0.744244
0.741896
0.739032
0.735588
0.731489
0.726636
0.72091
0.714165
0.706218
0.696848
0.685776
0.672658
0.657054
0.638407
0.615961
0.588806
0.555474
0.514592
0.462854
0.399432
0.315902
0.219807
0.739673
0.753506
0.750347
0.750082
0.749446
0.74848
0.747154
0.745428
0.743251
0.740569
0.737317
0.733415
0.728768
0.723256
0.716735
0.709026
0.69991
0.68911
0.676283
0.660983
0.642641
0.620462
0.593494
0.560069
0.518755
0.465213
0.39855
0.305946
0.195288
0.740098
0.753977
0.750602
0.750588
0.750019
0.749161
0.747951
0.746346
0.744294
0.741738
0.738611
0.734832
0.730306
0.724914
0.718512
0.710924
0.70193
0.691255
0.678553
0.663368
0.645121
0.622971
0.595934
0.562114
0.520086
0.464347
0.393979
0.2905
0.16076
0.740137
0.754082
0.75049
0.750688
0.750145
0.74935
0.748198
0.746651
0.744655
0.742154
0.739078
0.735348
0.730864
0.725509
0.719137
0.71157
0.702587
0.691906
0.679175
0.663923
0.645553
0.623167
0.595746
0.561137
0.517933
0.459268
0.384332
0.265539
0.110388
0.739892
0.753859
0.750059
0.750405
0.749845
0.749052
0.747886
0.746317
0.744294
0.741762
0.738655
0.734894
0.730377
0.724986
0.71857
0.710949
0.701893
0.691116
0.67825
0.662808
0.644164
0.621362
0.593338
0.557681
0.513016
0.45104
0.371497
0.234414
0.0468225
0.741754
0.755637
0.751804
0.752269
0.751779
0.751072
0.749985
0.748475
0.746484
0.743952
0.740815
0.736994
0.732395
0.726902
0.720369
0.712616
0.703414
0.692471
0.679412
0.663734
0.644791
0.62158
0.592988
0.55643
0.510485
0.446023
0.363842
0.217988
0.00746901
0.751178
0.765318
0.761929
0.762712
0.7628
0.762799
0.762519
0.761842
0.760633
0.758777
0.756176
0.752746
0.748403
0.743049
0.736565
0.728792
0.719524
0.708489
0.695327
0.679551
0.660525
0.637274
0.608637
0.572245
0.525862
0.462522
0.380464
0.265708
0.1792
0.327775
0.327131
0.326482
0.325825
0.325161
0.324491
0.323815
0.323133
0.322445
0.321751
0.321051
0.320345
0.319633
0.318916
0.318194
0.317463
0.31673
0.315993
0.315251
0.314503
0.313749
0.312997
0.312243
0.311485
0.310727
0.309969
0.309205
0.308438
0.307672
0.306906
0.30614
0.305377
0.304611
0.303843
0.303076
0.302309
0.301545
0.300782
0.300021
0.299261
0.298504
0.297749
0.296996
0.296246
0.295499
0.294756
0.294016
0.293279
0.292546
0.291817
0.291092
0.290372
0.289656
0.288944
0.288238
0.287537
0.286841
0.28615
0.285465
0.284787
0.284114
0.283447
0.282787
0.282134
0.281488
0.280848
0.280216
0.279591
0.278974
0.278364
0.277762
0.277169
0.276583
0.276007
0.275439
0.27488
0.27433
0.27379
0.273257
0.272738
0.272229
0.271726
0.271233
0.270751
0.270278
0.269813
0.26936
0.268919
0.268486
0.268063
0.26765
0.267248
0.266856
0.266476
0.266107
0.265748
0.265401
0.265064
0.264739
0.264425
0.264122
0.263829
0.263548
0.263278
0.26302
0.262772
0.262535
0.26231
0.262096
0.261893
0.261701
0.26152
0.261351
0.261192
0.261043
0.260905
0.260777
0.260659
0.26055
0.26045
0.260359
0.260277
0.260203
0.260136
0.260079
0.260028
0.259985
0.25995
0.259921
0.259901
0.259888
0.259881
0.259884
0.259888
0.259915
0.25993
0.259992
0.260003
0.260159
0.328433
0.327758
0.327075
0.326384
0.325688
0.324985
0.324275
0.323561
0.322842
0.322113
0.32138
0.320645
0.319906
0.319162
0.318414
0.317666
0.316914
0.316158
0.315397
0.314641
0.313884
0.313121
0.312349
0.311575
0.310797
0.310026
0.309274
0.308519
0.307748
0.306972
0.306188
0.305398
0.304613
0.303831
0.30305
0.302276
0.301501
0.300726
0.29995
0.299174
0.298399
0.297625
0.296853
0.296084
0.295318
0.294556
0.293797
0.29304
0.292287
0.291537
0.290791
0.290049
0.289312
0.288579
0.287852
0.28713
0.286413
0.285702
0.284997
0.284298
0.283606
0.28292
0.28224
0.281567
0.280902
0.280243
0.279592
0.278949
0.278314
0.277686
0.277066
0.276455
0.275852
0.27526
0.274677
0.274103
0.273541
0.272991
0.272449
0.271909
0.271375
0.270861
0.270359
0.269857
0.269364
0.268885
0.268411
0.267941
0.267485
0.267044
0.266621
0.266206
0.265801
0.265411
0.265033
0.264666
0.264311
0.263967
0.263635
0.263315
0.263006
0.26271
0.262426
0.262154
0.261895
0.261647
0.261412
0.261189
0.260979
0.260781
0.260595
0.26042
0.260257
0.260106
0.259965
0.259836
0.259716
0.259606
0.259506
0.259416
0.259335
0.259264
0.259202
0.25915
0.259107
0.259074
0.259046
0.259027
0.259014
0.258998
0.258997
0.258978
0.258995
0.258952
0.259003
0.258939
0.25899
0.258917
0.258877
0.329566
0.328852
0.32813
0.327407
0.326677
0.325941
0.325203
0.324457
0.323705
0.322953
0.322199
0.321438
0.320674
0.319906
0.319132
0.318353
0.317572
0.316804
0.316034
0.315237
0.314435
0.313632
0.312838
0.312043
0.311236
0.310412
0.309571
0.30873
0.307908
0.307089
0.306268
0.305477
0.304678
0.303848
0.303026
0.302206
0.301389
0.300573
0.299759
0.298947
0.298137
0.29733
0.296525
0.295721
0.294915
0.29411
0.293307
0.292507
0.291711
0.290919
0.290132
0.28935
0.288574
0.287803
0.287037
0.286277
0.285523
0.284774
0.284033
0.283297
0.28257
0.281849
0.281136
0.280432
0.279735
0.279047
0.278368
0.277697
0.277036
0.276383
0.27574
0.275107
0.274481
0.273864
0.273255
0.272653
0.272057
0.271463
0.270882
0.270313
0.269754
0.269203
0.268658
0.268131
0.267617
0.267113
0.266622
0.266142
0.265674
0.265218
0.264769
0.264334
0.263913
0.263501
0.263101
0.262717
0.26235
0.261995
0.261654
0.261327
0.261012
0.260712
0.260425
0.260152
0.259893
0.259647
0.259415
0.259195
0.258989
0.258796
0.258615
0.258448
0.258294
0.258153
0.258025
0.257909
0.257805
0.257715
0.257637
0.257572
0.257519
0.257479
0.257452
0.257435
0.257431
0.257435
0.257453
0.257479
0.257527
0.257577
0.25765
0.257703
0.257783
0.257873
0.25789
0.258082
0.257936
0.258377
0.257964
0.331348
0.330607
0.329862
0.329116
0.328362
0.3276
0.32683
0.326057
0.325275
0.324486
0.323686
0.322879
0.32206
0.321237
0.320412
0.319582
0.318741
0.317873
0.317005
0.316153
0.315298
0.314441
0.31357
0.312691
0.311825
0.310964
0.310094
0.309225
0.308348
0.307468
0.306598
0.305699
0.3048
0.303926
0.303047
0.302155
0.301263
0.300376
0.299493
0.298614
0.297737
0.296864
0.295994
0.295127
0.294265
0.293406
0.292549
0.291693
0.290835
0.289978
0.289132
0.288298
0.287468
0.286644
0.285825
0.285013
0.284207
0.283408
0.282616
0.281831
0.281053
0.280282
0.279519
0.278764
0.278017
0.277279
0.276548
0.275827
0.275114
0.274409
0.273714
0.273026
0.272347
0.271674
0.271007
0.270347
0.269689
0.269045
0.268416
0.267803
0.267208
0.266622
0.266053
0.265504
0.264969
0.264452
0.263948
0.263461
0.262991
0.262528
0.262075
0.261634
0.261203
0.260782
0.260374
0.259973
0.259578
0.259203
0.258844
0.258503
0.258179
0.25787
0.257577
0.257299
0.257036
0.256787
0.256553
0.256333
0.256127
0.255934
0.255756
0.255592
0.255441
0.255304
0.255178
0.255069
0.25498
0.25491
0.254859
0.254827
0.254816
0.254825
0.254854
0.254904
0.254973
0.255067
0.255173
0.2553
0.25545
0.255603
0.255766
0.256081
0.256034
0.256752
0.256059
0.257819
0.255976
0.259153
0.255488
0.333468
0.332679
0.331884
0.331072
0.330246
0.329426
0.328601
0.327748
0.326883
0.326016
0.325141
0.324296
0.32345
0.322561
0.321655
0.320744
0.319842
0.31894
0.318025
0.317102
0.316171
0.315234
0.314296
0.313362
0.312412
0.311456
0.310524
0.309605
0.308676
0.307716
0.306737
0.305758
0.304779
0.303809
0.302844
0.30189
0.300944
0.299998
0.299049
0.298099
0.297149
0.296202
0.295257
0.294314
0.293377
0.292447
0.291525
0.290596
0.289661
0.288737
0.287813
0.286891
0.285982
0.285084
0.284197
0.283316
0.282443
0.281576
0.280716
0.279865
0.27902
0.278183
0.277354
0.276533
0.275721
0.274917
0.274123
0.273337
0.272562
0.271798
0.271044
0.270301
0.269571
0.268855
0.268156
0.267477
0.266815
0.266167
0.265533
0.264905
0.264274
0.263657
0.263053
0.262449
0.261857
0.261274
0.260704
0.260149
0.259605
0.259074
0.258566
0.258072
0.257599
0.257151
0.256717
0.256309
0.255924
0.25555
0.255191
0.254843
0.254509
0.254188
0.253882
0.25359
0.253312
0.253051
0.252803
0.252573
0.252357
0.25216
0.251978
0.251816
0.251673
0.251552
0.251454
0.251381
0.251327
0.251295
0.251285
0.251297
0.251329
0.251386
0.251465
0.251567
0.251693
0.25184
0.252038
0.252234
0.252475
0.25287
0.252889
0.253859
0.253106
0.255683
0.252921
0.258767
0.251752
0.263686
0.247274
0.335729
0.334922
0.334088
0.33324
0.33239
0.331515
0.330619
0.32973
0.328835
0.327924
0.32701
0.326042
0.325056
0.324099
0.323148
0.322207
0.321236
0.320234
0.319222
0.318208
0.317208
0.316196
0.315161
0.314117
0.313071
0.312027
0.310977
0.309922
0.308866
0.307823
0.306779
0.305729
0.304676
0.303616
0.302564
0.301525
0.300487
0.299443
0.2984
0.297359
0.296319
0.29528
0.294243
0.293206
0.292167
0.291127
0.290092
0.289064
0.288037
0.287016
0.286001
0.284989
0.28401
0.283061
0.282112
0.281163
0.280218
0.279277
0.278344
0.277418
0.276501
0.275592
0.274694
0.273806
0.272928
0.272061
0.271207
0.270363
0.269529
0.26871
0.267897
0.267101
0.266315
0.265539
0.264776
0.264024
0.263286
0.262541
0.261799
0.261085
0.260401
0.259731
0.259075
0.258448
0.257842
0.257251
0.256678
0.256115
0.255566
0.25504
0.254517
0.254008
0.253515
0.253025
0.252567
0.252119
0.251666
0.251232
0.250813
0.250423
0.25005
0.249694
0.249354
0.24903
0.248726
0.248436
0.248166
0.247917
0.247691
0.247486
0.247305
0.247146
0.247011
0.246897
0.246807
0.246737
0.24669
0.246662
0.24666
0.24668
0.246728
0.246798
0.246901
0.247037
0.247207
0.247407
0.247655
0.247996
0.248132
0.248944
0.248544
0.250451
0.248744
0.252527
0.248663
0.254953
0.246919
0.261331
0.23113
0.338674
0.337814
0.336945
0.336063
0.335148
0.334205
0.333257
0.332296
0.331306
0.330302
0.329275
0.328242
0.327229
0.326186
0.32511
0.324
0.322881
0.321814
0.320747
0.319631
0.318492
0.317359
0.316238
0.315114
0.313979
0.312829
0.311653
0.310466
0.309296
0.308138
0.306966
0.305793
0.304629
0.303458
0.302289
0.301131
0.299971
0.29881
0.297653
0.296498
0.295345
0.294194
0.293048
0.291908
0.290778
0.289645
0.288514
0.287404
0.286309
0.285223
0.284143
0.283075
0.28198
0.280874
0.279792
0.278728
0.277678
0.276641
0.275616
0.274602
0.273602
0.272613
0.271636
0.27067
0.269717
0.268773
0.267841
0.266918
0.266009
0.265113
0.264229
0.263353
0.262489
0.261645
0.260814
0.259997
0.259197
0.258435
0.257689
0.256948
0.256222
0.255509
0.254809
0.254107
0.253425
0.252765
0.252111
0.25148
0.250879
0.250283
0.249713
0.249168
0.248635
0.248128
0.247628
0.247139
0.246679
0.246241
0.245812
0.245395
0.244989
0.244605
0.244237
0.243886
0.243557
0.243245
0.242957
0.242686
0.242437
0.242208
0.242
0.241813
0.241648
0.241503
0.241382
0.241282
0.241207
0.241157
0.241131
0.241135
0.241167
0.241229
0.241317
0.241436
0.241593
0.241768
0.241915
0.242291
0.242201
0.242995
0.242436
0.243786
0.242763
0.244412
0.243529
0.244562
0.243663
0.251008
0.218589
0.34229
0.341377
0.340419
0.339422
0.338418
0.337402
0.336354
0.335278
0.334203
0.333125
0.332004
0.33086
0.329678
0.328489
0.327336
0.326186
0.324984
0.323735
0.322482
0.321248
0.320017
0.318771
0.317502
0.316221
0.314942
0.313674
0.312432
0.31118
0.309908
0.308623
0.30734
0.306065
0.304787
0.303514
0.302224
0.3009
0.299571
0.298261
0.296962
0.295671
0.294388
0.293114
0.291849
0.290589
0.289328
0.288079
0.286835
0.285594
0.284377
0.283169
0.281969
0.280778
0.279587
0.2784
0.277224
0.276063
0.274912
0.273773
0.272648
0.271537
0.270439
0.269355
0.26828
0.267219
0.266167
0.265129
0.2641
0.263083
0.262079
0.261088
0.260119
0.259172
0.258244
0.257337
0.256451
0.255584
0.254735
0.253902
0.253075
0.252267
0.251492
0.250717
0.249952
0.249213
0.248488
0.247772
0.247077
0.246391
0.245715
0.245066
0.244429
0.243798
0.243189
0.242606
0.242033
0.24148
0.240955
0.24045
0.239971
0.239505
0.239067
0.238647
0.238252
0.237881
0.237525
0.237201
0.236889
0.236602
0.236334
0.236086
0.235855
0.235649
0.23546
0.235296
0.23515
0.235031
0.234931
0.234856
0.234804
0.23477
0.234758
0.234763
0.234781
0.234808
0.234844
0.23493
0.23488
0.235125
0.234936
0.235357
0.235072
0.235587
0.235372
0.235617
0.236231
0.235779
0.235887
0.242864
0.213068
0.346719
0.345649
0.344578
0.343493
0.342368
0.341213
0.340044
0.338866
0.337644
0.336391
0.335136
0.3339
0.332657
0.33135
0.329995
0.328622
0.327264
0.325936
0.324591
0.323196
0.321784
0.320362
0.318965
0.317589
0.31617
0.314715
0.313253
0.311798
0.310335
0.308864
0.307406
0.305946
0.304483
0.303055
0.301653
0.300242
0.298832
0.297421
0.296
0.294577
0.293159
0.291746
0.290339
0.288942
0.287557
0.286173
0.284783
0.283406
0.282042
0.280691
0.279354
0.278026
0.276728
0.275436
0.274162
0.272906
0.271658
0.270421
0.269196
0.267981
0.266778
0.265586
0.264415
0.263257
0.262118
0.260999
0.259898
0.258815
0.257746
0.256694
0.255659
0.254635
0.253621
0.25262
0.251637
0.250667
0.249708
0.248781
0.247873
0.246982
0.24611
0.245272
0.244454
0.243643
0.242861
0.242112
0.241376
0.240654
0.239965
0.239293
0.238631
0.23799
0.237372
0.236757
0.236151
0.235571
0.235006
0.234457
0.233916
0.233398
0.232898
0.232422
0.231964
0.231526
0.231114
0.230713
0.230345
0.22999
0.229662
0.229352
0.229067
0.2288
0.228562
0.228337
0.228139
0.227954
0.227793
0.227645
0.227509
0.227398
0.227283
0.227193
0.227111
0.227039
0.226965
0.226954
0.226842
0.226936
0.226779
0.226986
0.226784
0.227068
0.227083
0.226805
0.22728
0.22633
0.224996
0.231952
0.205813
0.352095
0.350916
0.34968
0.348417
0.347133
0.345835
0.344494
0.343117
0.341744
0.34036
0.338912
0.337412
0.335914
0.334421
0.332939
0.331453
0.329926
0.328344
0.326758
0.325198
0.323654
0.322073
0.320455
0.318827
0.317208
0.315614
0.314011
0.312391
0.310779
0.30917
0.307559
0.305965
0.304361
0.302732
0.301102
0.2995
0.297919
0.296336
0.294757
0.293191
0.291631
0.290073
0.288513
0.286948
0.28539
0.283853
0.282357
0.280886
0.279431
0.27798
0.276538
0.2751
0.273666
0.272253
0.270831
0.269413
0.268019
0.266648
0.265293
0.263953
0.262626
0.261318
0.260027
0.258754
0.257508
0.256282
0.25508
0.253899
0.252747
0.251617
0.250512
0.249435
0.248381
0.24735
0.246333
0.245342
0.244367
0.24339
0.242426
0.24148
0.240547
0.239623
0.238715
0.237821
0.236942
0.236088
0.235257
0.23445
0.233657
0.232901
0.232165
0.231451
0.230761
0.230097
0.229467
0.228853
0.228264
0.227687
0.227146
0.226617
0.226107
0.225617
0.22514
0.224687
0.224244
0.223833
0.22342
0.223038
0.222671
0.222322
0.221991
0.221683
0.221385
0.221107
0.220842
0.220593
0.220356
0.220132
0.219928
0.219723
0.219548
0.219367
0.219214
0.219072
0.218916
0.218849
0.218658
0.21869
0.218461
0.21857
0.218385
0.218371
0.218642
0.21829
0.218305
0.217565
0.216169
0.2223
0.199524
0.358163
0.356769
0.355372
0.353946
0.352447
0.35091
0.349395
0.347845
0.346225
0.344593
0.342988
0.341373
0.339716
0.338032
0.336309
0.33457
0.332828
0.331111
0.32937
0.327577
0.325767
0.323964
0.32218
0.320402
0.318592
0.316785
0.31502
0.313249
0.311434
0.309605
0.307779
0.305934
0.304119
0.302326
0.300518
0.298719
0.29692
0.295128
0.293357
0.291604
0.289864
0.288138
0.286436
0.284763
0.283107
0.281443
0.279759
0.27808
0.276416
0.274765
0.273148
0.271548
0.269966
0.268411
0.266885
0.265394
0.26393
0.262465
0.261015
0.259594
0.258194
0.256813
0.255443
0.254093
0.252757
0.251437
0.250132
0.248837
0.247559
0.246296
0.24505
0.243822
0.242609
0.241423
0.240268
0.239132
0.238042
0.236997
0.235969
0.234965
0.234007
0.233093
0.232182
0.231285
0.23042
0.229576
0.228742
0.227916
0.227122
0.226333
0.225546
0.224789
0.224048
0.223321
0.222617
0.221935
0.221262
0.220631
0.220007
0.219406
0.218837
0.21828
0.217751
0.217239
0.216759
0.216282
0.215835
0.215407
0.214983
0.214588
0.214205
0.213837
0.213481
0.213145
0.212817
0.212509
0.212211
0.211932
0.211658
0.211419
0.211169
0.210968
0.210746
0.210594
0.210384
0.2103
0.210101
0.210081
0.209922
0.209928
0.209858
0.209718
0.209848
0.209271
0.208877
0.208268
0.20715
0.212436
0.192462
0.36488
0.363307
0.361654
0.359969
0.358307
0.356604
0.354818
0.353039
0.351275