/*--------------------------------*- C++ -*----------------------------------*\
| =========                 |                                                 |
| \\      /  F ield         | OpenFOAM: The Open Source CFD Toolbox           |
|  \\    /   O peration     | Version:  5.x                                   |
|   \\  /    A nd           | Web:      www.OpenFOAM.org                      |
|    \\/     M anipulation  |                                                 |
\*---------------------------------------------------------------------------*/
/*   Windows 32 and 64 bit porting by blueCAPE: http://www.bluecape.com.pt   *\
|  Based on Windows porting (2.0.x v4) by Symscape: http://www.symscape.com   |
\*---------------------------------------------------------------------------*/
FoamFile
{
    version     2.0;
    format      ascii;
    class       surfaceScalarField;
    location    "350";
    object      phi;
}
// * * * * * * * * * * * * * * * * * * * * * * * * * * * * * * * * * * * * * //

dimensions      [0 3 -1 0 0 0 0];

internalField   nonuniform List<scalar> 
87341
(
0.366085
39.557
0.53018
39.7589
0.497142
39.9561
0.603168
39.817
0.639771
39.8864
0.684656
39.8782
0.722192
39.8855
0.760968
39.8843
0.798858
39.8851
0.831343
39.8906
0.863612
39.8908
0.889913
39.8967
0.914162
39.8988
0.940263
39.8969
0.961817
39.9015
0.979328
39.9055
1.00172
39.9006
1.02591
39.8988
1.04392
39.905
1.0603
39.9067
1.0747
39.9086
1.08731
39.9104
1.0994
39.9109
1.11207
39.9104
1.13049
39.9046
1.15081
39.9027
1.16581
39.908
1.17325
39.9156
39.917
1.1793
0.969528
38.5874
1.36104
39.3674
1.47155
39.8456
1.60758
39.681
1.64583
39.8482
1.80301
39.721
1.90122
39.7873
2.02888
39.7566
2.1209
39.7931
2.22054
39.7909
2.31224
39.7991
2.40079
39.8082
2.48102
39.8186
2.55139
39.8266
2.61894
39.8339
2.68679
39.8377
2.74485
39.8426
2.79072
39.853
2.83953
39.8562
2.88979
39.8564
2.93642
39.862
2.98229
39.8646
3.0265
39.8667
3.06692
39.87
3.0954
39.8761
3.11109
39.887
3.12638
39.8927
3.15585
39.8861
39.8797
3.19314
2.03726
36.5502
3.35583
38.0489
4.13743
39.064
4.22379
39.5946
4.3838
39.6882
4.32116
39.7836
4.3571
39.7513
4.33464
39.7791
4.36114
39.7666
4.38425
39.7678
4.41419
39.7691
4.45428
39.7681
4.50263
39.7702
4.54861
39.7806
4.59715
39.7854
4.6502
39.7846
4.70154
39.7912
4.75444
39.8001
4.80738
39.8033
4.8551
39.8087
4.9079
39.8092
4.96384
39.8086
5.01182
39.8187
5.05313
39.8286
5.09477
39.8345
5.15097
39.8308
5.21949
39.8242
5.28466
39.821
39.8393
5.32503
1.70207
34.8481
3.50814
36.2428
4.96464
37.6075
5.85787
38.7014
6.16446
39.3816
6.257
39.6911
6.2773
39.731
6.31472
39.7416
6.33788
39.7435
6.35921
39.7465
6.38
39.7483
6.39657
39.7515
6.41276
39.754
6.43878
39.7546
6.46898
39.7552
6.49289
39.7607
6.52194
39.7622
6.56152
39.7605
6.60303
39.7618
6.64591
39.7658
6.68555
39.7696
6.71727
39.7769
6.75402
39.782
6.80897
39.7737
6.87714
39.7663
6.94038
39.7676
6.98318
39.7814
7.00765
39.7965
39.7999
7.04711
1.09275
33.7553
2.46403
34.8715
4.04148
36.03
5.51107
37.2318
6.58702
38.3056
7.17972
39.0984
7.39178
39.519
7.43868
39.6947
7.48315
39.699
7.52722
39.7024
7.56777
39.7078
7.6152
39.7041
7.66459
39.7046
7.70451
39.7147
7.74902
39.7107
7.79916
39.7106
7.83957
39.7218
7.87503
39.725
7.91716
39.7196
7.96504
39.7179
8.01394
39.7207
8.073
39.7178
8.14111
39.7139
8.1953
39.7195
8.23214
39.7295
8.25936
39.7404
8.30383
39.737
8.36896
39.7314
39.7234
8.44544
0.859296
32.8961
1.87769
33.8531
3.05304
34.8547
4.38991
35.8949
5.75194
36.9436
6.89723
37.9531
7.63288
38.7833
7.9948
39.3328
8.13207
39.5617
8.2197
39.6148
8.31007
39.6174
8.39358
39.6206
8.47322
39.625
8.55875
39.6291
8.63777
39.6316
8.71764
39.6307
8.80894
39.6305
8.9021
39.6319
8.97908
39.6426
9.05123
39.6458
9.13688
39.635
9.22292
39.6318
9.29844
39.6384
9.36794
39.65
9.44823
39.6492
9.53967
39.6489
9.62698
39.6496
9.71468
39.6437
39.6432
9.7949
0.756832
32.1392
1.61468
32.9953
2.57618
33.8932
3.64521
34.8259
4.81127
35.7775
6.03521
36.7292
7.15855
37.66
7.99863
38.4927
8.4673
39.0931
8.67404
39.408
8.79315
39.4983
8.91282
39.5009
9.03061
39.5072
9.14192
39.5178
9.25698
39.5166
9.3727
39.515
9.48226
39.5209
9.59566
39.5185
9.72144
39.5169
9.84596
39.5213
9.94782
39.5332
10.0387
39.541
10.1392
39.5378
10.2512
39.5381
10.3624
39.538
10.4731
39.5382
10.5778
39.5449
10.6724
39.5492
39.5668
10.7487
0.702752
31.4365
1.47526
32.2228
2.32087
33.0475
3.24193
33.9048
4.23594
34.7835
5.29405
35.671
6.40119
36.5528
7.48542
37.4085
8.36857
38.2099
8.93431
38.8423
9.20647
39.2262
9.35523
39.3522
9.50402
39.3584
9.65323
39.3686
9.79173
39.3781
9.93432
39.3724
10.0864
39.3689
10.2257
39.3791
10.365
39.3776
10.5079
39.3784
10.6577
39.3834
10.8105
39.3881
10.9533
39.3951
11.0914
39.4
11.2236
39.4058
11.3522
39.4095
11.4828
39.4143
11.6151
39.4169
39.4222
11.7597
0.674008
30.7625
1.39893
31.4978
2.17876
32.2677
3.01548
33.0681
3.90863
33.8904
4.85475
34.7249
5.84639
35.5612
6.86779
36.3871
7.88959
37.1881
8.7869
37.945
9.42557
38.5875
9.76366
39.0141
9.95555
39.1665
10.1457
39.1785
10.3371
39.1867
10.5151
39.1944
10.6889
39.1951
10.8734
39.1945
11.0385
39.2125
11.2049
39.2119
11.3781
39.2102
11.5556
39.2106
11.7286
39.222
11.8967
39.2319
12.0596
39.2429
12.2193
39.2498
12.3717
39.262
12.5156
39.2729
39.2858
12.6521
0.657438
30.105
1.35734
30.7979
2.09959
31.5255
2.88583
32.2819
3.71626
33.06
4.5893
33.8519
5.50121
34.6493
6.44501
35.4433
7.40915
36.224
8.37494
36.9792
9.27135
37.6911
9.96004
38.3254
10.3592
38.7673
10.5888
38.9489
10.8068
38.9687
11.021
38.9802
11.2331
38.983
11.4353
38.9924
11.6444
39.0034
11.8454
39.0109
12.0271
39.0285
12.2046
39.0332
12.3891
39.0375
12.5827
39.0383
12.769
39.0566
12.9472
39.0716
13.1322
39.077
13.3298
39.0752
39.0884
13.5272
0.655015
29.45
1.34449
30.1085
2.06898
30.801
2.82925
31.5216
3.62524
32.264
4.45592
33.0212
5.31904
33.7862
6.21082
34.5515
7.1253
35.3095
8.05319
36.0513
8.97827
36.766
9.8661
37.4375
10.5812
38.0523
11.0253
38.5048
11.2905
38.7035
11.5401
38.7307
11.7816
38.7414
12.0322
38.7417
12.2744
38.7612
12.5048
38.7805
12.7482
38.7851
12.9689
38.8124
13.185
38.8214
13.3963
38.827
13.6204
38.8325
13.8413
38.8507
14.0417
38.8766
14.221
38.8959
38.8984
14.411
0.659606
28.7904
1.34782
29.4202
2.06635
30.0824
2.81546
30.7725
3.59489
31.4846
4.40358
32.2125
5.23972
32.95
6.10055
33.6907
6.98208
34.428
7.87841
35.155
8.7804
35.864
9.67216
36.5458
10.5368
37.1877
11.2638
37.7777
11.7355
38.2318
12.0341
38.4321
12.3056
38.4698
12.5624
38.4849
12.8328
38.4908
13.1035
38.5099
13.3539
38.5347
13.6291
38.5372
13.8947
38.5558
14.1439
38.5778
14.3678
38.6086
14.6042
38.6143
14.8629
38.6179
15.1209
38.638
38.676
15.3433
0.665683
28.1247
1.35815
28.7278
2.07746
29.3631
2.82356
30.0264
3.59603
30.7121
4.394
31.4145
5.21585
32.1282
6.05932
32.8472
6.92133
33.566
7.7977
34.2786
8.68265
34.9791
9.5678
35.6606
10.4404
36.3151
11.2867
36.9315
12.019
37.4995
12.5032
37.9478
12.8251
38.148
13.123
38.1871
13.4071
38.2068
13.6962
38.2207
13.9871
38.2439
14.261
38.2633
14.5422
38.2745
14.8221
38.298
15.1024
38.3283
15.3559
38.3608
15.5756
38.3981
15.8026
38.411
38.4144
16.0642
0.676635
27.4481
1.37752
28.0269
2.10301
28.6376
2.85298
29.2764
3.62668
29.9384
4.42318
30.618
5.24119
31.3102
6.07877
32.0096
6.93342
32.7113
7.80197
33.41
8.68032
34.1007
9.56303
34.7779
10.4425
35.4356
11.3076
36.0664
12.1469
36.6603
12.8852
37.2094
13.3801
37.6531
13.7208
37.8464
14.0482
37.8794
14.3528
37.9162
14.6596
37.937
14.9597
37.9632
15.2378
37.9964
15.513
38.0228
15.799
38.0423
16.0855
38.0743
16.387
38.0966
16.67
38.128
38.1841
16.9003
0.68898
26.7591
1.40053
27.3153
2.13475
27.9034
2.89162
28.5196
3.67048
29.1595
4.47012
29.8184
5.28927
30.491
6.12635
31.1726
6.97923
31.8584
7.84527
32.544
8.72125
33.2247
9.6031
33.8961
10.4855
34.5532
11.3613
35.1906
12.2199
35.8017
13.0518
36.3776
13.7898
36.9151
14.282
37.3541
14.628
37.5334
14.9821
37.562
15.3038
37.6154
15.6157
37.6514
15.947
37.6651
16.2642
37.7056
16.5624
37.7441
16.8607
37.776
17.1354
37.8219
17.4377
37.8257
37.8675
17.7543
0.702647
26.0565
1.42668
26.5913
2.17198
27.1581
2.93834
27.7532
3.72538
28.3725
4.53202
29.0118
5.3567
29.6663
6.19794
30.3313
7.05392
31.0025
7.92242
31.6755
8.80077
32.3464
9.68576
33.0111
10.5734
33.6655
11.4585
34.3054
12.3342
34.9259
13.1907
35.5211
14.0225
36.0833
14.7663
36.6103
15.2635
37.0361
15.6248
37.2008
16.0049
37.2352
16.3509
37.3054
16.6778
37.3382
17.0243
37.3591
17.3742
37.3942
17.7165
37.4337
18.0519
37.4866
18.3413
37.5362
37.5773
18.6315
0.71758
25.3389
1.45571
25.8532
2.21425
26.3996
2.99284
26.9746
3.791
27.5743
4.60805
28.1947
5.44269
28.8317
6.29324
29.4808
7.15805
30.1376
8.03515
30.7984
8.92231
31.4592
9.8169
32.1165
10.7159
32.7666
11.6154
33.4059
12.5109
34.0305
13.3961
34.6359
14.2625
35.2169
15.1059
35.7669
15.8574
36.2846
16.3613
36.6969
16.7398
36.8568
17.1411
36.904
17.5128
36.9665
17.8546
37.0173
18.1963
37.0526
18.5191
37.1109
18.8405
37.1652
19.1651
37.2117
37.2725
19.4699
0.731812
24.6071
1.4836
25.1014
2.25517
25.628
3.04611
26.1837
3.85576
26.7647
4.6834
27.3671
5.52809
27.987
6.38834
28.6205
7.2625
29.2635
8.14883
29.9121
9.04525
30.5628
9.94944
31.2123
10.8588
31.8572
11.7702
32.4945
12.68
33.1207
13.5836
33.7323
14.4751
34.3254
15.3464
34.8955
16.1926
35.4385
16.9345
35.955
17.4341
36.3571
17.819
36.5192
18.2168
36.5687
18.5941
36.6401
18.9566
36.69
19.3103
36.7572
19.6491
36.8263
19.9681
36.8927
36.9466
20.294
0.744921
23.8621
1.50942
24.3369
2.29324
24.8442
3.09591
25.381
3.9168
25.9438
4.75504
26.5288
5.60966
27.1324
6.47939
27.7508
7.36257
28.3803
8.25755
29.0171
9.16248
29.6579
10.0753
30.2995
10.9935
30.939
11.9146
31.5734
12.8354
32.1999
13.7522
32.8155
14.6606
33.417
15.5549
34.0011
16.429
34.5644
17.279
35.105
18.0166
35.6195
18.5283
36.0075
18.9283
36.1687
19.3334
36.235
19.7096
36.3139
20.0816
36.3852
20.4577
36.4502
20.823
36.5273
36.5776
21.192
0.757179
23.105
1.53362
23.5604
2.32905
24.0488
3.14303
24.567
3.9749
25.1119
4.82381
25.6799
5.68877
26.2674
6.56867
26.8709
7.46201
27.487
8.36707
28.112
9.28214
28.7428
10.2053
29.3763
11.1345
30.0098
12.0674
30.6405
13.0015
31.2658
13.9338
31.8832
14.8608
32.49
15.7785
33.0834
16.6825
33.6605
17.5688
34.2187
18.4312
34.7571
19.1665
35.2722
19.6757
35.6595
20.0834
35.8273
20.4889
35.9084
20.8779
35.9962
21.2583
36.0697
21.6043
36.1814
36.2703
21.9116
0.767945
22.337
1.55491
22.7735
2.36062
23.2431
3.1846
23.743
4.02623
24.2703
4.88467
24.8215
5.7589
25.3932
6.64779
25.982
7.55011
26.5846
8.46423
27.1979
9.38845
27.8186
10.321
28.4438
11.2599
29.0708
12.2032
29.6972
13.1484
30.3206
14.0932
30.9385
15.0346
31.5486
15.9693
32.1487
16.8935
32.7362
17.8033
33.3089
18.6952
33.8652
19.5592
34.4081
20.2831
34.9356
20.7765
35.3339
21.1937
35.4912
21.5812
35.6087
21.9749
35.676
22.4192
35.7371
35.8958
22.7936
0.777023
21.56
1.57289
21.9776
2.38728
22.4287
3.21974
22.9106
4.06964
23.4204
4.93616
23.955
5.81833
24.511
6.71497
25.0854
7.62485
25.6748
8.54653
26.2762
9.47836
26.8868
10.4186
27.5035
11.3654
28.124
12.3169
28.7458
13.2709
29.3666
14.2251
29.9842
15.1771
30.5967
16.124
31.2018
17.0628
31.7975
17.9898
32.3818
18.9019
32.9532
19.7986
33.5115
20.6712
34.0629
21.3951
34.61
21.901
34.9853
22.345
35.1648
22.7426
35.2784
23.108
35.3718
35.4745
23.5293
0.784598
20.7754
1.58782
21.1744
2.40937
21.6071
3.24881
22.0711
4.1055
22.5637
4.97864
23.0818
5.86727
23.6224
6.77022
24.1824
7.68626
24.7587
8.61403
25.3485
9.55195
25.9488
10.4984
26.5571
11.4516
27.1708
12.4097
27.7876
13.3708
28.4055
14.3329
29.0222
15.2936
29.6359
16.2506
30.2447
17.2013
30.8468
18.1428
31.4403
19.0724
32.0236
19.9882
32.5957
20.8942
33.1569
21.7857
33.7185
22.4954
34.2757
22.9842
34.676
23.4301
34.8324
23.8086
34.9933
35.117
24.1661
0.790453
19.9849
1.59938
20.3655
2.42645
20.78
3.27122
21.2264
4.13308
21.7018
5.01124
22.2037
5.90476
22.7289
6.81254
23.2746
7.73333
23.8379
8.66579
24.416
9.6084
25.0062
10.5595
25.606
11.5174
26.2129
12.4803
26.8247
13.4464
27.4394
14.4136
28.0549
15.3801
28.6695
16.3435
29.2813
17.3016
29.8887
18.2519
30.4899
19.192
31.0835
20.1194
31.6683
21.0328
32.2435
21.9421
32.8092
22.8378
33.38
23.5496
33.9642
24.0035
34.3785
24.4515
34.5454
34.7266
24.8418
0.795041
19.1899
1.60835
19.5522
2.43962
19.9488
3.28842
20.3776
4.15415
20.8361
5.03604
21.3218
5.93313
21.8318
6.84433
22.3634
7.76837
22.9139
8.7039
23.4805
9.64951
24.0606
10.6036
24.6519
11.5644
25.252
12.5303
25.8588
13.4995
26.4702
14.4701
27.0844
15.44
27.6996
16.4073
28.314
17.3699
28.9261
18.3255
29.5343
19.272
30.1371
20.207
30.7332
21.1289
31.3216
22.0364
31.9017
22.9434
32.4729
23.8506
33.057
24.5569
33.6722
24.9977
34.1046
34.3169
25.4074
0.798201
18.3917
1.61448
18.7359
2.44855
19.1147
3.29996
19.5261
4.16814
19.9679
5.05233
20.4376
5.9516
20.9325
6.86485
21.4502
7.79085
21.9879
8.72826
22.543
9.67563
23.1133
10.6314
23.6962
11.5938
24.2896
12.5612
24.8914
13.5319
25.4996
14.5039
26.1124
15.4754
26.728
16.4445
27.3449
17.4091
27.9615
18.3673
28.5762
19.3168
29.1876
20.2556
29.7944
21.1818
30.3954
22.0937
30.9898
22.9894
31.5772
23.8882
32.1583
24.7973
32.763
25.4888
33.4131
33.8851
25.9206
0.800062
17.5916
1.61801
17.9179
2.45354
18.2792
3.30626
18.6734
4.17561
19.0986
5.06084
19.5523
5.96105
20.0323
6.87516
20.5361
7.80197
21.0611
8.74011
21.6049
9.68813
22.1652
10.6444
22.7399
11.6074
23.3267
12.5751
23.9236
13.546
24.5288
14.518
25.1404
15.4893
25.7567
16.4581
26.3762
17.4223
26.9972
18.38
27.6185
19.3292
28.2384
20.2677
28.8558
21.1936
29.4695
22.105
30.0784
23.0002
30.682
23.8783
31.2802
24.7651
31.8761
25.6697
32.5085
33.2041
26.3507
0.800708
16.7909
1.61907
17.0996
2.45485
17.4434
3.30767
17.8206
4.17701
18.2292
5.06216
18.6672
5.96221
19.1323
6.87612
19.6222
7.80263
20.1346
8.74038
20.6672
9.68788
21.2177
10.6436
21.7842
11.6057
22.3645
12.5726
22.9567
13.5424
23.559
14.5133
24.1695
15.4832
24.7867
16.4503
25.409
17.4126
26.0349
18.3681
26.663
19.3148
27.2918
20.2506
27.92
21.1736
28.5465
22.0819
29.1701
22.9738
29.7901
23.8482
30.4058
24.706
31.0184
25.5825
31.632
32.3122
26.4744
0.800016
15.9909
1.61746
16.2821
2.45212
16.6087
3.30368
16.969
4.17167
17.3612
5.05542
17.7835
5.95404
18.2337
6.8665
18.7097
7.79159
19.2095
8.72794
19.7308
9.67407
20.2716
10.6284
20.8299
11.5891
21.4038
12.5544
21.9914
13.5225
22.5909
14.4914
23.2006
15.4592
23.819
16.4237
24.4445
17.3831
25.0756
18.3352
25.7109
19.278
26.349
20.2095
26.9885
21.1277
27.6283
22.0307
28.2671
22.9169
28.9039
23.7849
29.5378
24.6345
30.1688
25.4691
30.7975
31.4389
26.3423
0.797968
15.1929
1.6131
15.467
2.44526
15.7766
3.2942
16.1201
4.15951
16.4959
5.04058
16.9024
5.93657
17.3377
6.84648
17.7998
7.76913
18.2868
8.70317
18.7968
9.64712
19.3277
10.5993
19.8777
11.5581
20.4451
12.5214
21.0281
13.4873
21.6249
14.4538
22.2341
15.4189
22.8539
16.3803
23.483
17.3361
24.1198
18.2841
24.7629
19.2221
25.411
20.148
26.0626
21.0597
26.7166
21.9553
27.3715
22.833
28.0262
23.6911
28.6797
24.5286
29.3312
25.3456
29.9805
30.6285
26.156
0.794496
14.3985
1.60587
14.6556
2.43406
14.9484
3.27895
15.2752
4.14021
15.6347
5.01729
16.0253
5.90944
16.4455
6.81569
16.8935
7.73489
17.3676
8.66568
17.866
9.60655
18.3868
10.5558
18.9284
11.5117
19.4892
12.4723
20.0675
13.4355
20.6617
14.3993
21.2703
15.3615
21.8917
16.3199
22.5247
17.272
23.1676
18.2157
23.8192
19.1487
24.478
20.0686
25.1427
20.9732
25.8119
21.8605
26.4842
22.7283
27.1584
23.5749
27.8331
24.3988
28.5074
25.1991
29.1802
29.8511
25.9765
0.789467
13.609
1.59549
13.8496
2.41812
14.1258
3.25736
14.436
4.113
14.779
4.98459
15.1537
5.87144
15.5587
6.77265
15.9923
7.68712
16.4532
8.61353
16.9396
9.55037
17.45
10.496
17.9828
11.4485
18.5366
12.4061
19.11
13.3665
19.7013
14.3276
20.3092
15.287
20.9323
16.2423
21.5693
17.1912
22.2188
18.1309
22.8794
19.0592
23.5498
19.9734
24.2285
20.8712
24.9142
21.7501
25.6053
22.6079
26.3006
23.4425
26.9985
24.2522
27.6977
25.0354
28.3969
29.0951
25.7915
0.782796
12.8262
1.58179
13.0506
2.39717
13.3104
3.22909
13.604
4.07748
13.9306
4.94199
14.2892
5.82204
14.6786
6.71681
15.0976
7.62529
15.5447
8.5462
16.0186
9.47811
16.5181
10.4194
17.0416
11.3682
17.5879
12.3224
18.1557
13.2799
18.7438
14.2383
19.3508
15.1951
19.9755
16.1478
20.6166
17.0937
21.2729
18.0301
21.943
18.9543
22.6256
19.8636
23.3193
20.7551
24.0226
21.6263
24.7342
22.4745
25.4523
23.2975
26.1755
24.0931
26.9021
24.8595
27.6305
28.3592
25.5954
0.774411
12.0518
1.56463
12.2604
2.37101
12.504
3.19389
12.7812
4.03334
13.0912
4.88916
13.4334
5.76089
13.8069
6.64784
14.2106
7.54905
14.6435
8.46336
15.1043
9.38934
15.5921
10.3254
16.1055
11.2696
16.6437
12.2199
17.2054
13.1741
17.7896
14.1297
18.3952
15.0841
19.0211
16.0346
19.6661
16.9784
20.3292
17.9124
21.009
18.8336
21.7044
19.7389
22.4139
20.6253
23.1362
21.4898
23.8697
22.3295
24.6126
23.1416
25.3634
23.9237
26.12
24.6735
26.8807
27.6434
25.3893
0.764239
11.2875
1.54388
11.4808
2.33946
11.7084
3.1515
11.9691
3.98027
12.2624
4.8257
12.588
5.68748
12.9451
6.56504
13.3331
7.45753
13.751
8.36388
14.198
9.28274
14.6732
10.2125
15.1758
11.1513
15.7048
12.0972
16.2595
13.0478
16.839
14.0006
17.4424
14.9529
18.0687
15.9019
18.7172
16.8442
19.3868
17.7768
20.0764
18.6963
20.7849
19.5991
21.5111
20.4819
22.2535
21.3411
23.0104
22.1735
23.7802
22.976
24.561
23.7455
25.3505
24.4795
26.1467
26.9472
25.1757
0.752226
10.5353
1.51946
10.7135
2.30241
10.9255
3.10183
11.1697
3.91814
11.4461
4.75145
11.7546
5.60161
12.0949
6.46817
12.4665
7.35042
12.8687
8.24741
13.301
9.15788
13.7627
10.0803
14.2533
11.013
14.7721
11.9539
15.3186
12.9007
15.8922
13.8508
16.4923
14.8013
17.1182
15.7491
17.7694
16.6909
18.445
17.6232
19.1441
18.5422
19.866
19.444
20.6093
20.3248
21.3727
21.1806
22.1547
22.0074
22.9534
22.8017
23.7667
23.5599
24.5923
24.2791
25.4276
26.2697
24.9565
0.738329
9.79699
1.49131
9.96054
2.25983
10.1569
3.04483
10.3847
3.84694
10.644
4.66643
10.9352
5.50331
11.2581
6.35728
11.6125
7.22781
11.9982
8.11405
12.4148
9.0149
12.8619
9.92899
13.3392
10.8546
13.8465
11.7898
14.3834
12.7323
14.9498
13.6793
15.5452
14.6281
16.1695
15.5753
16.8222
16.5174
17.5028
17.4506
18.211
18.3707
18.9459
19.2734
19.7066
20.1541
20.4919
21.0085
21.3003
21.8318
22.13
22.6198
22.9787
23.3684
23.8437
24.0739
24.7221
25.6104
24.7333
0.722509
9.07448
1.4594
9.22365
2.21169
9.40466
2.98052
9.61587
3.76668
9.85785
4.57063
10.1312
5.39252
10.4362
6.23226
10.7728
7.08945
11.141
7.96343
11.5408
8.85324
11.9721
9.75764
12.4348
10.675
12.9291
11.6036
13.4549
12.541
14.0124
13.4847
14.6015
14.4318
15.2224
15.3789
15.875
16.3224
16.5594
17.2578
17.2755
18.1809
18.0228
19.0866
18.8009
19.9698
19.6087
20.8252
20.4449
21.6475
21.3077
22.4315
22.1947
23.1724
23.1029
23.8656
24.0288
24.9683
24.5077
0.704743
8.36973
1.42373
8.50466
2.158
8.67039
2.90888
8.86499
3.67732
9.08941
4.46393
9.34459
5.26906
9.63105
6.09276
9.94908
6.93484
10.2989
7.79481
10.6808
8.67189
11.095
9.56501
11.5417
10.4728
12.0213
11.3935
12.5342
12.3252
13.0807
13.2652
13.6615
14.2107
14.2769
15.1582
14.9275
16.1039
15.6138
17.0432
16.3362
17.9712
17.0948
18.8825
17.8896
19.7711
18.7201
20.6308
19.5852
21.4553
20.4832
22.2383
21.4117
22.9739
22.3673
23.6567
23.346
24.3426
24.2823
0.685036
7.6847
1.3843
7.8054
2.09876
7.95594
2.82985
8.1339
3.5787
8.34056
4.34606
8.57723
5.13245
8.84466
5.93812
9.14341
6.76306
9.47398
7.607
9.83688
8.46938
10.2326
9.34937
10.6617
10.2458
11.1249
11.1573
11.6227
12.0819
12.1561
13.0174
12.726
13.9608
13.3335
14.9089
13.9794
15.8576
14.6651
16.8023
15.3915
17.7376
16.1595
18.6575
16.9697
19.5551
17.8224
20.4233
18.717
21.2542
19.6522
22.0403
20.6256
22.7742
21.6335
23.4492
22.671
23.732
24.0598
0.663435
7.02126
1.34117
7.12766
2.03394
7.26316
2.7433
7.42454
3.47048
7.61338
4.21642
7.83129
4.9818
8.07928
5.76708
8.35814
6.57245
8.66861
7.39787
9.01146
8.24303
9.38744
9.1074
9.79737
9.99012
10.2421
10.89
10.7228
11.8056
11.2405
12.7348
11.7968
13.6751
12.3932
14.6234
13.0312
15.5756
13.7128
16.5272
14.4399
17.4722
15.2144
18.4041
16.0379
19.3151
16.9114
20.1968
17.8354
21.0398
18.8092
21.8346
19.8307
22.572
20.8961
23.2434
21.9996
23.1338
23.8416
0.640035
6.38123
1.29439
6.4733
1.96347
6.59409
2.6489
6.73911
3.35208
6.9102
4.07409
7.10928
4.81579
7.33758
5.57782
7.5961
6.36061
7.88582
7.16436
8.20771
7.98906
8.56274
8.83448
8.95194
9.70017
9.37645
10.5854
9.8376
11.489
10.3369
12.4095
10.8763
13.3448
11.4579
14.292
12.084
15.2475
12.7573
16.2065
13.4809
17.1632
14.2578
18.1102
15.0908
19.0392
15.9825
19.9401
16.9345
20.8019
17.9474
21.6127
19.0199
22.3607
20.1482
23.0345
21.3258
22.5434
23.6248
0.61496
5.76627
1.244
5.84426
1.88715
5.95094
2.54622
6.08004
3.22272
6.2337
3.91789
6.41412
4.63276
6.62271
5.36818
6.86068
6.1248
7.12921
6.90308
7.42943
7.70335
7.76248
8.52577
8.12952
9.37033
8.53189
10.2368
8.97114
11.1246
9.4491
12.0329
9.96804
12.96
10.5307
13.9037
11.1403
14.8607
11.8003
15.8267
12.515
16.7957
13.2888
17.7603
14.1262
18.7111
15.0316
19.637
16.0087
20.5248
17.0597
21.3599
18.1848
22.127
19.381
22.8113
20.6415
21.9547
23.4
0.588316
5.17795
1.18994
5.24264
1.80474
5.33614
2.43475
5.45004
3.08161
5.58684
3.7467
5.74902
4.43125
5.93817
5.13627
6.15566
5.86265
6.40282
6.61117
6.68092
7.3825
6.99115
8.17725
7.33477
8.99593
7.71321
9.83888
8.12819
10.7062
8.58179
11.5976
9.07664
12.5123
9.61598
13.4488
10.2038
14.4043
10.8448
15.375
11.5443
16.3554
12.3083
17.3382
13.1434
18.3136
14.0563
19.269
15.0532
20.1895
16.1392
21.0573
17.317
21.8531
18.5853
22.5572
19.9374
21.3598
23.1521
0.560148
4.6178
1.13214
4.67064
1.71601
4.75226
2.31413
4.85192
2.92828
4.97269
3.55996
5.11734
4.21054
5.28758
4.88126
5.48494
5.57324
5.71084
6.28758
5.96658
7.02535
6.25337
7.78765
6.57247
8.57552
6.92534
9.38994
7.31377
10.2317
7.74003
11.1013
8.20704
11.9987
8.71858
12.923
9.27953
13.8724
9.89538
14.8439
10.5728
15.8329
11.3193
16.8324
12.1439
17.8326
13.0561
18.8203
14.0655
19.7786
15.1809
20.6865
16.409
21.5201
17.7517
22.2536
19.2039
20.7504
22.863
0.53042
4.08738
1.07052
4.13054
1.62098
4.2018
2.18457
4.28833
2.76312
4.39413
3.35827
4.52219
3.97153
4.67432
4.60435
4.85213
5.25812
5.05707
5.9343
5.2904
6.63437
5.55329
7.35992
5.84692
8.11257
6.17269
8.89389
6.53246
9.70531
6.92861
10.5479
7.36442
11.4223
7.84418
12.3287
8.37317
13.2663
8.95773
14.2334
9.6057
15.2262
10.3265
16.2387
11.1314
17.2616
12.0331
18.2816
13.0455
19.2804
14.1821
20.2341
15.4554
21.1135
16.8723
21.8856
18.4319
20.1185
22.5175
0.49908
3.5883
1.00527
3.62435
1.52023
3.68684
2.04711
3.76146
2.58776
3.85348
3.1439
3.96605
3.71721
4.101
4.30934
4.26
4.922
4.44441
5.55697
4.65543
6.2162
4.89406
6.90174
5.16139
7.61565
5.45878
8.35997
5.78814
9.1365
6.15207
9.94697
6.55395
10.793
6.99817
11.6758
7.49039
12.5957
8.03779
13.5521
8.64932
14.5425
9.33615
15.5621
10.1117
16.6032
10.9921
17.6528
11.9958
18.6921
13.1427
19.6947
14.4528
20.6264
15.9406
21.4447
17.6136
19.4566
22.1066
0.466191
3.12211
0.936983
3.15356
1.41508
3.20875
1.90391
3.27262
2.40526
3.35214
2.92093
3.45038
3.45275
3.56918
4.00259
3.71016
4.57245
3.87456
5.16447
4.06341
5.78096
4.27758
6.42427
4.51808
7.09671
4.78634
7.80068
5.08416
8.5387
5.41406
9.31318
5.77947
10.1264
6.18495
10.9804
6.63642
11.8765
7.14166
12.8153
7.71055
13.7958
8.35559
14.8153
9.09229
15.8675
9.93989
16.9413
10.922
18.0187
12.0654
19.0712
13.4003
20.0597
14.952
20.9308
16.7426
18.7578
21.6296
0.432088
2.69003
0.866825
2.71882
1.30766
2.76791
1.75815
2.82214
2.21991
2.89037
2.69483
2.97546
3.18489
3.07912
3.69216
3.20289
4.21887
3.34785
4.76741
3.51486
5.34025
3.70474
5.93998
3.91835
6.56942
4.1569
7.23139
4.42219
7.92874
4.71671
8.66432
5.04389
9.44093
5.40835
10.2612
5.81614
11.1275
6.27535
12.0417
6.7964
13.0045
7.39271
14.0153
8.08154
15.0703
8.88492
16.1607
9.83158
17.2709
10.9552
18.3717
12.2994
19.4214
13.9023
20.3514
15.8126
18.0148
21.0944
0.397432
2.29259
0.796427
2.31983
1.20064
2.36369
1.61354
2.40924
2.03656
2.46736
2.47165
2.54036
2.92089
2.62988
3.38648
2.7373
3.87075
2.86358
4.37628
3.00934
4.90583
3.17519
5.46227
3.36191
6.04858
3.5706
6.66778
3.80299
7.32296
4.06152
8.01726
4.3496
8.75389
4.67172
9.5361
5.03393
10.3672
5.44429
11.2501
5.91344
12.1876
6.45527
13.1809
7.08825
14.2293
7.83653
15.3272
8.73364
16.463
9.81945
17.6085
11.1539
18.7228
12.788
19.7189
14.8165
17.2178
20.5158
0.363138
1.92946
0.727625
1.95534
1.09678
1.99453
1.47377
2.03225
1.85984
2.08129
2.25699
2.14321
2.66729
2.21958
3.09302
2.31157
3.53667
2.41993
4.00095
2.54506
4.48872
2.68742
5.00292
2.84771
5.54657
3.02695
6.12281
3.22675
6.73487
3.44946
7.38614
3.69833
8.08017
3.97769
8.82075
4.29335
9.6119
4.65314
10.4578
5.06753
11.3627
5.55042
12.33
6.12091
13.3623
6.80418
14.4579
7.63806
15.611
8.66641
16.7959
9.96897
17.9786
11.6053
19.0495
13.7456
16.3508
19.9166
0.330178
1.59928
0.662114
1.62341
0.998474
1.65817
1.34191
1.68882
1.69351
1.72969
2.05526
1.78146
2.42924
1.8456
2.81778
1.92303
3.22342
2.01429
3.64885
2.11964
4.09688
2.23939
4.57044
2.37414
5.07253
2.52485
5.6063
2.69298
6.17505
2.88071
6.78232
3.09106
7.43194
3.32807
8.12812
3.59717
8.87555
3.9057
9.67943
4.26366
10.5454
4.68445
11.4791
5.18719
12.4866
5.79672
13.5702
6.55447
14.732
7.50455
15.9506
8.75043
17.2068
10.349
18.3665
12.5859
15.3842
19.3331
0.299375
1.2999
0.601166
1.32161
0.90742
1.35192
1.22004
1.3762
1.54002
1.4097
1.86935
1.45214
2.21006
1.50488
2.56447
1.56863
2.93503
1.64372
3.32436
1.73031
3.73514
1.8286
4.1702
1.93909
4.63243
2.06262
5.1249
2.20051
5.6509
2.35471
6.21404
2.52792
6.81834
2.72377
7.46834
2.94717
8.16931
3.20474
8.9273
3.50567
9.74932
3.86243
10.6431
4.29345
11.618
4.82182
12.6812
5.49126
13.8441
6.34165
15.0918
7.50271
16.4292
9.01162
17.7052
11.3099
14.2647
18.8247
0.271256
1.02865
0.545504
1.04736
0.824517
1.0729
1.10915
1.09156
1.40052
1.11834
1.7005
1.15216
2.01108
1.1943
2.33446
1.24524
2.673
1.30518
3.02915
1.37417
3.40542
1.45233
3.80444
1.54007
4.22895
1.63811
4.68189
1.74758
5.16644
1.87015
5.68621
2.00815
6.2453
2.16469
6.84849
2.34398
7.50146
2.55177
8.21101
2.79611
8.98542
3.08802
9.83442
3.44444
10.7705
3.88573
11.8063
4.45551
12.9628
5.18514
14.2385
6.22693
15.6651
7.58505
17.1129
9.86211
12.9069
18.4707
0.246044
0.782603
0.495332
0.798077
0.749938
0.818299
1.00935
0.832153
1.27498
0.852713
1.54856
0.878577
1.83198
0.910878
2.12732
0.949902
2.43677
0.99573
2.76259
1.04835
3.10708
1.10784
3.47265
1.1745
3.86184
1.24892
4.27738
1.33204
4.72233
1.4252
5.2002
1.53028
5.71508
1.64981
6.27185
1.78721
6.87646
1.94716
7.53628
2.1363
8.26057
2.36373
9.06107
2.64395
9.95279
2.99401
10.9544
3.45386
12.095
4.04458
13.3979
4.92405
14.9137
6.06928
16.6361
8.13965
11.204
18.3391
0.223799
0.558804
0.450455
0.571421
0.683288
0.585466
0.920006
0.595435
1.16253
0.610187
1.41239
0.628723
1.67135
0.651917
1.94134
0.679906
2.22438
0.712693
2.5225
0.750231
2.83778
0.792558
3.17238
0.839896
3.52862
0.892689
3.90902
0.951637
4.31645
1.01776
4.75427
1.09246
5.22645
1.17762
5.73784
1.27581
6.29448
1.39053
6.904
1.52678
7.57626
1.69146
8.32447
1.89574
9.16569
2.15278
10.1245
2.49508
11.234
2.93506
12.5492
3.60888
14.1357
4.48273
16.2192
6.05616
9.04972
18.3734
0.204521
0.354284
0.410358
0.365584
0.623787
0.372037
0.840033
0.379188
1.06177
0.388448
1.29024
0.400258
1.5271
0.415051
1.77413
0.432878
2.03312
0.453699
2.3059
0.477455
2.5943
0.504161
2.90023
0.53396
3.22577
0.567147
3.57322
0.604189
3.94523
0.645757
4.34492
0.692769
4.77608
0.746459
5.2434
0.808496
5.75275
0.881176
6.31176
0.967771
6.93038
1.07285
7.62236
1.20375
8.40581
1.36934
9.30899
1.5919
10.3669
1.87712
11.6548
2.32097
13.2629
2.87464
15.6098
3.70934
6.44572
18.2138
0.187854
0.166429
0.374265
0.179173
0.570481
0.175821
0.768099
0.18157
0.971021
0.185526
1.18008
0.191202
1.39686
0.198264
1.62297
0.206771
1.86
0.216674
2.10952
0.227933
2.37313
0.240547
2.65251
0.254588
2.94945
0.270199
3.26603
0.287611
3.60464
0.30715
3.96814
0.329264
4.36006
0.354547
4.78475
0.383802
5.24778
0.418142
5.75644
0.459119
6.32028
0.509011
6.95283
0.571193
7.6719
0.650274
8.50679
0.757006
9.49081
0.893103
10.7031
1.10865
12.2225
1.35527
14.5322
1.39959
3.59003
17.3879
0.166429
0.345603
0.521424
0.702994
0.888521
1.07972
1.27799
1.48476
1.70143
1.92936
2.16991
2.4245
2.6947
2.98231
3.28946
3.61872
3.97327
4.35707
4.77521
5.23433
5.74334
6.31453
6.96481
7.72181
8.61492
9.72357
11.0788
12.4784
16.0685
1.191
54.1285
1.21122
54.12
1.23476
54.1167
1.2509
54.1241
1.25047
54.1407
1.24256
54.1481
1.24356
54.1392
1.25868
54.1251
1.27682
54.1221
1.27897
54.1381
1.26456
54.1546
1.25569
54.1491
1.26265
54.1333
1.26364
54.1392
1.24848
54.1554
1.23722
54.1515
1.24971
54.1277
1.27564
54.1143
1.28241
54.1335
1.26546
54.1572
1.25011
54.1556
1.26864
54.1217
1.30894
54.0999
1.34647
54.1027
1.35388
54.1328
1.35313
54.141
1.34991
54.1435
1.33415
54.156
1.3168
54.1576
1.32411
54.1329
1.35633
54.108
1.40306
54.0935
1.42439
54.1189
1.42618
54.1384
1.42817
54.1382
1.431
54.1374
1.43437
54.1369
1.43799
54.1366
1.44176
54.1365
1.44557
54.1364
1.44929
54.1365
1.45273
54.1368
1.45549
54.1375
1.45745
54.1383
1.4587
54.139
1.45968
54.1393
1.46034
54.1396
1.46099
54.1396
1.4613
54.1399
1.46144
54.1401
1.46117
54.1405
1.4606
54.1408
1.45947
54.1414
1.45778
54.1419
1.45554
54.1425
1.45289
54.1429
1.44934
54.1438
1.44547
54.1441
1.44075
54.145
1.43574
54.1453
1.43011
54.1459
1.42379
54.1465
1.41726
54.1468
1.40971
54.1478
1.40206
54.1479
1.39344
54.1489
1.38477
54.1489
1.37443
54.1506
1.36471
54.15
1.35406
54.1509
1.34272
54.1516
1.3323
54.1506
1.31859
54.1539
1.30684
54.152
1.29298
54.1541
1.2803
54.1529
1.26573
54.1548
1.24977
54.1562
1.23344
54.1566
1.21499
54.1587
1.1944
54.1608
1.17013
54.1645
1.14812
54.1622
1.12984
54.1585
1.11219
54.1579
1.09195
54.1605
1.07446
54.1577
1.06075
54.1539
1.03951
54.1615
1.01572
54.164
0.993592
54.1624
0.972471
54.1614
0.951187
54.1615
0.92966
54.1618
0.907702
54.1622
0.885632
54.1623
0.862711
54.1632
0.839802
54.1631
0.816363
54.1637
0.792721
54.1639
0.768828
54.1641
0.744733
54.1643
0.720508
54.1645
0.69613
54.1646
0.671793
54.1646
0.647361
54.1647
0.623083
54.1645
0.598583
54.1647
0.574045
54.1648
0.549296
54.165
0.524461
54.1651
0.499414
54.1653
0.474327
54.1653
0.448998
54.1656
0.423634
54.1656
0.398048
54.1658
0.372492
54.1658
0.346888
54.1658
0.321263
54.1659
0.295646
54.1659
0.270039
54.1658
0.244548
54.1657
0.219062
54.1657
0.193504
54.1658