/*--------------------------------*- C++ -*----------------------------------*\
| =========                 |                                                 |
| \\      /  F ield         | OpenFOAM: The Open Source CFD Toolbox           |
|  \\    /   O peration     | Version:  5.x                                   |
|   \\  /    A nd           | Web:      www.OpenFOAM.org                      |
|    \\/     M anipulation  |                                                 |
\*---------------------------------------------------------------------------*/
/*   Windows 32 and 64 bit porting by blueCAPE: http://www.bluecape.com.pt   *\
|  Based on Windows porting (2.0.x v4) by Symscape: http://www.symscape.com   |
\*---------------------------------------------------------------------------*/
FoamFile
{
    version     2.0;
    format      ascii;
    class       volVectorField;
    location    "350";
    object      U;
}
// * * * * * * * * * * * * * * * * * * * * * * * * * * * * * * * * * * * * * //

dimensions      [0 1 -1 0 0 0 0];

internalField   nonuniform List<vector> 
43900
(
(1.16162 -0.000736804 -1.61043e-027)
(1.16714 0.00218023 -4.31564e-027)
(1.16972 0.000365432 1.44448e-030)
(1.16837 0.00183385 2.82597e-030)
(1.16973 0.000795567 3.66305e-030)
(1.16991 0.00200262 3.67123e-030)
(1.17011 0.00117979 5.76117e-027)
(1.17052 0.00189411 -1.1502e-026)
(1.17044 0.00164637 9.69409e-030)
(1.17009 0.00182467 -1.14737e-026)
(1.1701 0.00191798 1.14967e-026)
(1.17001 0.00196993 1.15765e-029)
(1.16989 0.00200416 -1.14377e-026)
(1.16994 0.00205488 2.50252e-029)
(1.1699 0.00214979 2.56152e-029)
(1.16998 0.00216169 2.63036e-029)
(1.17008 0.00219631 -2.27687e-026)
(1.16987 0.00228624 5.49469e-029)
(1.16977 0.00229568 2.27961e-026)
(1.16984 0.00235469 2.85553e-029)
(1.16993 0.00239559 2.8999e-029)
(1.16997 0.00239559 2.9488e-029)
(1.16984 0.00246046 2.98811e-029)
(1.16989 0.00245856 3.02766e-029)
(1.17013 0.00249451 3.06392e-029)
(1.17013 0.00257044 -2.2499e-026)
(1.17 0.00256658 6.26417e-029)
(1.16989 0.0026299 6.32414e-029)
(1.16985 0.00263135 8.98084e-026)
(1.15869 0.0114643 0)
(1.16551 -0.00498411 0)
(1.17144 0.00906902 0)
(1.1666 -0.000189605 0)
(1.16844 0.00619928 0)
(1.16801 0.00272995 0)
(1.16833 0.0049112 0)
(1.16767 0.00461644 0)
(1.16812 0.00463124 0)
(1.16855 0.00531025 0)
(1.16861 0.0053053 0)
(1.16894 0.00548066 0)
(1.1691 0.00578543 0)
(1.1689 0.00597294 0)
(1.16916 0.00606924 0)
(1.16927 0.00624356 0)
(1.16887 0.00644199 0)
(1.16894 0.00649527 0)
(1.16937 0.00664364 0)
(1.16938 0.0067765 0)
(1.16939 0.00682356 0)
(1.16943 0.00700918 0)
(1.16957 0.00707192 0)
(1.16947 0.00717032 0)
(1.16889 0.00730655 0)
(1.16877 0.00726941 0)
(1.16917 0.0073746 0)
(1.16968 0.00739248 0)
(1.16977 0.00745694 0)
(1.10202 0.0321411 0)
(1.14469 -0.0175805 0)
(1.16304 0.0288235 0)
(1.1632 -0.00368454 0)
(1.16634 0.0209139 0)
(1.16424 0.00400699 0)
(1.16579 0.0150595 0)
(1.1665 0.00839794 0)
(1.16663 0.0118775 0)
(1.16665 0.0106143 0)
(1.16686 0.0107873 0)
(1.16693 0.0111443 0)
(1.16721 0.0111271 0)
(1.16757 0.0112348 0)
(1.16754 0.0113636 0)
(1.16744 0.0115191 0)
(1.16786 0.0116152 0)
(1.16823 0.011774 0)
(1.16785 0.0119227 0)
(1.16777 0.0119536 0)
(1.16796 0.0121764 0)
(1.16785 0.0122938 0)
(1.16767 0.0123668 0)
(1.16788 0.0125587 0)
(1.1687 0.0125767 0)
(1.16933 0.0127409 0)
(1.16921 0.0129079 0)
(1.1683 0.0130382 0)
(1.16782 0.0132092 1.57906e-027)
(1.04072 0.0199869 0)
(1.08659 -0.00670008 0)
(1.1295 0.0201225 0)
(1.15549 0.00822924 0)
(1.16322 0.0222946 0)
(1.1659 0.0107998 0)
(1.16468 0.020642 0)
(1.1635 0.0137305 0)
(1.16453 0.0182237 0)
(1.16465 0.0158565 0)
(1.16477 0.0169817 0)
(1.1651 0.0167148 0)
(1.16513 0.0167907 0)
(1.16534 0.0168484 0)
(1.1657 0.0168996 0)
(1.16572 0.0170148 0)
(1.16557 0.0170643 0)
(1.16573 0.0171606 0)
(1.16624 0.0172081 0)
(1.16656 0.0174309 0)
(1.16634 0.0174993 0)
(1.16638 0.017512 0)
(1.16704 0.0177185 0)
(1.16735 0.0177652 0)
(1.16687 0.0179093 0)
(1.16593 0.0181888 0)
(1.16558 0.0182281 0)
(1.16623 0.0183571 0)
(1.16766 0.0184518 1.68649e-027)
(1.00331 0.0101948 3.37647e-027)
(1.0388 -0.000896487 0)
(1.07566 0.0108363 0)
(1.11394 0.0129197 0)
(1.14432 0.0183378 0)
(1.15993 0.0173884 0)
(1.16325 0.0228695 0)
(1.1643 0.0186003 0)
(1.16332 0.0217191 0)
(1.16344 0.0203894 0)
(1.16342 0.0208391 0)
(1.16321 0.0211732 0)
(1.16353 0.0211053 0)
(1.16355 0.021246 0)
(1.1634 0.0213709 0)
(1.16378 0.0214952 0)
(1.16415 0.0216549 0)
(1.16401 0.0216952 0)
(1.16372 0.0219036 0)
(1.16377 0.0219458 0)
(1.16422 0.0220487 0)
(1.16461 0.0223392 0)
(1.16433 0.0223943 0)
(1.16353 0.0225858 0)
(1.16352 0.022783 0)
(1.16453 0.0227792 0)
(1.16568 0.0229237 0)
(1.16588 0.023069 0)
(1.16471 0.0232293 -7.09385e-027)
(0.976008 0.00684037 -3.52379e-027)
(1.00588 0.000683544 0)
(1.0371 0.0076076 0)
(1.06949 0.01106 0)
(1.10193 0.0149375 0)
(1.13225 0.0182519 0)
(1.15264 0.0222086 0)
(1.16094 0.0223511 0)
(1.16218 0.0246398 0)
(1.16188 0.0231 0)
(1.16193 0.0244756 0)
(1.16202 0.024329 0)
(1.16171 0.0246064 0)
(1.16197 0.0248306 0)
(1.16213 0.0251217 0)
(1.16174 0.0253642 0)
(1.16199 0.0255158 0)
(1.16243 0.0259403 0)
(1.1624 0.0260447 0)
(1.16242 0.0263407 0)
(1.16221 0.0266086 0)
(1.16179 0.0267469 0)
(1.16187 0.0270202 0)
(1.1629 0.0273367 0)
(1.16363 0.0274425 0)
(1.16336 0.0276938 0)
(1.16211 0.0279805 0)
(1.16175 0.0282271 0)
(1.16252 0.0285114 3.75489e-027)
(0.95276 0.00529148 0)
(0.979083 0.00143766 0)
(1.00666 0.00646986 0)
(1.03531 0.00970348 0)
(1.06443 0.0130446 0)
(1.09336 0.0166848 0)
(1.12143 0.0204585 0)
(1.14477 0.0233627 0)
(1.15636 0.0260498 0)
(1.15956 0.0266148 0)
(1.15948 0.0265577 0)
(1.15931 0.0274761 0)
(1.15967 0.027622 0)
(1.15932 0.0279657 0)
(1.15934 0.0283836 0)
(1.15981 0.0286796 0)
(1.15944 0.0291248 0)
(1.15911 0.0293463 0)
(1.15976 0.0298007 0)
(1.15997 0.0301764 0)
(1.15956 0.0304585 0)
(1.1599 0.030855 0)
(1.16034 0.0311561 0)
(1.15991 0.0312984 0)
(1.15926 0.0317861 0)
(1.1596 0.0321408 0)
(1.16081 0.032485 0)
(1.16109 0.032819 0)
(1.16043 0.0329671 0)
(0.931559 0.00444298 0)
(0.955511 0.0019114 0)
(0.980621 0.00603656 0)
(1.00672 0.00910232 0)
(1.03343 0.012161 0)
(1.06031 0.0154696 0)
(1.08688 0.0190293 0)
(1.11235 0.0226111 0)
(1.13561 0.0259456 0)
(1.1504 0.0283497 0)
(1.15558 0.0301675 0)
(1.15582 0.0298994 0)
(1.15558 0.0307381 0)
(1.1561 0.0311509 0)
(1.15588 0.0316704 0)
(1.1556 0.0321551 0)
(1.15619 0.032425 0)
(1.15615 0.0332178 0)
(1.15555 0.0333765 0)
(1.15551 0.0340071 0)
(1.15655 0.0344714 0)
(1.15669 0.0348887 0)
(1.15609 0.035394 0)
(1.15644 0.0359022 0)
(1.15717 0.0363907 0)
(1.1568 0.0366713 0)
(1.15582 0.0370948 0)
(1.15597 0.037569 0)
(1.15756 0.0379792 0)
(0.911534 0.00386612 0)
(0.93374 0.00232282 0)
(0.95702 0.00594015 0)
(0.981224 0.00893701 0)
(1.00607 0.0118915 0)
(1.03124 0.0150189 0)
(1.05639 0.0183538 0)
(1.08108 0.0218427 0)
(1.10481 0.025391 0)
(1.12688 0.0286818 0)
(1.1437 0.0315135 0)
(1.1505 0.0336063 0)
(1.15106 0.0336609 0)
(1.1508 0.0345191 0)
(1.15117 0.0351918 0)
(1.15145 0.0358793 0)
(1.15087 0.0365041 0)
(1.15131 0.0368608 0)
(1.15172 0.0378196 0)
(1.15189 0.0381791 0)
(1.15121 0.0387137 0)
(1.15135 0.039466 0)
(1.1524 0.0400433 0)
(1.15226 0.0405159 0)
(1.15189 0.0411946 0)
(1.15252 0.0416039 0)
(1.15389 0.0424237 0)
(1.15413 0.0428229 0)
(1.15295 0.0431217 0)
(0.892117 0.00338727 0)
(0.912993 0.00272546 0)
(0.934877 0.00604743 0)
(0.957628 0.00903733 0)
(0.981017 0.0119754 0)
(1.0048 0.01504 0)
(1.0287 0.0182742 0)
(1.05243 0.0216523 0)
(1.07566 0.0251393 0)
(1.09797 0.0286683 0)
(1.11871 0.0320337 0)
(1.13645 0.0350214 0)
(1.14446 0.0375449 0)
(1.14527 0.0378318 0)
(1.14504 0.0388655 0)
(1.14515 0.039633 0)
(1.14594 0.0403117 0)
(1.14539 0.0412836 0)
(1.14601 0.0416649 0)
(1.14595 0.0427011 0)
(1.14668 0.043416 0)
(1.14654 0.0438393 0)
(1.14622 0.0446931 0)
(1.14698 0.0451916 0)
(1.14801 0.0461889 0)
(1.14772 0.046559 0)
(1.14696 0.0472484 0)
(1.14736 0.0480215 0)
(1.14928 0.0486347 -9.91849e-027)
(0.872917 0.00321816 0)
(0.892716 0.00304739 0)
(0.913501 0.00631659 0)
(0.935116 0.00937191 0)
(0.957363 0.0123682 0)
(0.98003 0.0154633 0)
(1.00289 0.0187035 0)
(1.02572 0.0220713 0)
(1.04827 0.0255426 0)
(1.07022 0.0290924 0)
(1.09121 0.0326698 0)
(1.11062 0.0361174 0)
(1.12813 0.0392677 0)
(1.13752 0.0420807 0)
(1.13844 0.0426254 0)
(1.13855 0.0438754 0)
(1.13833 0.044797 0)
(1.13936 0.0453856 0)
(1.13924 0.0468794 0)
(1.13989 0.0472939 0)
(1.14032 0.0484443 0)
(1.14076 0.0492945 0)
(1.14144 0.0502072 0)
(1.14078 0.0508375 0)
(1.14085 0.0518072 0)
(1.14198 0.0524959 0)
(1.14324 0.0536466 0)
(1.14294 0.0541836 0)
(1.14184 0.0547885 1.0462e-026)
(0.853711 0.00318212 0)
(0.872574 0.0033609 0)
(0.892404 0.00668785 0)
(0.913053 0.00986517 0)
(0.934343 0.0129785 0)
(0.956084 0.016174 0)
(0.97808 0.0194982 0)
(1.00013 0.0229374 0)
(1.02203 0.0264707 0)
(1.04356 0.0300785 0)
(1.06445 0.0337355 0)
(1.08439 0.0373911 0)
(1.10291 0.0409189 0)
(1.11974 0.0442075 0)
(1.1299 0.0471325 0)
(1.13066 0.0481334 0)
(1.13153 0.0494486 0)
(1.13094 0.0504226 0)
(1.13198 0.0511753 0)
(1.13231 0.052746 0)
(1.1324 0.0535244 0)
(1.13349 0.0543894 0)
(1.13351 0.0561454 0)
(1.13459 0.0563663 0)
(1.13472 0.0580622 0)
(1.13468 0.0585539 0)
(1.13504 0.0595156 0)
(1.13618 0.0606183 0)
(1.13775 0.0617863 1.15036e-026)
(0.834321 0.00310683 0)
(0.852379 0.00371861 0)
(0.871386 0.00713295 0)
(0.891206 0.0104625 0)
(0.911673 0.0137333 0)
(0.932621 0.017076 0)
(0.953874 0.0205356 0)
(0.975254 0.0241012 0)
(0.996583 0.0277544 0)
(1.01768 0.0314787 0)
(1.03835 0.0352548 0)
(1.05836 0.0390567 0)
(1.07745 0.0428355 0)
(1.0952 0.0464819 0)
(1.11139 0.0499031 0)
(1.12172 0.0530323 0)
(1.1224 0.0542194 0)
(1.12387 0.0557007 0)
(1.12331 0.0567583 0)
(1.12382 0.0578189 0)
(1.12517 0.0593468 0)
(1.12457 0.060583 0)
(1.12558 0.0613105 0)
(1.1259 0.063053 0)
(1.12761 0.0639104 0)
(1.12811 0.0649979 0)
(1.12844 0.0666416 0)
(1.12863 0.0669775 0)
(1.12924 0.0680165 -1.21446e-026)
(0.814679 0.00309787 0)
(0.831994 0.00409961 0)
(0.850248 0.00765917 0)
(0.869324 0.0111801 0)
(0.889065 0.0146496 0)
(0.909309 0.0181847 0)
(0.929902 0.0218298 0)
(0.950683 0.0255755 0)
(0.971494 0.0294058 0)
(0.992177 0.0333062 0)
(1.01257 0.037261 0)
(1.0325 0.041251 0)
(1.05177 0.0452497 0)
(1.07012 0.0492095 0)
(1.0872 0.0530145 0)
(1.10289 0.0566478 0)
(1.11332 0.0599886 0)
(1.11359 0.0612561 0)
(1.1152 0.063062 0)
(1.11557 0.0640464 0)
(1.11559 0.0657893 0)
(1.1174 0.0666674 0)
(1.11732 0.068744 0)
(1.11859 0.0692414 0)
(1.11854 0.0708587 0)
(1.11963 0.0722191 0)
(1.12131 0.0729747 0)
(1.12192 0.074926 0)
(1.12239 0.0760734 -1.34066e-026)
(0.794678 0.0031367 0)
(0.811311 0.00449506 0)
(0.828874 0.00824521 0)
(0.847258 0.0119856 0)
(0.866334 0.0156824 0)
(0.885944 0.0194421 0)
(0.905935 0.0233055 0)
(0.926167 0.0272663 0)
(0.946495 0.0313092 0)
(0.966778 0.0354214 0)
(0.986875 0.0395891 0)
(1.00664 0.0437958 0)
(1.02592 0.0480211 0)
(1.04454 0.0522379 0)
(1.06225 0.0563962 0)
(1.07876 0.0603697 0)
(1.09412 0.0642363 0)
(1.10449 0.0676713 0)
(1.10425 0.0691275 0)
(1.10572 0.0709559 0)
(1.10698 0.0723499 0)
(1.107 0.0741816 0)
(1.10886 0.0749021 0)
(1.10931 0.0775422 0)
(1.11072 0.0783536 0)
(1.11137 0.0794205 0)
(1.11154 0.0820813 0)
(1.11289 0.0821491 0)
(1.11512 0.0839575 1.41613e-026)
(0.774308 0.0032201 0)
(0.790299 0.00491111 0)
(0.807223 0.00889346 0)
(0.82497 0.0128851 0)
(0.843421 0.0168369 0)
(0.862446 0.0208527 0)
(0.881893 0.0249706 0)
(0.901623 0.029182 0)
(0.921507 0.0334746 0)
(0.941416 0.037836 0)
(0.961226 0.0422541 0)
(0.980812 0.0467146 0)
(1.00004 0.0511998 0)
(1.01879 0.0556884 0)
(1.03687 0.0601521 0)
(1.0541 0.0645378 0)
(1.0702 0.0687325 0)
(1.08526 0.0728418 0)
(1.09521 0.0764901 0)
(1.09485 0.0779862 0)
(1.0965 0.0802316 0)
(1.09874 0.0816054 0)
(1.09839 0.0838304 0)
(1.10027 0.0847 0)
(1.10083 0.087286 0)
(1.10214 0.0886488 0)
(1.10417 0.089952 0)
(1.10395 0.0925133 0)
(1.10504 0.0934937 0)
(0.753509 0.0033444 0)
(0.768887 0.00535462 0)
(0.785202 0.00960803 0)
(0.802351 0.0138859 0)
(0.820214 0.0181264 0)
(0.838675 0.0224312 0)
(0.857607 0.0268414 0)
(0.876868 0.0313472 0)
(0.896331 0.0359345 0)
(0.915879 0.040593 0)
(0.935398 0.0453114 0)
(0.954776 0.0500769 0)
(0.973904 0.0548746 0)
(0.992666 0.0596869 0)
(1.01094 0.0644932 0)
(1.02857 0.0692651 0)
(1.04539 0.0739459 0)
(1.06118 0.0784314 0)
(1.07601 0.0828992 0)
(1.08535 0.0866537 0)
(1.08532 0.0884711 0)
(1.08722 0.0908203 0)
(1.08972 0.0923203 0)
(1.08941 0.0951396 0)
(1.09117 0.095808 0)
(1.09215 0.0982243 0)
(1.09376 0.100372 0)
(1.09658 0.100801 0)
(1.09729 0.103607 0)
(0.732267 0.00349861 0)
(0.747051 0.00581633 0)
(0.762778 0.0103679 0)
(0.77935 0.0149549 0)
(0.796653 0.0195076 0)
(0.814571 0.0241244 0)
(0.832988 0.0288472 0)
(0.851785 0.0336693 0)
(0.870834 0.0385756 0)
(0.890025 0.0435555 0)
(0.909248 0.0485984 0)
(0.928401 0.0536922 0)
(0.947383 0.0588229 0)
(0.966096 0.0639746 0)
(0.984435 0.069129 0)
(1.00229 0.074265 0)
(1.01952 0.079351 0)
(1.03599 0.0843247 0)
(1.05155 0.0891063 0)
(1.06624 0.0938669 0)
(1.0748 0.0975832 0)
(1.07532 0.0999193 0)
(1.07664 0.102028 0)
(1.07958 0.10358 0)
(1.08003 0.10703 0)
(1.0823 0.107534 0)
(1.08362 0.110088 0)
(1.08506 0.1128 0)
(1.08816 0.113183 0)
(0.71063 0.00367934 4.06944e-026)
(0.724836 0.00629551 0)
(0.739992 0.011169 0)
(0.756005 0.0160861 0)
(0.772771 0.0209709 0)
(0.790176 0.0259219 0)
(0.808109 0.0309803 0)
(0.826458 0.0361402 0)
(0.845105 0.0413866 0)
(0.86394 0.0467076 0)
(0.882866 0.0520944 0)
(0.901789 0.0575347 0)
(0.920614 0.0630151 0)
(0.939254 0.0685208 0)
(0.957618 0.0740347 0)
(0.975613 0.0795375 0)
(0.993136 0.0850065 0)
(1.01008 0.0904079 0)
(1.02632 0.0956791 0)
(1.04184 0.10079 0)
(1.05639 0.105738 0)
(1.06431 0.109839 0)
(1.06552 0.112279 0)
(1.06721 0.114436 0)
(1.06969 0.116451 0)
(1.07168 0.119746 0)
(1.07439 0.120911 0)
(1.07579 0.123163 0)
(1.07692 0.126383 0)
(0.688618 0.00388691 1.32225e-027)
(0.702255 0.00679641 0)
(0.71685 0.0120166 0)
(0.732315 0.0172865 0)
(0.748551 0.0225257 0)
(0.765451 0.0278348 0)
(0.782907 0.0332544 0)
(0.800817 0.0387792 0)
(0.819076 0.044396 0)
(0.837575 0.050092 0)
(0.856213 0.0558558 0)
(0.874905 0.0616778 0)
(0.893565 0.0675448 0)
(0.912111 0.0734429 0)
(0.930464 0.0793569 0)
(0.948543 0.0852694 0)
(0.966266 0.0911612 0)
(0.983543 0.0970101 0)
(1.00028 0.102783 0)
(1.01642 0.108427 0)
(1.03195 0.113873 0)
(1.0465 0.119343 0)
(1.05418 0.123319 0)
(1.05622 0.126065 0)
(1.05857 0.128704 0)
(1.06067 0.130253 0)
(1.06254 0.133996 0)
(1.06679 0.135454 0)
(1.06776 0.137541 0)
(0.666264 0.00411696 -4.69534e-026)
(0.67934 0.00731528 0)
(0.693383 0.0129025 0)
(0.708309 0.0185441 0)
(0.724026 0.0241553 0)
(0.740432 0.0298401 0)
(0.757425 0.0356409 0)
(0.7749 0.0415502 0)
(0.792761 0.0475551 0)
(0.81091 0.0536447 0)
(0.829251 0.0598072 0)
(0.8477 0.0660319 0)
(0.866175 0.0723061 0)
(0.8846 0.0786163 0)
(0.902903 0.0849481 0)
(0.921011 0.0912852 0)
(0.938852 0.09761 0)
(0.956353 0.103903 0)
(0.973436 0.110141 0)
(0.99003 0.116292 0)
(1.0061 0.12228 0)
(1.02178 0.128161 0)
(1.03659 0.133843 0)
(1.04411 0.137821 0)
(1.04659 0.140912 0)
(1.0498 0.143645 0)
(1.05127 0.145298 0)
(1.05359 0.149006 0)
(1.05869 0.15172 0)
(0.643619 0.00436693 0)
(0.656141 0.00785126 0)
(0.669637 0.0138242 0)
(0.68403 0.0198546 0)
(0.699232 0.0258544 0)
(0.715148 0.0319318 0)
(0.731678 0.0381307 0)
(0.748726 0.044443 0)
(0.766197 0.0508552 0)
(0.784003 0.0573567 0)
(0.802051 0.0639357 0)
(0.820255 0.0705801 0)
(0.838541 0.0772784 0)
(0.856836 0.0840168 0)
(0.875071 0.0907808 0)
(0.893182 0.0975548 0)
(0.911103 0.104322 0)
(0.928771 0.111064 0)
(0.946121 0.117761 0)
(0.963091 0.12439 0)
(0.979634 0.130913 0)
(0.995779 0.137283 0)
(1.01184 0.143565 0)
(1.02734 0.149611 0)
(1.03366 0.153805 0)
(1.03741 0.157056 0)
(1.04099 0.160274 0)
(1.04243 0.162313 0)
(1.04588 0.165609 0)
(0.62073 0.00463663 -5.72973e-026)
(0.632702 0.00840649 0)
(0.645658 0.014784 0)
(0.659526 0.0212207 0)
(0.67422 0.0276258 0)
(0.689651 0.0341129 0)
(0.705728 0.0407273 0)
(0.722356 0.0474612 0)
(0.739442 0.054299 0)
(0.7569 0.0612299 0)
(0.774646 0.068243 0)
(0.7926 0.0753263 0)
(0.810688 0.0824674 0)
(0.828841 0.0896526 0)
(0.846995 0.0968677 0)
(0.865088 0.104098 0)
(0.883061 0.111326 0)
(0.900856 0.118537 0)
(0.918417 0.12571 0)
(0.93569 0.132826 0)
(0.952625 0.139865 0)
(0.969206 0.146802 0)
(0.985483 0.153558 0)
(1.0021 0.160318 0)
(1.01781 0.166949 0)
(1.02444 0.170918 0)
(1.02749 0.174585 0)
(1.03257 0.177835 0)
(1.0346 0.179834 5.41865e-026)
(0.597644 0.00492284 -1.6102e-027)
(0.609072 0.00897964 0)
(0.621493 0.0157794 0)
(0.634839 0.0226388 0)
(0.64903 0.029465 0)
(0.663981 0.0363778 0)
(0.679605 0.0434247 0)
(0.695812 0.0505969 0)
(0.712515 0.0578784 0)
(0.729632 0.0652584 0)
(0.747084 0.0727257 0)
(0.764791 0.0802671 0)
(0.782682 0.0878691 0)
(0.800689 0.0955184 0)
(0.818751 0.1032 0)
(0.83681 0.1109 0)
(0.85481 0.118601 0)
(0.872699 0.126287 0)
(0.890425 0.13394 0)
(0.907937 0.141541 0)
(0.925191 0.149071 0)
(0.94215 0.156514 0)
(0.958809 0.163847 0)
(0.9752 0.170983 0)
(0.992187 0.178189 0)
(1.00892 0.185305 0)
(1.01529 0.189355 0)
(1.01901 0.192851 0)
(1.0245 0.196518 1.06131e-027)
(0.574405 0.00522754 6.59671e-026)
(0.585295 0.00957561 0)
(0.597188 0.0168179 0)
(0.610018 0.0241188 0)
(0.62371 0.0313845 0)
(0.638185 0.0387419 0)
(0.653361 0.0462402 0)
(0.669153 0.0538698 0)
(0.685477 0.0616145 0)
(0.702254 0.0694615 0)
(0.719407 0.0773995 0)
(0.736862 0.0854155 0)
(0.754551 0.0934958 0)
(0.77241 0.101627 0)
(0.790379 0.109793 0)
(0.808401 0.117979 0)
(0.826423 0.126168 0)
(0.844393 0.134344 0)
(0.862265 0.142488 0)
(0.87999 0.150584 0)
(0.897525 0.158611 0)
(0.914833 0.166552 0)
(0.931884 0.174393 0)
(0.948672 0.182122 0)
(0.965207 0.189609 0)
(0.982756 0.197338 0)
(1.00075 0.204872 0)
(1.00734 0.20909 0)
(1.01194 0.212537 -6.19277e-026)
(0.551053 0.00554831 0)
(0.561409 0.0101934 0)
(0.572778 0.0178976 0)
(0.585097 0.025658 0)
(0.598295 0.0333809 0)
(0.6123 0.0412009 0)
(0.627032 0.049169 0)
(0.642413 0.0572752 0)
(0.658363 0.0655025 0)
(0.674805 0.073837 0)
(0.691666 0.0822669 0)
(0.708876 0.0907794 0)
(0.726367 0.0993595 0)
(0.744077 0.107992 0)
(0.761949 0.116661 0)
(0.779928 0.12535 0)
(0.797964 0.134044 0)
(0.816007 0.142725 0)
(0.83401 0.151375 0)
(0.85193 0.159976 0)
(0.869723 0.168509 0)
(0.887351 0.176956 0)
(0.904782 0.185299 0)
(0.921992 0.193527 0)
(0.938977 0.201608 0)
(0.955803 0.209479 0)
(0.974139 0.217621 0)
(0.993183 0.225668 0)
(1.00082 0.229695 0)
(0.527627 0.00588525 0)
(0.537456 0.0108348 0)
(0.548307 0.0190211 0)
(0.560119 0.02726 0)
(0.572829 0.0354587 0)
(0.586366 0.0437607 0)
(0.600658 0.0522189 0)
(0.61563 0.0608224 0)
(0.631206 0.0695533 0)
(0.647314 0.0783975 0)
(0.663884 0.0873425 0)
(0.68085 0.0963744 0)
(0.698147 0.105477 0)
(0.715714 0.114633 0)
(0.733494 0.123827 0)
(0.751435 0.133042 0)
(0.769487 0.142259 0)
(0.787601 0.151461 0)
(0.805734 0.160629 0)
(0.823841 0.169744 0)
(0.841882 0.178788 0)
(0.859818 0.187741 0)
(0.877615 0.196583 0)
(0.895246 0.205298 0)
(0.912695 0.21387 0)
(0.929975 0.222271 0)
(0.947238 0.230464 0)
(0.966648 0.239163 0)
(0.986534 0.247274 7.26825e-026)
(0.504164 0.00623831 0)
(0.513472 0.0115011 0)
(0.52381 0.0201907 0)
(0.535121 0.0289277 0)
(0.547345 0.0376221 0)
(0.560418 0.0464268 0)
(0.574272 0.0553969 0)
(0.588838 0.0645202 0)
(0.604044 0.0737779 0)
(0.619822 0.0831553 0)
(0.636104 0.0926379 0)
(0.652828 0.102211 0)
(0.669932 0.111858 0)
(0.687356 0.121561 0)
(0.705049 0.131304 0)
(0.722958 0.141066 0)
(0.741032 0.150829 0)
(0.759226 0.160573 0)
(0.777495 0.170279 0)
(0.795796 0.179926 0)
(0.81409 0.189495 0)
(0.832338 0.198964 0)
(0.850506 0.208314 0)
(0.868562 0.217526 0)
(0.886486 0.226582 0)
(0.90427 0.235465 0)
(0.921969 0.244158 0)
(0.939789 0.252707 0)
(0.960997 0.261883 9.25325e-028)
(0.4807 0.00660568 0)
(0.489494 0.0121908 0)
(0.499324 0.0214038 0)
(0.510137 0.0306571 0)
(0.521879 0.0398655 0)
(0.53449 0.0491923 0)
(0.547908 0.0586943 0)
(0.562069 0.0683585 0)
(0.576906 0.0781653 0)
(0.592356 0.0880993 0)
(0.608354 0.0981452 0)
(0.624839 0.108287 0)
(0.641756 0.118507 0)
(0.659045 0.128787 0)
(0.676654 0.139105 0)
(0.694534 0.149443 0)
(0.712637 0.159779 0)
(0.730917 0.170092 0)
(0.749332 0.180361 0)
(0.767838 0.190562 0)
(0.786396 0.200676 0)
(0.804966 0.210679 0)
(0.823513 0.220551 0)
(0.842004 0.23027 0)
(0.860412 0.239818 0)
(0.878718 0.249178 0)
(0.896929 0.258343 0)
(0.915101 0.267247 0)
(0.934007 0.276313 -1.64196e-025)
(0.457276 0.00698629 0)
(0.465563 0.0129033 0)
(0.474891 0.022659 0)
(0.485211 0.0324462 0)
(0.496472 0.0421868 0)
(0.508622 0.052055 0)
(0.521604 0.0621099 0)
(0.535359 0.0723373 0)
(0.549825 0.0827171 0)
(0.564942 0.0932331 0)
(0.580651 0.103869 0)
(0.596897 0.114609 0)
(0.613625 0.125434 0)
(0.63078 0.136321 0)
(0.648312 0.147248 0)
(0.666172 0.158195 0)
(0.684314 0.169136 0)
(0.702693 0.180049 0)
(0.721267 0.190909 0)
(0.739993 0.201693 0)
(0.758831 0.212376 0)
(0.777742 0.222933 0)
(0.796688 0.233342 0)
(0.815634 0.243579 0)
(0.834546 0.253622 0)
(0.853399 0.263452 0)
(0.872176 0.273056 0)
(0.890886 0.282412 0)
(0.90961 0.291537 -6.35608e-028)
(0.433931 0.00737826 0)
(0.441719 0.0136371 0)
(0.450551 0.0239535 0)
(0.46038 0.0342907 0)
(0.471162 0.0445804 0)
(0.48285 0.0550089 0)
(0.495393 0.0656372 0)
(0.508738 0.0764504 0)
(0.522829 0.0874274 0)
(0.53761 0.0985518 0)
(0.553028 0.109807 0)
(0.569029 0.121173 0)
(0.585565 0.13263 0)
(0.602585 0.144155 0)
(0.620039 0.155724 0)
(0.637884 0.167314 0)
(0.656072 0.178897 0)
(0.674562 0.190447 0)
(0.69331 0.201937 0)
(0.712275 0.213339 0)
(0.731416 0.224626 0)
(0.750694 0.235769 0)
(0.770069 0.246742 0)
(0.789503 0.257518 0)
(0.808959 0.268071 0)
(0.828404 0.27838 0)
(0.847811 0.288424 0)
(0.867159 0.298187 0)
(0.886453 0.307654 9.22301e-026)
(0.410709 0.00777858 0)
(0.418007 0.0143888 0)
(0.426349 0.0252813 0)
(0.43569 0.0361816 0)
(0.445992 0.0470345 0)
(0.457215 0.0580392 0)
(0.469314 0.0692585 0)
(0.482243 0.0806767 0)
(0.495951 0.0922725 0)
(0.510389 0.104029 0)
(0.525508 0.115929 0)
(0.541261 0.127951 0)
(0.5576 0.140075 0)
(0.57448 0.152275 0)
(0.591855 0.164526 0)
(0.609682 0.176799 0)
(0.627919 0.189066 0)
(0.646525 0.201297 0)
(0.665459 0.21346 0)
(0.68468 0.225524 0)
(0.704148 0.237456 0)
(0.723821 0.249225 0)
(0.74366 0.260799 0)
(0.763623 0.272147 0)
(0.783671 0.28324 0)
(0.803764 0.294049 0)
(0.823867 0.30455 0)
(0.843946 0.314721 0)
(0.863982 0.324545 9.79026e-026)
(0.387657 0.0081841 0)
(0.394475 0.0151551 0)
(0.402333 0.0266363 0)
(0.411189 0.03811 0)
(0.42101 0.0495379 0)
(0.431763 0.0611326 0)
(0.443412 0.0729588 0)
(0.455915 0.0850003 0)
(0.46923 0.0972358 0)
(0.483312 0.109649 0)
(0.498118 0.122221 0)
(0.513606 0.134931 0)
(0.529734 0.147756 0)
(0.546463 0.160671 0)
(0.563751 0.173646 0)
(0.581557 0.186647 0)
(0.599843 0.199645 0)
(0.618571 0.212605 0)
(0.637701 0.225491 0)
(0.657194 0.238266 0)
(0.67701 0.250895 0)
(0.697108 0.263339 0)
(0.717447 0.27556 0)
(0.737984 0.287523 0)
(0.758674 0.299192 0)
(0.779476 0.310534 0)
(0.800343 0.321517 0)
(0.821235 0.332115 0)
(0.842117 0.342303 -1.03259e-025)
(0.364825 0.00859128 0)
(0.371173 0.0159322 0)
(0.378555 0.0280118 0)
(0.386927 0.0400661 0)
(0.396264 0.0520782 0)
(0.406542 0.0642748 0)
(0.41773 0.0767223 0)
(0.429796 0.0894041 0)
(0.442701 0.1023 0)
(0.45641 0.115393 0)
(0.470886 0.128664 0)
(0.486091 0.142094 0)
(0.50199 0.155655 0)
(0.51855 0.169321 0)
(0.535736 0.183058 0)
(0.55351 0.196834 0)
(0.571839 0.210612 0)
(0.590687 0.224355 0)
(0.610018 0.23802 0)
(0.629794 0.251567 0)
(0.649978 0.264951 0)
(0.670529 0.278128 0)
(0.691404 0.291055 0)
(0.712559 0.303686 0)
(0.733948 0.31598 0)
(0.75552 0.327896 0)
(0.777227 0.339395 0)
(0.799016 0.350443 0)
(0.82084 0.361011 1.08512e-025)
(0.342264 0.00899619 0)
(0.348154 0.0167153 0)
(0.355065 0.0293996 0)
(0.362954 0.0420382 0)
(0.371804 0.0546404 0)
(0.381598 0.0674475 0)
(0.392315 0.0805273 0)
(0.403927 0.0938633 0)
(0.416406 0.107436 0)
(0.429721 0.121229 0)
(0.443844 0.135226 0)
(0.458745 0.149402 0)
(0.474394 0.163733 0)
(0.490764 0.178187 0)
(0.507826 0.192733 0)
(0.525549 0.207333 0)
(0.543903 0.221947 0)
(0.562861 0.236531 0)
(0.582388 0.25104 0)
(0.602453 0.265424 0)
(0.623018 0.279632 0)
(0.644046 0.293612 0)
(0.665492 0.307311 0)
(0.687313 0.320676 0)
(0.709457 0.333654 0)
(0.731871 0.346195 0)
(0.754497 0.358253 0)
(0.777275 0.369784 0)
(0.800146 0.380752 -2.28306e-025)
(0.320026 0.00939495 0)
(0.325471 0.017499 0)
(0.331918 0.0307906 0)
(0.339325 0.0440134 0)
(0.347682 0.0572087 0)
(0.356984 0.070632 0)
(0.367215 0.0843522 0)
(0.378356 0.0983535 0)
(0.390387 0.112618 0)
(0.403285 0.12713 0)
(0.417028 0.141873 0)
(0.431595 0.156825 0)
(0.446964 0.171959 0)
(0.463113 0.187245 0)
(0.480022 0.202647 0)
(0.497667 0.218125 0)
(0.516025 0.233633 0)
(0.535074 0.249124 0)
(0.554788 0.264545 0)
(0.575138 0.27984 0)
(0.596093 0.294949 0)
(0.617616 0.30981 0)
(0.639666 0.32436 0)
(0.662197 0.338533 0)
(0.685157 0.352267 0)
(0.708485 0.365497 0)
(0.732119 0.378167 0)
(0.755987 0.390223 0)
(0.780018 0.401616 1.07934e-027)
(0.298167 0.00978404 0)
(0.303177 0.0182767 0)
(0.309167 0.0321746 0)
(0.316091 0.0459781 0)
(0.32395 0.0597659 0)
(0.332748 0.0738083 0)
(0.342479 0.0881747 0)
(0.35313 0.10285 0)
(0.364689 0.117818 0)
(0.377142 0.133067 0)
(0.390475 0.148579 0)
(0.404674 0.164335 0)
(0.419725 0.180306 0)
(0.435615 0.196463 0)
(0.452333 0.212767 0)
(0.469865 0.229174 0)
(0.488196 0.245638 0)
(0.507311 0.262104 0)
(0.527192 0.278513 0)
(0.547816 0.294802 0)
(0.569159 0.310901 0)
(0.591191 0.326735 0)
(0.613872 0.342229 0)
(0.637158 0.357303 0)
(0.660994 0.371878 0)
(0.685316 0.385876 0)
(0.710051 0.399223 0)
(0.735118 0.411853 0)
(0.760431 0.423704 1.51098e-027)
(0.276742 0.0101606 0)
(0.281327 0.0190403 0)
(0.286864 0.03354 0)
(0.293304 0.0479164 0)
(0.30066 0.0622926 0)
(0.308943 0.076953 0)
(0.318156 0.0919672 0)
(0.328296 0.107321 0)
(0.339357 0.123002 0)
(0.351335 0.139 0)
(0.364223 0.1553 0)
(0.378016 0.171883 0)
(0.392709 0.188722 0)
(0.408299 0.205786 0)
(0.424784 0.223035 0)
(0.442159 0.240427 0)
(0.460418 0.25791 0)
(0.479559 0.275426 0)
(0.499573 0.29291 0)
(0.520448 0.310288 0)
(0.542169 0.327479 0)
(0.564713 0.344395 0)
(0.588046 0.360945 0)
(0.612128 0.37703 0)
(0.636902 0.392552 0)
(0.662301 0.407412 0)
(0.688242 0.421518 0)
(0.714631 0.434783 0)
(0.741363 0.44713 1.30913e-025)
(0.255809 0.0105232 0)
(0.259975 0.0197802 0)
(0.265063 0.0348733 0)
(0.271017 0.0498098 0)
(0.277861 0.0647651 0)
(0.285617 0.0800372 0)
(0.294296 0.095695 0)
(0.303903 0.111727 0)
(0.31444 0.128122 0)
(0.32591 0.144876 0)
(0.338317 0.161975 0)
(0.351662 0.179402 0)
(0.365952 0.197133 0)
(0.381192 0.215136 0)
(0.397391 0.233377 0)
(0.414554 0.25181 0)
(0.432689 0.270381 0)
(0.451803 0.289028 0)
(0.471903 0.307678 0)
(0.492992 0.32625 0)
(0.515066 0.344651 0)
(0.538113 0.362777 0)
(0.562112 0.380517 0)
(0.587025 0.397751 0)
(0.612801 0.414353 0)
(0.639366 0.4302 0)
(0.666631 0.445168 0)
(0.694482 0.459147 0)
(0.722792 0.472037 -1.33402e-025)
(0.235424 0.0108719 0)
(0.239173 0.0204851 0)
(0.243814 0.0361593 0)
(0.249281 0.0516366 0)
(0.255607 0.0671543 0)
(0.262826 0.0830237 0)
(0.270954 0.0993127 0)
(0.280006 0.116011 0)
(0.289992 0.133115 0)
(0.300922 0.150621 0)
(0.312808 0.16852 0)
(0.325662 0.186799 0)
(0.339497 0.205438 0)
(0.354329 0.224407 0)
(0.370176 0.243675 0)
(0.387062 0.263198 0)
(0.405005 0.282919 0)
(0.424028 0.302775 0)
(0.444153 0.32269 0)
(0.4654 0.342574 0)
(0.487784 0.36232 0)
(0.51131 0.381809 0)
(0.535972 0.400905 0)
(0.561744 0.41946 0)
(0.588582 0.437316 0)
(0.616411 0.454312 0)
(0.645131 0.470286 0)
(0.674608 0.48509 0)
(0.704687 0.498592 1.40614e-025)
(0.215644 0.011209 0)
(0.218975 0.0211428 0)
(0.223172 0.0373801 0)
(0.228152 0.0533699 0)
(0.233956 0.0694228 0)
(0.240627 0.0858637 0)
(0.248191 0.102758 0)
(0.256669 0.1201 0)
(0.266077 0.137889 0)
(0.276435 0.156127 0)
(0.287762 0.174812 0)
(0.300077 0.193934 0)
(0.313403 0.213478 0)
(0.327765 0.233422 0)
(0.343194 0.253734 0)
(0.359724 0.274377 0)
(0.377393 0.2953 0)
(0.396237 0.316439 0)
(0.416301 0.337717 0)
(0.437626 0.359035 0)
(0.460251 0.380278 0)
(0.484206 0.401306 0)
(0.509507 0.421957 0)
(0.53615 0.44205 0)
(0.564102 0.461385 0)
(0.593294 0.47975 0)
(0.623617 0.496931 0)
(0.654915 0.512724 0)
(0.686994 0.526948 0)
(0.196523 0.0115385 0)
(0.199433 0.0217398 0)
(0.203194 0.038515 0)
(0.207689 0.0549757 0)
(0.21297 0.0715221 0)
(0.219089 0.0884919 0)
(0.226079 0.105948 0)
(0.233965 0.123888 0)
(0.242774 0.142318 0)
(0.25253 0.161247 0)
(0.26326 0.180677 0)
(0.27499 0.200605 0)
(0.287751 0.221025 0)
(0.301577 0.24192 0)
(0.31651 0.26327 0)
(0.332596 0.285045 0)
(0.349891 0.307202 0)
(0.368451 0.329681 0)
(0.388342 0.352406 0)
(0.409635 0.375278 0)
(0.4324 0.39817 0)
(0.4567 0.420928 0)
(0.482584 0.443362 0)
(0.510079 0.465252 0)
(0.539178 0.486345 0)
(0.569826 0.506366 0)
(0.601911 0.525027 0)
(0.635255 0.542046 0)
(0.669612 0.557167 1.43443e-025)
(0.178111 0.0118633 0)
(0.180604 0.0222621 0)
(0.183939 0.0395386 0)
(0.187959 0.0564112 0)
(0.192723 0.0733901 0)
(0.198291 0.0908252 0)
(0.204701 0.108776 0)
(0.211987 0.127244 0)
(0.220179 0.146244 0)
(0.229309 0.16579 0)
(0.239408 0.185894 0)
(0.250509 0.20656 0)
(0.262649 0.227792 0)
(0.275869 0.249587 0)
(0.29022 0.271934 0)
(0.305761 0.294817 0)
(0.322567 0.318204 0)
(0.340716 0.342049 0)
(0.360299 0.366281 0)
(0.38142 0.390803 0)
(0.404186 0.415487 0)
(0.428704 0.440163 0)
(0.455069 0.46462 0)
(0.483356 0.488594 0)
(0.513599 0.511774 0)
(0.545774 0.533805 0)
(0.57978 0.554299 0)
(0.615417 0.572866 0)
(0.652383 0.589139 -5.60732e-027)
(0.160456 0.0121827 0)
(0.162545 0.0226943 0)
(0.165477 0.0404194 0)
(0.169039 0.0576234 0)
(0.173298 0.0749519 0)
(0.178322 0.0927644 0)
(0.184157 0.111116 0)
(0.190839 0.130015 0)
(0.198405 0.149482 0)
(0.206892 0.169542 0)
(0.216333 0.190213 0)
(0.226765 0.211514 0)
(0.238229 0.23346 0)
(0.250773 0.256063 0)
(0.264455 0.27933 0)
(0.279347 0.303258 0)
(0.295538 0.327837 0)
(0.313129 0.353035 0)
(0.332243 0.378794 0)
(0.353019 0.405027 0)
(0.375608 0.431611 0)
(0.400169 0.458373 0)
(0.42686 0.485081 0)
(0.455822 0.511434 0)
(0.487153 0.537057 0)
(0.520886 0.5615 0)