/*--------------------------------*- C++ -*----------------------------------*\
| =========                 |                                                 |
| \\      /  F ield         | OpenFOAM: The Open Source CFD Toolbox           |
|  \\    /   O peration     | Version:  5.x                                   |
|   \\  /    A nd           | Web:      www.OpenFOAM.org                      |
|    \\/     M anipulation  |                                                 |
\*---------------------------------------------------------------------------*/
/*   Windows 32 and 64 bit porting by blueCAPE: http://www.bluecape.com.pt   *\
|  Based on Windows porting (2.0.x v4) by Symscape: http://www.symscape.com   |
\*---------------------------------------------------------------------------*/
FoamFile
{
    version     2.0;
    format      ascii;
    class       volScalarField;
    location    "280";
    object      epsilon;
}
// * * * * * * * * * * * * * * * * * * * * * * * * * * * * * * * * * * * * * //

dimensions      [0 2 -3 0 0 0 0];

internalField   nonuniform List<scalar> 
43900
(
0.00152925
0.00151909
0.00151979
0.00151971
0.00151968
0.00151967
0.00151967
0.00151967
0.00151967
0.00151968
0.00151967
0.00151967
0.00151968
0.00151968
0.00151968
0.00151968
0.00151968
0.00151969
0.00151969
0.00151969
0.00151969
0.00151969
0.00151969
0.00151969
0.00151969
0.00151969
0.00151969
0.00151969
0.00151969
0.000413633
3.81809e-005
3.1666e-005
3.152e-005
3.27301e-005
3.27935e-005
3.28061e-005
3.27921e-005
3.27924e-005
3.27964e-005
3.27948e-005
3.27959e-005
3.27992e-005
3.28026e-005
3.28031e-005
3.28044e-005
3.28087e-005
3.28091e-005
3.28096e-005
3.28108e-005
3.28097e-005
3.28113e-005
3.28129e-005
3.28121e-005
3.28135e-005
3.28138e-005
3.28129e-005
3.28149e-005
3.28156e-005
0.0508099
0.00574542
0.000288942
1.14473e-005
1.7085e-006
1.32768e-006
1.32669e-006
1.4098e-006
1.41881e-006
1.41769e-006
1.4167e-006
1.41677e-006
1.4172e-006
1.41761e-006
1.41787e-006
1.41828e-006
1.41857e-006
1.41864e-006
1.41894e-006
1.41911e-006
1.41926e-006
1.41954e-006
1.4196e-006
1.4197e-006
1.41991e-006
1.41996e-006
1.42009e-006
1.42026e-006
1.42024e-006
0.146338
0.0436695
0.00963806
0.00131165
8.27776e-005
3.38024e-006
3.40015e-007
1.22325e-007
1.08344e-007
1.1563e-007
1.19936e-007
1.20158e-007
1.19609e-007
1.19503e-007
1.19634e-007
1.19688e-007
1.19685e-007
1.19715e-007
1.19758e-007
1.19779e-007
1.19807e-007
1.19836e-007
1.19856e-007
1.19881e-007
1.19903e-007
1.19918e-007
1.19937e-007
1.19952e-007
1.19965e-007
0.197852
0.0845656
0.0338769
0.0112537
0.00264838
0.000357152
2.2467e-005
9.65204e-007
8.42555e-008
2.22397e-008
1.64935e-008
1.72454e-008
1.84634e-008
1.86115e-008
1.84256e-008
1.84232e-008
1.84849e-008
1.84781e-008
1.84728e-008
1.8482e-008
1.84901e-008
1.84947e-008
1.84981e-008
1.85022e-008
1.85067e-008
1.85094e-008
1.8513e-008
1.85171e-008
1.85193e-008
0.222832
0.10917
0.0533204
0.0251126
0.0105042
0.00331923
0.000706787
7.73168e-005
4.26326e-006
2.00744e-007
1.89534e-008
5.49197e-009
4.10181e-009
4.4534e-009
4.74373e-009
4.71299e-009
4.63377e-009
4.65961e-009
4.67559e-009
4.67106e-009
4.67193e-009
4.67506e-009
4.67598e-009
4.67687e-009
4.67795e-009
4.67892e-009
4.68016e-009
4.68095e-009
4.68136e-009
0.234466
0.123795
0.0661978
0.0353488
0.0183977
0.00892673
0.00356727
0.000974468
0.000152503
1.15619e-005
5.90482e-007
3.2126e-008
4.28836e-009
1.71679e-009
1.53318e-009
1.68029e-009
1.75041e-009
1.71193e-009
1.70439e-009
1.70977e-009
1.70741e-009
1.70477e-009
1.70609e-009
1.70745e-009
1.70788e-009
1.70805e-009
1.70839e-009
1.70885e-009
1.70934e-009
0.23759
0.13134
0.073943
0.0420502
0.0238551
0.0132367
0.00692736
0.00315575
0.00102635
0.000212205
2.20147e-005
1.33032e-006
7.32432e-008
5.18751e-009
1.18363e-009
7.31284e-010
7.52754e-010
8.14491e-010
8.07517e-010
8.02908e-010
8.08597e-010
8.09724e-010
8.07328e-010
8.06855e-010
8.07389e-010
8.07851e-010
8.08177e-010
8.08425e-010
8.08504e-010
0.237043
0.135639
0.0792194
0.0469641
0.0280391
0.0166747
0.00971275
0.00538411
0.00268289
0.00101665
0.000244715
3.10539e-005
2.19529e-006
1.31729e-007
8.52286e-009
1.06533e-009
4.69258e-010
4.08179e-010
4.50599e-010
4.54433e-010
4.48213e-010
4.51213e-010
4.55503e-010
4.55033e-010
4.54195e-010
4.54155e-010
4.54248e-010
4.54402e-010
4.54551e-010
0.232817
0.136272
0.0816241
0.0497896
0.0307531
0.0190942
0.0117979
0.0071453
0.00413544
0.00217484
0.000914021
0.000242493
3.50766e-005
2.82255e-006
1.86521e-007
1.26165e-008
1.17694e-009
3.72517e-010
2.62892e-010
2.80169e-010
2.88987e-010
2.83197e-010
2.82526e-010
2.84725e-010
2.85822e-010
2.85888e-010
2.8594e-010
2.86048e-010
2.86101e-010
0.225744
0.134564
0.0820326
0.0510365
0.0322523
0.0205929
0.0131937
0.00840168
0.00524208
0.00312937
0.0017082
0.000766292
0.00021568
3.37998e-005
3.00697e-006
2.18541e-007
1.59205e-008
1.38827e-009
3.08333e-010
1.92222e-010
1.92132e-010
2.01028e-010
1.97632e-010
1.94778e-010
1.95866e-010
1.96606e-010
1.96753e-010
1.96803e-010
1.96928e-010
0.217832
0.131789
0.0815956
0.0515678
0.0331574
0.0215983
0.014181
0.00932331
0.00608138
0.00388143
0.00236946
0.00132589
0.000617162
0.00017904
2.94174e-005
2.81861e-006
2.22942e-007
1.7535e-008
1.54732e-009
2.72638e-010
1.52383e-010
1.41328e-010
1.51491e-010
1.50067e-010
1.4698e-010
1.46792e-010
1.47155e-010
1.47361e-010
1.47369e-010
0.209029
0.128101
0.0803485
0.0514446
0.0335508
0.0222047
0.0148526
0.00999107
0.00671463
0.00446738
0.00290231
0.00180026
0.00102265
0.000483813
0.00014091
2.34571e-005
2.37778e-006
2.0452e-007
1.74869e-008
1.62082e-009
2.54992e-010
1.29735e-010
1.08239e-010
1.17084e-010
1.19514e-010
1.17963e-010
1.17306e-010
1.17389e-010
1.17533e-010
0.199503
0.123632
0.0784192
0.0508149
0.0335241
0.0224846
0.0152691
0.010457
0.00718588
0.00492217
0.00332974
0.00219386
0.00137611
0.000787487
0.000372479
0.000106707
1.76671e-005
1.89807e-006
1.79017e-007
1.6792e-008
1.6741e-009
2.52282e-010
1.12276e-010
8.82816e-011
9.33741e-011
9.71615e-011
9.6511e-011
9.60429e-011
9.59465e-011
0.189449
0.118563
0.0759583
0.0497273
0.0331863
0.0224981
0.0154761
0.0107567
0.00752386
0.00526891
0.00366926
0.00251704
0.00167665
0.00105911
0.000606451
0.000282738
7.89063e-005
1.30163e-005
1.48532e-006
1.53331e-007
1.57844e-008
1.70177e-009
2.53088e-010
9.72711e-011
7.34693e-011
7.45467e-011
7.78704e-011
7.80068e-011
7.78997e-011
0.179068
0.113083
0.0731011
0.0483045
0.0325502
0.0223157
0.0155134
0.01092
0.00775132
0.0055253
0.00393439
0.00277911
0.00192823
0.00129457
0.000820088
0.000466772
0.000211465
5.71108e-005
9.40837e-006
1.14324e-006
1.2868e-007
1.44299e-008
1.6793e-009
2.51332e-010
8.62584e-011
6.25064e-011
5.98477e-011
6.24097e-011
6.31222e-011
0.168509
0.10732
0.0699639
0.0466299
0.0317071
0.0219453
0.0154221
0.0109734
0.00788895
0.00570791
0.00413865
0.00299091
0.00213875
0.00149779
0.00101107
0.000640281
0.000360332
0.000156353
4.08505e-005
6.79402e-006
8.85617e-007
1.0895e-007
1.3363e-008
1.69059e-009
2.58915e-010
7.98314e-011
5.51224e-011
4.8869e-011
5.05133e-011
0.157853
0.101354
0.0666118
0.044762
0.0306952
0.0214367
0.0152119
0.0109384
0.00795396
0.00583046
0.00429282
0.00316083
0.00231446
0.00167271
0.00118037
0.000799678
0.000505069
0.000279934
0.000115065
2.92132e-005
4.96727e-006
6.98045e-007
9.38314e-008
1.25466e-008
1.71219e-009
2.70131e-010
7.68826e-011
4.94785e-011
4.25538e-011
0.147187
0.0952578
0.0631002
0.0427423
0.0295513
0.0208142
0.0149044
0.0108259
0.00795147
0.00589856
0.0044023
0.00329355
0.00245899
0.00182162
0.00132854
0.000943138
0.000640097
0.000402223
0.0002186
8.39393e-005
2.08693e-005
3.66937e-006
5.5597e-007
8.118e-008
1.17355e-008
1.71568e-009
2.81009e-010
7.58945e-011
4.48028e-011
0.136598
0.0890976
0.0594792
0.0406072
0.0283014
0.0200997
0.0145185
0.0106434
0.00790154
0.00592188
0.00447335
0.00339361
0.00257586
0.00194723
0.00145738
0.00107117
0.000764
0.000518715
0.000323765
0.000172222
6.12005e-005
1.50319e-005
2.75361e-006
4.48769e-007
7.07924e-008
1.10467e-008
1.73361e-009
2.97237e-010
7.63056e-011
0.126165
0.0829353
0.0557944
0.0383897
0.0269692
0.0193103
0.0140665
0.0104044
0.00779696
0.00590494
0.00451033
0.00346448
0.00266766
0.00205139
0.00156804
0.00118416
0.000876082
0.000627064
0.000425429
0.000263479
0.00013725
4.64419e-005
1.11466e-005
2.11864e-006
3.68377e-007
6.22063e-008
1.03926e-008
1.74317e-009
3.09038e-010
0.115972
0.0768326
0.0520904
0.0361219
0.0255778
0.0184627
0.0135612
0.0101172
0.00765089
0.00585224
0.0045141
0.0035076
0.00273599
0.00213548
0.00166148
0.00128248
0.000975993
0.000725906
0.00052074
0.00035252
0.000216116
0.000108634
3.5537e-005
8.47676e-006
1.67903e-006
3.10364e-007
5.58842e-008
9.93118e-009
1.73486e-009
0.106095
0.0708467
0.0484095
0.0338345
0.0241494
0.0175731
0.0130147
0.00979218
0.00747066
0.00576725
0.00449559
0.00352939
0.00278489
0.00220223
0.00173966
0.00136755
0.00106461
0.000815485
0.00060907
0.00043742
0.000295049
0.000178478
8.60294e-005
2.74857e-005
6.61927e-006
1.36904e-006
2.67372e-007
5.09254e-008
9.3715e-009
0.0966013
0.0650287
0.0447892
0.0315552
0.0227044
0.0166564
0.0124379
0.00943704
0.00726192
0.00565669
0.00445105
0.00352833
0.00281455
0.00225241
0.00180341
0.00144001
0.0011423
0.00089578
0.000689854
0.000516799
0.00037109
0.000248971
0.000148254
6.80573e-005
2.13868e-005
5.23443e-006
1.12877e-006
2.31566e-007
4.54361e-008
0.087547
0.0594223
0.0412625
0.0293085
0.021261
0.0157262
0.011841
0.00905987
0.00703138
0.00552509
0.00438709
0.00351315
0.00283005
0.00228936
0.00185513
0.00150168
0.00121041
0.000967695
0.000763505
0.000590444
0.000443109
0.000317665
0.000211607
0.000123698
5.36211e-005
1.6661e-005
4.16215e-006
9.36682e-007
1.97392e-007
0.0789762
0.0540629
0.037857
0.0271152
0.0198348
0.0147944
0.0112331
0.00866734
0.00678399
0.00537665
0.00430688
0.00348008
0.00282983
0.00231309
0.00189541
0.00155335
0.00126974
0.00103195
0.000830582
0.00065864
0.000510942
0.000383705
0.000274302
0.000181162
0.000103588
4.22554e-005
1.30223e-005
3.33187e-006
7.64954e-007
0.0709209
0.0489779
0.0345942
0.0249922
0.018439
0.0138711
0.010622
0.00826571
0.00652492
0.0052158
0.00421443
0.00343586
0.00282115
0.00232784
0.00192699
0.00159691
0.00132169
0.00108959
0.000891842
0.000721871
0.000574749
0.000446819
0.000335447
0.000238888
0.000156137
8.70812e-005
3.38008e-005
1.03463e-005
2.65195e-006
0.0634005
0.044186
0.0314904
0.0229526
0.0170838
0.0129643
0.010014
0.00785991
0.00625795
0.00504537
0.00411191
0.00338168
0.00280153
0.00233295
0.0019503
0.00163323
0.00136725
0.0011416
0.00094816
0.000780834
0.000634995
0.000507164
0.000394773
0.000296021
0.000209751
0.000135488
7.30644e-005
2.75473e-005
8.2163e-006
0.0564237
0.0396988
0.0285566
0.0210061
0.0157774
0.0120805
0.0094142
0.00745403
0.00598639
0.0048681
0.00400159
0.00331931
0.00277368
0.00233081
0.00196677
0.00166333
0.00140727
0.00118872
0.00100024
0.000836171
0.000692219
0.000565117
0.000452415
0.00035233
0.000263645
0.000185668
0.000118234
6.11222e-005
2.22028e-005
0.0499901
0.0355218
0.0257998
0.0191593
0.0145253
0.0112245
0.00882661
0.00705128
0.00571284
0.00468611
0.00388529
0.00325067
0.00274008
0.00232342
0.00197803
0.00168851
0.00144279
0.00123184
0.00104881
0.000888515
0.000746965
0.000621117
0.000508661
0.000407883
0.000317562
0.000236921
0.000165619
0.000103927
5.02783e-005
0.0440916
0.0316549
0.0232231
0.0174161
0.0133316
0.0103999
0.00825419
0.0066541
0.00543929
0.004501
0.00376425
0.00317657
0.0027007
0.00230976
0.00198404
0.00170916
0.00147437
0.00127154
0.00109447
0.000938426
0.000799742
0.000675609
0.000563874
0.000462914
0.000371547
0.000288973
0.000214737
0.000149129
9.06909e-005
0.0387141
0.0280942
0.0208267
0.0157788
0.0121989
0.00960907
0.00769912
0.00626434
0.00516725
0.00431399
0.00363948
0.00309787
0.0026564
0.00229132
0.00198509
0.00172551
0.00150231
0.00130821
0.00113765
0.000986358
0.000851006
0.000729029
0.000618446
0.000517748
0.000425815
0.000341865
0.000265409
0.000196448
0.000134914
0.0338387
0.0248321
0.0186088
0.0142476
0.0111285
0.00885367
0.00716296
0.00588335
0.00489784
0.00412601
0.00351171
0.00301518
0.00260781
0.00226879
0.00198281
0.00173846
0.00152713
0.00134222
0.00117869
0.00103266
0.000901129
0.000781762
0.000672758
0.000572735
0.000480658
0.000395785
0.000317637
0.000246043
0.000181273
0.0294429
0.021859
0.0165657
0.0128219
0.010121
0.00813473
0.00664681
0.00551215
0.00463192
0.00393771
0.00338146
0.00292888
0.00255519
0.00224227
0.00197674
0.0017481
0.0015491
0.00137387
0.00121788
0.00107763
0.000950425
0.000834148
0.00072717
0.000628238
0.000536413
0.000451015
0.000371597
0.000297942
0.000230167
0.0255018
0.019163
0.0146922
0.0115
0.00917622
0.00745283
0.00615146
0.00515149
0.00437011
0.00374959
0.00324906
0.00283916
0.00249857
0.00221157
0.00196639
0.00175413
0.00156811
0.00140317
0.00125533
0.00112146
0.00099914
0.00088648
0.000782014
0.000684617
0.000593449
0.000507903
0.000427579
0.000352274
0.000281982
0.0219885
0.0167311
0.0129826
0.0102796
0.00829373
0.00680827
0.00567749
0.00480199
0.00411295
0.00356203
0.00311475
0.00274616
0.00243801
0.00217672
0.0019521
0.00175633
0.00158395
0.00143001
0.00129101
0.0011642
0.00104742
0.000938983
0.000837587
0.000742227
0.000652159
0.000566855
0.000485973
0.000409346
0.000336956
0.0188751
0.0145493
0.0114301
0.00915781
0.00747268
0.00620115
0.00522537
0.00446418
0.0038609
0.00337538
0.00297873
0.00264993
0.00237343
0.00213764
0.00193373
0.00175496
0.00159657
0.00145422
0.00132478
0.00120577
0.00109528
0.000991788
0.000894125
0.0008014
0.000712956
0.000628339
0.000547272
0.000469639
0.000395458
0.0161328
0.0126029
0.0100275
0.00813158
0.00671199
0.00563141
0.00479549
0.00413859
0.00361445
0.00318997
0.00284119
0.0025505
0.00230477
0.00209414
0.00191111
0.00174999
0.0016059
0.00147568
0.00135648
0.00124607
0.00114269
0.00104496
0.000951822
0.000862454
0.000776272
0.000692884
0.000612071
0.000533774
0.000458069
0.0137327
0.0108765
0.00876717
0.00719733
0.00601038
0.00509891
0.00438822
0.00382575
0.00337408
0.00300621
0.00270237
0.00244792
0.00223189
0.00204593
0.00188364
0.00174006
0.001611
0.00149374
0.00138566
0.00128476
0.00118946
0.00109848
0.00101081
0.000925688
0.00084257
0.000761095
0.000681088
0.000602539
0.000525587
0.0116455
0.0093545
0.00764093
0.00635119
0.00536629
0.00460336
0.00400387
0.0035262
0.00314037
0.00282453
0.00256253
0.00234231
0.00215471
0.00199272
0.00185089
0.00172486
0.00161097
0.00150759
0.00141161
0.0013213
0.0012352
0.00115213
0.0010711
0.000991355
0.000912337
0.000833678
0.000755208
0.000676946
0.000599089
0.00984232
0.00802084
0.00664022
0.00558888
0.00477793
0.00414428
0.00364267
0.00324048
0.00291392
0.00264549
0.00242209
0.00223385
0.00207321
0.00193433
0.0018126
0.00170438
0.00160675
0.00151715
0.00143384
0.00135505
0.00127935
0.00120551
0.00113253
0.00105959
0.00098603
0.000911416
0.00083551
0.000758308
0.000680032
0.00829456
0.00685928
0.00575612
0.00490579
0.00424321
0.00372106
0.0033048
0.00296915
0.00269544
0.00246976
0.00228159
0.00212292
0.00198757
0.00187068
0.00176843
0.00167775
0.00159619
0.00152084
0.00145117
0.001385
0.00132097
0.00125787
0.00119462
0.00113024
0.00106393
0.000995049
0.000923196
0.00084823
0.00077032
0.00697439
0.00585361
0.00497941
0.00429699
0.00375977
0.0033329
0.00299038
0.00271284
0.00248579
0.00229827
0.00214192
0.00201028
0.00189833
0.0018021
0.00171841
0.00164468
0.00157874
0.00151849
0.00146286
0.00141012
0.00135898
0.00130815
0.00125646
0.00120273
0.0011459
0.00108503
0.00101935
0.000948427
0.000872204
0.00585512
0.00498789
0.00430083
0.00375737
0.00332513
0.00297897
0.00269961
0.0024724
0.00228619
0.00213244
0.00200453
0.00189732
0.00180677
0.00172965
0.00166338
0.00160582
0.00155522
0.00151015
0.00146843
0.00142967
0.00139235
0.00135519
0.00131687
0.00127604
0.00123129
0.00118123
0.00112459
0.00106034
0.000987928
0.00491163
0.00424679
0.00371131
0.00328186
0.00293687
0.0026586
0.002433
0.00224912
0.00209847
0.00197443
0.00187182
0.00178654
0.00171537
0.00165574
0.00160555
0.00156311
0.00152697
0.00149588
0.00146836
0.00144384
0.00142089
0.00139836
0.00137494
0.00134909
0.00131908
0.00128299
0.00123886
0.00118478
0.00111926
0.00412082
0.00361599
0.00320226
0.00286573
0.00259285
0.00237149
0.00219158
0.00204503
0.00192542
0.00182762
0.00174756
0.001682
0.00162838
0.00158464
0.00154915
0.00152059
0.00149787
0.00148002
0.00146622
0.0014551
0.0014462
0.00143859
0.00143093
0.00142163
0.00140867
0.00138953
0.00136176
0.00132205
0.00126733
0.00346196
0.00308252
0.00276594
0.00250481
0.00229148
0.00211796
0.00197715
0.00186313
0.001771
0.00169678
0.00163722
0.0015897
0.00155219
0.00152303
0.00150096
0.00148507
0.00147457
0.00146876
0.00146732
0.00146841
0.0014725
0.00147941
0.00148759
0.00149557
0.00150111
0.00150082
0.00149359
0.00147312
0.00143326
0.00291691
0.00263494
0.00239555
0.00219567
0.00203184
0.00189904
0.00179237
0.00170745
0.00164049
0.00158828
0.00154811
0.00151777
0.00149562
0.00148028
0.0014707
0.00146656
0.00146726
0.00147155
0.00147964
0.00149211
0.00150826
0.00152835
0.00155152
0.00157658
0.00160157
0.00162329
0.001638
0.00163701
0.00161856
0.00247006
0.00226338
0.00208532
0.00193556
0.00181354
0.00171633
0.00164055
0.00158291
0.00154026
0.00150991
0.0014894
0.00147655
0.00147022
0.00146896
0.00147154
0.00147726
0.00148658
0.00149956
0.00151712
0.00153954
0.00156643
0.00159829
0.00163503
0.00167608
0.00172011
0.00176418
0.00180408
0.00182954
0.00182821
0.00210808
0.00195929
0.00183022
0.00172215
0.00163646
0.00157163
0.00152531
0.00149494
0.00147756
0.00147088
0.00147231
0.00147893
0.0014889
0.00150153
0.00151627
0.0015335
0.00155306
0.00157545
0.0016018
0.00163292
0.0016692
0.00171127
0.0017599
0.00181532
0.0018772
0.00194314
0.0020097
0.00206433
0.00208934
0.0018194
0.00171507
0.0016256
0.00155312
0.00150027
0.00146651
0.00145008
0.00144924
0.00146033
0.00148121
0.00150767
0.00153786
0.0015705
0.00160351
0.00163602
0.00166824
0.00170051
0.0017338
0.0017697
0.00180969
0.00185487
0.00190643
0.00196596
0.00203461
0.00211322
0.00220017
0.00229424
0.00237944
0.00243921
0.00159372
0.00152362
0.00146681
0.00142578
0.00140403
0.00140193
0.00141783
0.00145098
0.00149632
0.00155236
0.00161553
0.001682
0.00174899
0.0018137
0.00187452
0.00193108
0.00198394
0.00203449
0.00208526
0.00213853
0.00219615
0.00226025
0.00233324
0.00241728
0.00251416
0.00262356
0.00274694
0.00286473
0.00297061
0.00142155
0.00137805
0.0013489
0.00133683
0.00134601
0.00137751
0.0014311
0.00150488
0.00159729
0.00170478
0.00182286
0.00194629
0.00207016
0.00219014
0.00230302
0.00240711
0.00250234
0.00259013
0.00267434
0.00275796
0.00284417
0.00293623
0.00303746
0.0031519
0.00328108
0.00342912
0.00359549
0.00376651
0.00394452
0.00129409
0.00127158
0.00126669
0.00128222
0.00132362
0.00139303
0.00149145
0.00161979
0.00177643
0.00195811
0.00216018
0.00237626
0.0025992
0.0028219
0.00303829
0.00324414
0.00343741
0.00361849
0.00379159
0.00396133
0.00413253
0.00431011
0.00449821
0.00470514
0.00492499
0.00518281
0.00543632
0.00575934
0.0060577
0.00120324
0.00119768
0.00121465
0.00125783
0.00133388
0.00144687
0.00160132
0.00179995
0.00204436
0.00233377
0.00266492
0.0030317
0.00342577
0.00383776
0.00425865
0.00468122
0.00510106
0.00551722
0.00593158
0.0063539
0.00679341
0.00725924
0.00775921
0.00831425
0.00889297
0.00960773
0.0101861
0.0112761
0.0117378
0.00114171
0.00115012
0.00118772
0.00125918
0.00137289
0.00153685
0.00175914
0.00204791
0.0024105
0.00285211
0.00337488
0.00397714
0.00465365
0.00539679
0.0061985
0.00705263
0.00795712
0.00891571
0.0099373
0.0110362
0.0122505
0.013611
0.0151611
0.0169648
0.0190009
0.0216361
0.0239951
0.0291571
0.0302036
0.00110314
0.00112331
0.00118094
0.00128132
0.00143652
0.0016585
0.00196186
0.00236292
0.00287889
0.00352633
0.00431958
0.00526951
0.0063833
0.0076656
0.00912115
0.0107584
0.012594
0.0146567
0.0169918
0.0196649
0.0227707
0.026435
0.0308778
0.0363056
0.0431087
0.0520204
0.0624224
0.0829034
0.091346
0.00108218
0.00111236
0.00118971
0.00131998
0.00151968
0.00180661
0.00220401
0.00273989
0.00344657
0.00435929
0.00551456
0.0069487
0.0086976
0.0107982
0.0132922
0.0162324
0.0196905
0.0237674
0.0286063
0.0344054
0.0414582
0.0501395
0.0611151
0.0750191
0.0938223
0.118364
0.15477
0.21061
0.260474
0.00107523
0.00111379
0.0012109
0.00137151
0.00161844
0.00197639
0.00247973
0.00317207
0.00410698
0.00534764
0.00696611
0.00904285
0.0116677
0.0149429
0.0189901
0.0239611
0.0300534
0.0375314
0.0467588
0.05823
0.0726783
0.0910412
0.115071
0.146374
0.190724
0.2488
0.347192
0.470317
0.659723
0.00151969
0.00151969
0.00151969
0.00151969
0.00151969
0.00151969
0.0015197
0.0015197
0.00151969
0.00151969
0.00151969
0.0015197
0.0015197
0.00151969
0.00151969
0.00151969
0.00151969
0.0015197
0.0015197
0.0015197
0.0015197
0.0015197
0.0015197
0.0015197
0.0015197
0.0015197
0.0015197
0.00151969
0.00151969
0.00151969
0.0015197
0.0015197
0.0015197
0.0015197
0.0015197
0.0015197
0.0015197
0.0015197
0.0015197
0.0015197
0.0015197
0.0015197
0.0015197
0.0015197
0.0015197
0.0015197
0.0015197
0.0015197
0.0015197
0.0015197
0.0015197
0.0015197
0.0015197
0.0015197
0.0015197
0.0015197
0.0015197
0.0015197
0.0015197
0.0015197
0.0015197
0.0015197
0.0015197
0.0015197
0.0015197
0.0015197
0.0015197
0.0015197
0.0015197
0.0015197
0.0015197
0.00151971
0.0015197
0.00151971
0.0015197
0.00151971
0.0015197
0.0015197
0.00151971
0.0015197
0.00151971
0.0015197
0.00151971
0.00151971
0.00151971
0.00151971
0.00151971
0.00151971
0.00151971
0.00151971
0.00151971
0.00151971
0.00151971
0.00151971
0.00151971
0.00151971
0.00151971
0.00151971
0.00151971
0.00151971
0.00151971
0.00151971
0.00151971
0.00151971
0.00151971
0.00151971
0.00151971
0.00151971
0.00151971
0.00151971
0.00151971
0.00151971
0.00151971
0.00151971
0.00151971
0.00151971
0.00151971
0.00151971
0.00151971
0.00151971
0.00151971
0.00151971
0.00151971
0.00151971
0.00151971
0.00151971
0.00151971
0.00151971
0.00151971
0.00151971
0.00151971
0.00151971
0.00151971
0.00151972
0.00151972
0.00151972
0.00151972
0.00151973
0.00154202
3.28156e-005
3.2818e-005
3.28177e-005
3.2814e-005
3.28141e-005
3.28205e-005
3.28247e-005
3.28222e-005
3.28162e-005
3.28138e-005
3.28191e-005
3.28261e-005
3.28262e-005
3.28186e-005
3.28122e-005
3.28132e-005
3.28213e-005
3.28254e-005
3.28251e-005
3.28237e-005
3.28241e-005
3.28257e-005
3.28263e-005
3.2827e-005
3.2828e-005
3.2829e-005
3.28269e-005
3.2822e-005
3.28199e-005
3.28208e-005
3.28245e-005
3.28273e-005
3.28281e-005
3.28286e-005
3.28288e-005
3.28289e-005
3.2829e-005
3.28292e-005
3.28293e-005
3.28292e-005
3.2829e-005
3.28285e-005
3.28276e-005
3.28271e-005
3.28271e-005
3.28275e-005
3.2828e-005
3.28288e-005
3.28291e-005
3.28296e-005
3.28299e-005
3.28303e-005
3.28305e-005
3.28308e-005
3.28311e-005
3.28315e-005
3.28315e-005
3.28319e-005
3.2832e-005
3.28324e-005
3.28326e-005
3.28328e-005
3.28333e-005
3.28333e-005
3.28337e-005
3.28338e-005
3.28342e-005
3.28339e-005
3.28348e-005
3.28344e-005
3.28346e-005
3.28356e-005
3.2834e-005
3.28359e-005
3.28347e-005
3.28356e-005
3.28351e-005
3.28348e-005
3.28357e-005
3.28342e-005
3.28358e-005
3.28346e-005
3.28363e-005
3.28375e-005
3.28378e-005
3.28378e-005
3.28369e-005
3.2838e-005
3.28376e-005
3.28388e-005
3.28393e-005
3.28396e-005
3.284e-005
3.28401e-005
3.28401e-005
3.28403e-005
3.28399e-005
3.28403e-005
3.28401e-005
3.28401e-005
3.284e-005
3.28399e-005
3.28399e-005
3.28397e-005
3.28397e-005
3.28394e-005
3.28395e-005
3.28391e-005
3.2839e-005
3.28388e-005
3.28386e-005
3.28382e-005
3.28381e-005
3.28376e-005
3.28374e-005
3.28368e-005
3.28365e-005
3.28361e-005
3.28361e-005
3.28362e-005
3.28363e-005
3.28364e-005
3.28368e-005
3.28372e-005
3.28378e-005
3.28382e-005
3.28387e-005
3.28395e-005
3.28399e-005
3.28411e-005
3.2842e-005
3.28436e-005
3.28438e-005
3.28488e-005
3.28461e-005
3.28522e-005
3.28572e-005
3.28653e-005
3.43113e-005
1.42039e-006
1.42052e-006
1.42038e-006
1.42039e-006
1.42079e-006
1.42112e-006
1.42091e-006
1.42048e-006
1.42042e-006
1.42088e-006
1.42135e-006
1.42126e-006
1.42074e-006
1.4204e-006
1.42069e-006
1.42127e-006
1.4218e-006
1.42195e-006
1.42209e-006
1.42231e-006
1.42249e-006
1.42252e-006
1.42248e-006
1.42254e-006
1.42256e-006
1.42249e-006
1.42234e-006
1.42236e-006
1.42238e-006
1.42245e-006
1.42253e-006
1.42253e-006
1.42261e-006
1.4227e-006
1.42278e-006
1.42283e-006
1.42287e-006
1.4229e-006
1.42294e-006
1.42297e-006
1.42298e-006
1.42299e-006
1.42302e-006
1.42307e-006
1.42314e-006
1.4232e-006
1.42327e-006
1.42334e-006
1.42339e-006
1.42345e-006
1.4235e-006
1.42356e-006
1.4236e-006
1.42365e-006
1.4237e-006
1.42374e-006
1.42377e-006
1.42381e-006
1.42384e-006
1.42388e-006
1.42391e-006
1.42395e-006
1.42399e-006
1.42402e-006
1.42407e-006
1.4241e-006
1.42414e-006
1.42418e-006
1.42421e-006
1.42425e-006
1.42429e-006
1.42432e-006
1.42435e-006
1.42443e-006
1.42443e-006
1.42447e-006
1.42452e-006
1.42456e-006
1.42461e-006
1.42465e-006
1.42468e-006
1.42471e-006
1.42477e-006
1.42477e-006
1.4248e-006
1.42486e-006
1.42492e-006
1.42495e-006
1.42497e-006
1.42499e-006
1.42499e-006
1.42501e-006
1.42503e-006
1.42505e-006
1.42507e-006
1.42509e-006
1.4251e-006
1.42512e-006
1.42512e-006
1.42513e-006
1.42513e-006
1.42514e-006
1.42513e-006
1.42513e-006
1.42512e-006
1.4251e-006
1.42509e-006
1.42506e-006
1.42504e-006
1.425e-006
1.42497e-006
1.42492e-006
1.42488e-006
1.42482e-006
1.42478e-006
1.42472e-006
1.42467e-006
1.42462e-006
1.42459e-006
1.42457e-006
1.42454e-006
1.42451e-006
1.42448e-006
1.42448e-006
1.42444e-006
1.42442e-006
1.4244e-006
1.42432e-006
1.42435e-006
1.4244e-006
1.42427e-006
1.42449e-006
1.42439e-006
1.42484e-006
1.42448e-006
1.42766e-006
1.37858e-006
1.33754e-006
5.52968e-006
1.19987e-007
1.20002e-007
1.20014e-007
1.2004e-007
1.20059e-007
1.20059e-007
1.20054e-007
1.20071e-007
1.20107e-007
1.2013e-007
1.20127e-007
1.20111e-007
1.20119e-007
1.20141e-007
1.2017e-007
1.20197e-007
1.20223e-007
1.20247e-007
1.20257e-007
1.20255e-007
1.20256e-007
1.20267e-007
1.20298e-007
1.20316e-007
1.20324e-007
1.20324e-007
1.20309e-007
1.20302e-007
1.20305e-007
1.20317e-007
1.20343e-007
1.20375e-007
1.20389e-007
1.20402e-007
1.20415e-007
1.20428e-007
1.20441e-007
1.20452e-007
1.20464e-007
1.20475e-007
1.20485e-007
1.20495e-007
1.20508e-007
1.20521e-007
1.20534e-007
1.20547e-007
1.2056e-007
1.20572e-007
1.20584e-007
1.20596e-007
1.20607e-007
1.20619e-007
1.20631e-007
1.20642e-007
1.20653e-007
1.20664e-007
1.20675e-007
1.20686e-007
1.20697e-007
1.20708e-007
1.20719e-007
1.20729e-007
1.2074e-007
1.20751e-007
1.20762e-007
1.20772e-007
1.20783e-007
1.20792e-007
1.20803e-007
1.20813e-007
1.20823e-007
1.20835e-007
1.20844e-007
1.20857e-007
1.20862e-007
1.20872e-007
1.20877e-007
1.20885e-007
1.20894e-007
1.209e-007
1.20912e-007
1.20917e-007
1.20926e-007
1.20935e-007
1.20944e-007
1.20946e-007
1.20948e-007
1.20956e-007
1.20961e-007
1.20969e-007
1.20976e-007
1.20982e-007
1.20986e-007
1.2099e-007
1.20993e-007
1.20996e-007
1.20999e-007
1.21001e-007
1.21003e-007
1.21004e-007
1.21006e-007
1.21006e-007
1.21006e-007
1.21005e-007
1.21004e-007
1.21002e-007
1.21e-007
1.20996e-007
1.20992e-007
1.20988e-007
1.20982e-007
1.20976e-007
1.20967e-007
1.20959e-007
1.2095e-007
1.2094e-007
1.20928e-007
1.20916e-007
1.20905e-007
1.20895e-007
1.20883e-007
1.20871e-007
1.20857e-007
1.20845e-007
1.2083e-007
1.20812e-007
1.208e-007
1.20779e-007
1.20766e-007
1.20752e-007
1.2081e-007
1.20671e-007
1.20695e-007
1.21843e-007
1.20866e-007
1.09135e-007
2.23602e-007
1.68767e-005
0.00211442
1.85229e-008
1.85276e-008
1.85298e-008
1.85314e-008
1.85348e-008
1.85411e-008
1.85464e-008
1.85477e-008
1.85475e-008
1.8548e-008
1.85537e-008
1.85592e-008
1.85615e-008
1.85613e-008
1.85635e-008
1.85714e-008
1.85782e-008
1.85828e-008
1.8586e-008
1.85921e-008
1.85986e-008
1.86033e-008
1.86046e-008
1.86047e-008
1.86067e-008
1.86089e-008
1.86119e-008
1.86166e-008
1.86202e-008
1.86237e-008
1.8629e-008
1.86301e-008
1.8633e-008
1.86371e-008
1.86414e-008
1.86455e-008
1.86496e-008
1.86536e-008
1.86576e-008
1.86616e-008
1.86655e-008
1.86693e-008
1.86726e-008
1.8676e-008
1.86795e-008
1.86833e-008
1.86871e-008
1.86911e-008
1.86947e-008
1.86985e-008
1.87021e-008
1.87058e-008
1.87094e-008
1.87129e-008
1.87164e-008
1.872e-008
1.87233e-008
1.87268e-008
1.87301e-008
1.87336e-008
1.87369e-008
1.87401e-008
1.87436e-008
1.87466e-008
1.87499e-008
1.87528e-008
1.8756e-008
1.87586e-008
1.87619e-008
1.87644e-008
1.87671e-008
1.87705e-008
1.87729e-008
1.87761e-008
1.87778e-008
1.878e-008
1.87825e-008
1.87844e-008
1.87874e-008
1.87901e-008
1.87924e-008
1.87942e-008
1.87965e-008
1.87984e-008
1.88005e-008
1.88031e-008
1.88056e-008
1.88077e-008
1.8809e-008
1.88107e-008
1.88117e-008
1.88135e-008
1.88151e-008
1.88163e-008
1.88172e-008
1.88183e-008
1.88187e-008
1.88197e-008
1.88201e-008
1.88205e-008
1.88208e-008
1.88209e-008
1.88209e-008
1.88206e-008
1.88204e-008
1.88198e-008
1.88193e-008
1.88183e-008
1.88174e-008
1.8816e-008
1.88147e-008
1.88129e-008
1.88111e-008
1.88086e-008
1.88063e-008
1.88035e-008
1.88005e-008
1.8797e-008
1.87938e-008
1.87904e-008
1.87869e-008
1.87829e-008
1.8779e-008
1.87744e-008
1.87698e-008
1.87641e-008
1.87588e-008
1.87535e-008
1.87194e-008
1.87782e-008
1.86173e-008
1.88089e-008
1.89391e-008
1.66565e-008
1.76075e-008
1.11836e-007
9.71129e-006
0.000866222
0.0184505
4.68305e-009
4.68426e-009
4.68484e-009
4.68639e-009
4.6886e-009
4.69e-009
4.69003e-009
4.6899e-009
4.69134e-009
4.69406e-009
4.69625e-009
4.69652e-009
4.69631e-009
4.6972e-009
4.69912e-009
4.70164e-009
4.70385e-009
4.7062e-009
4.70791e-009
4.7098e-009
4.71011e-009
4.71073e-009
4.7118e-009
4.71365e-009
4.71499e-009
4.71639e-009
4.71806e-009
4.71925e-009
4.72009e-009
4.72114e-009
4.72273e-009
4.72466e-009
4.72646e-009
4.72793e-009
4.72946e-009
4.73099e-009
4.73253e-009
4.73407e-009
4.73561e-009
4.73715e-009
4.73865e-009
4.74011e-009
4.74154e-009
4.74303e-009
4.74456e-009
4.74609e-009
4.74761e-009
4.74914e-009
4.75065e-009
4.75217e-009
4.75366e-009
4.75514e-009
4.7566e-009
4.75804e-009
4.75948e-009
4.76089e-009
4.76228e-009
4.76366e-009
4.76502e-009
4.76636e-009
4.76768e-009
4.76899e-009
4.77025e-009
4.77152e-009
4.77275e-009
4.77399e-009
4.77514e-009
4.77641e-009
4.77747e-009
4.77864e-009
4.77981e-009
4.78083e-009
4.78226e-009
4.78328e-009
4.78424e-009
4.78512e-009
4.7861e-009
4.78719e-009
4.78801e-009