/*--------------------------------*- C++ -*----------------------------------*\
| =========                 |                                                 |
| \\      /  F ield         | OpenFOAM: The Open Source CFD Toolbox           |
|  \\    /   O peration     | Version:  5.x                                   |
|   \\  /    A nd           | Web:      www.OpenFOAM.org                      |
|    \\/     M anipulation  |                                                 |
\*---------------------------------------------------------------------------*/
/*   Windows 32 and 64 bit porting by blueCAPE: http://www.bluecape.com.pt   *\
|  Based on Windows porting (2.0.x v4) by Symscape: http://www.symscape.com   |
\*---------------------------------------------------------------------------*/
FoamFile
{
    version     2.0;
    format      ascii;
    class       volScalarField;
    location    "280";
    object      k;
}
// * * * * * * * * * * * * * * * * * * * * * * * * * * * * * * * * * * * * * //

dimensions      [0 2 -2 0 0 0 0];

internalField   nonuniform List<scalar> 
43900
(
0.000985516
0.000989437
0.000990249
0.000990177
0.000990127
0.000990116
0.000990121
0.000990122
0.000990122
0.000990125
0.000990123
0.000990124
0.000990127
0.00099013
0.00099013
0.000990131
0.000990134
0.000990135
0.000990135
0.000990136
0.000990135
0.000990136
0.000990137
0.000990136
0.000990137
0.000990138
0.000990137
0.000990138
0.000990139
0.00164817
5.59831e-005
3.89319e-005
3.81739e-005
4.08117e-005
4.09672e-005
4.09889e-005
4.09573e-005
4.0957e-005
4.09622e-005
4.09607e-005
4.09621e-005
4.09661e-005
4.09704e-005
4.09711e-005
4.0973e-005
4.09782e-005
4.09787e-005
4.09796e-005
4.09811e-005
4.09798e-005
4.0982e-005
4.09839e-005
4.09829e-005
4.09847e-005
4.0985e-005
4.09841e-005
4.09866e-005
4.09874e-005
0.294261
0.0539382
0.00409082
0.000117305
4.9889e-006
3.08336e-006
2.97827e-006
3.34485e-006
3.38112e-006
3.37599e-006
3.37104e-006
3.37102e-006
3.37233e-006
3.37337e-006
3.37392e-006
3.37489e-006
3.37554e-006
3.37573e-006
3.37646e-006
3.37683e-006
3.37722e-006
3.37787e-006
3.37801e-006
3.37828e-006
3.37876e-006
3.37887e-006
3.37919e-006
3.37958e-006
3.37954e-006
0.879268
0.375997
0.119667
0.023698
0.00206066
8.1743e-005
3.97873e-006
5.89262e-007
4.57762e-007
4.99155e-007
5.34033e-007
5.36014e-007
5.31367e-007
5.30356e-007
5.31298e-007
5.31572e-007
5.31447e-007
5.31598e-007
5.31805e-007
5.3189e-007
5.32004e-007
5.32129e-007
5.32217e-007
5.32325e-007
5.32416e-007
5.32481e-007
5.32565e-007
5.32629e-007
5.32686e-007
1.29015
0.739342
0.394843
0.176501
0.0560918
0.0103093
0.000824299
3.76123e-005
1.7049e-006
2.29889e-007
1.28707e-007
1.28044e-007
1.45289e-007
1.47962e-007
1.45134e-007
1.4506e-007
1.45952e-007
1.4581e-007
1.45686e-007
1.45788e-007
1.4587e-007
1.45899e-007
1.45922e-007
1.45954e-007
1.45987e-007
1.46009e-007
1.46038e-007
1.46067e-007
1.46081e-007
1.54724
0.984357
0.616955
0.370015
0.198846
0.0832941
0.0231925
0.00328255
0.000211634
1.0239e-005
5.41527e-007
9.53024e-008
5.38654e-008
5.52801e-008
6.20823e-008
6.15715e-008
5.95521e-008
6.01889e-008
6.05712e-008
6.04408e-008
6.04463e-008
6.05101e-008
6.05233e-008
6.05296e-008
6.05413e-008
6.05534e-008
6.05673e-008
6.05759e-008
6.05824e-008
1.71307
1.15155
0.774586
0.514936
0.331393
0.198708
0.100506
0.0350049
0.00703827
0.000644066
3.58414e-005
1.89954e-006
1.33462e-007
3.90579e-008
2.88728e-008
3.18127e-008
3.48944e-008
3.34246e-008
3.30343e-008
3.32327e-008
3.31333e-008
3.30282e-008
3.3076e-008
3.3115e-008
3.31211e-008
3.31225e-008
3.31286e-008
3.31383e-008
3.31468e-008
1.8109
1.258
0.879683
0.614805
0.424904
0.285586
0.181184
0.102019
0.0428838
0.0111369
0.00140751
9.40091e-005
5.39393e-006
3.31572e-007
4.12767e-008
2.13009e-008
1.8843e-008
2.15892e-008
2.17008e-008
2.14579e-008
2.17382e-008
2.17836e-008
2.16415e-008
2.16139e-008
2.16402e-008
2.16583e-008
2.16659e-008
2.16708e-008
2.16715e-008
1.87883
1.33687
0.960128
0.692689
0.498701
0.354984
0.246329
0.162702
0.0975136
0.0465219
0.0139414
0.00215838
0.000170219
1.07719e-005
6.90609e-007
5.94048e-008
1.93818e-008
1.43745e-008
1.52931e-008
1.58272e-008
1.53883e-008
1.55583e-008
1.58593e-008
1.58135e-008
1.5742e-008
1.57334e-008
1.57364e-008
1.5742e-008
1.57481e-008
1.90461
1.37797
1.00838
0.74367
0.550114
0.405677
0.295722
0.210404
0.143057
0.0892069
0.0461387
0.015092
0.00264892
0.000238064
1.65858e-005
1.14583e-006
9.20575e-008
1.81875e-008
1.19821e-008
1.15939e-008
1.2367e-008
1.19894e-008
1.18457e-008
1.20399e-008
1.21381e-008
1.21303e-008
1.21261e-008
1.21286e-008
1.21302e-008
1.90458
1.39453
1.03386
0.773975
0.58297
0.439834
0.330474
0.245313
0.177774
0.12334
0.078982
0.0429295
0.0147641
0.00278293
0.000275098
2.09983e-005
1.57508e-006
1.2817e-007
1.93098e-008
1.08498e-008
9.41457e-009
1.01293e-008
1.00218e-008
9.69716e-009
9.75899e-009
9.84795e-009
9.85921e-009
9.85776e-009
9.86205e-009
1.89565
1.40192
1.05027
0.795263
0.606886
0.465167
0.356591
0.271882
0.204594
0.15023
0.105662
0.0687939
0.038425
0.0136239
0.00265874
0.00028005
2.31138e-005
1.86954e-006
1.59691e-007
2.13899e-008
9.84956e-009
8.31181e-009
8.75005e-009
8.84077e-009
8.60138e-009
8.49918e-009
8.54131e-009
8.56521e-009
8.56544e-009
1.87386
1.39782
1.0564
0.807521
0.622802
0.483272
0.376036
0.29218
0.225466
0.171487
0.127125
0.0901938
0.0592258
0.0333714
0.0118247
0.00230762
0.000253996
2.26765e-005
1.98975e-006
1.82037e-007
2.35075e-008
9.17421e-009
7.4724e-009
7.7066e-009
8.02241e-009
7.91668e-009
7.78675e-009
7.78777e-009
7.80531e-009
1.8416
1.38432
1.05422
0.812314
0.632072
0.495451
0.390123
0.307557
0.241747
0.188422
0.144525
0.107869
0.0769102
0.0506159
0.0284102
0.00974555
0.00186879
0.0002157
2.10541e-005
2.02484e-006
2.0166e-007
2.60877e-008
8.78007e-009
6.77195e-009
6.84177e-009
7.22488e-009
7.24946e-009
7.17699e-009
7.12227e-009
1.80106
1.36274
1.04522
0.811113
0.635961
0.502779
0.399833
0.318934
0.254325
0.20189
0.158663
0.122496
0.0918388
0.065597
0.0430493
0.0238552
0.00788598
0.00148095
0.00017939
1.90867e-005
2.01063e-006
2.17491e-007
2.86599e-008
8.5325e-009
6.31437e-009
5.78933e-009
6.09636e-009
6.30162e-009
6.31451e-009
1.75408
1.33515
1.0303
0.805034
0.635478
0.506184
0.405959
0.327031
0.263867
0.212518
0.170121
0.134591
0.104403
0.0784514
0.0559603
0.0364359
0.0196702
0.00622502
0.00114659
0.000146283
1.6903e-005
1.93494e-006
2.26123e-007
3.08934e-008
8.51898e-009
5.80171e-009
5.09466e-009
5.19306e-009
5.33683e-009
1.70201
1.30277
1.01102
0.79463
0.631537
0.506354
0.409162
0.332438
0.270926
0.220834
0.179413
0.144647
0.115054
0.0895428
0.0673216
0.0478405
0.0307642
0.0159826
0.0048295
0.000881645
0.000119543
1.50454e-005
1.87969e-006
2.39089e-007
3.43566e-008
8.71069e-009
5.28442e-009
4.63464e-009
4.52258e-009
1.64565
1.26636
0.988088
0.780946
0.624303
0.504011
0.410009
0.335693
0.275982
0.227271
0.186931
0.153027
0.124123
0.0991566
0.0773397
0.0581037
0.0410602
0.0259897
0.01286
0.00372026
0.00068255
9.90387e-005
1.35798e-005
1.84571e-006
2.53445e-007
3.81897e-008
9.04499e-009
5.00256e-009
4.34051e-009
1.58571
1.22656
0.96204
0.764458
0.614565
0.499115
0.40879
0.337041
0.279294
0.232094
0.192931
0.159963
0.131816
0.107462
0.0861331
0.0672587
0.0504297
0.0353755
0.0219628
0.0102271
0.00284937
0.000532182
8.27303e-005
1.22833e-005
1.8007e-006
2.64872e-007
4.18413e-008
9.60315e-009
4.8991e-009
1.52281
1.1839
0.933336
0.745546
0.602629
0.492223
0.405663
0.336679
0.281035
0.235457
0.197575
0.165629
0.138307
0.114627
0.0938471
0.07541
0.0589036
0.0440359
0.0306257
0.0186129
0.00804168
0.00217256
0.000416849
6.93293e-005
1.10902e-005
1.75134e-006
2.76465e-007
4.6085e-008
1.03526e-008
1.45757
1.13889
0.9024
0.724563
0.588792
0.483593
0.400887
0.334917
0.281382
0.237507
0.200973
0.170112
0.143681
0.120736
0.100566
0.0826305
0.0665234
0.0519472
0.0386982
0.0266665
0.0158713
0.00627976
0.00164553
0.00032602
5.78697e-005
9.92103e-006
1.67828e-006
2.83475e-007
4.9236e-008
1.39061
1.09205
0.869655
0.701858
0.573343
0.473465
0.394714
0.331721
0.280603
0.238483
0.203346
0.173611
0.148095
0.125908
0.106371
0.0889674
0.0733021
0.0590789
0.0460835
0.0341768
0.0232985
0.0134966
0.00497591
0.0012798
0.000262766
4.9538e-005
9.05467e-006
1.62924e-006
2.8665e-007
1.32256
1.04388
0.83552
0.677776
0.556571
0.462084
0.387366
0.327435
0.278684
0.238381
0.204719
0.176166
0.151616
0.130229
0.111363
0.0945242
0.0793347
0.0655057
0.0528222
0.0411318
0.0303423
0.0204284
0.0114118
0.00402986
0.00103054
0.000219354
4.35655e-005
8.40923e-006
1.56473e-006
1.25401
0.994886
0.800395
0.652645
0.538746
0.449675
0.379026
0.322199
0.275848
0.237517
0.20529
0.177924
0.154353
0.133781
0.115601
0.0993472
0.0846566
0.0712511
0.0589186
0.0475027
0.0368964
0.027042
0.01793
0.00956154
0.00327448
0.000840906
0.000185523
3.85968e-005
7.65926e-006
1.18554
0.945512
0.764652
0.626775
0.520127
0.436456
0.369881
0.316167
0.272224
0.235773
0.205097
0.17897
0.156407
0.136673
0.119198
0.103543
0.0893634
0.0763954
0.0644337
0.053323
0.0429511
0.0332449
0.0241709
0.0157365
0.00793453
0.00265181
0.000688126
0.000157668
3.36029e-005
1.11763
0.896172
0.728629
0.600443
0.500947
0.422625
0.360105
0.309505
0.267988
0.233458
0.204356
0.179439
0.157889
0.139001
0.122238
0.107188
0.0935297
0.0810104
0.0694342
0.0586499
0.0485445
0.0390384
0.0300847
0.021671
0.0138141
0.00652646
0.00213555
0.000562676
0.000130963
1.05073
0.847223
0.69262
0.573893
0.481409
0.408354
0.349844
0.302336
0.263231
0.230605
0.203014
0.179357
0.158844
0.140815
0.124776
0.110344
0.0972169
0.085157
0.0739785
0.0635362
0.0537192
0.044446
0.0356627
0.027343
0.0194863
0.0121315
0.00532904
0.00171601
0.000451004
0.985213
0.798968
0.656873
0.547331
0.461687
0.393793
0.339229
0.294776
0.25807
0.227351
0.201304
0.178933
0.159436
0.142257
0.126939
0.113122
0.100525
0.0889253
0.0781471
0.0680527
0.0585345
0.0495119
0.0409275
0.0327471
0.024958
0.017575
0.0106175
0.00437522
0.00136991
0.921373
0.751654
0.621592
0.520926
0.441921
0.37906
0.328361
0.286914
0.252575
0.223743
0.199216
0.178078
0.159613
0.143313
0.128736
0.115551
0.103496
0.0923663
0.0819968
0.0722578
0.0630474
0.0542872
0.0459195
0.037906
0.0302269
0.0228824
0.0158983
0.00927226
0.00361201
0.859452
0.705478
0.586938
0.494812
0.422225
0.364251
0.317323
0.278823
0.246815
0.219852
0.196839
0.176943
0.15952
0.144087
0.130246
0.117694
0.106187
0.0955337
0.0855797
0.0762035
0.0673088
0.0588205
0.0506819
0.0428533
0.0353108
0.0280468
0.0210736
0.0144478
0.00790431
0.799637
0.660593
0.553039
0.469095
0.402685
0.34944
0.306178
0.270558
0.240841
0.215724
0.194219
0.175571
0.159201
0.144632
0.131528
0.119611
0.108654
0.098481
0.0889478
0.0799404
0.0713681
0.0631594
0.0552595
0.0476286
0.0402405
0.0330829
0.0261595
0.019513
0.0130385
0.742065
0.617118
0.519992
0.443852
0.383366
0.334679
0.29497
0.262157
0.234685
0.211387
0.191372
0.173959
0.158619
0.144936
0.132589
0.121322
0.110928
0.101245
0.0921417
0.0835113
0.0752694
0.0673485
0.0596962
0.0522736
0.0450536
0.0380213
0.0311746
0.0245329
0.018131
0.686839
0.575139
0.487868
0.419145
0.364318
0.320008
0.283731
0.253645
0.228368
0.206857
0.188317
0.172132
0.157826
0.145019
0.133442
0.122839
0.113025
0.103849
0.0951894
0.0869492
0.0790493
0.0714269
0.0640326
0.0568289
0.0497891
0.0428967
0.0361465
0.0295464
0.0231381
0.634033
0.534722
0.456724
0.395017
0.345574
0.305454
0.272482
0.245037
0.2219
0.202145
0.185063
0.170104
0.156839
0.144932
0.134122
0.124192
0.114969
0.106314
0.0981145
0.0902803
0.0827377
0.075428
0.0683047
0.0613322
0.0544847
0.0477456
0.0411075
0.0345738
0.0281644
0.583699
0.495917
0.426603
0.371504
0.327162
0.291035
0.261233
0.23634
0.215284
0.19725
0.181608
0.16787
0.155655
0.144662
0.134632
0.125388
0.116772
0.108655
0.100935
0.0935262
0.0863598
0.0793806
0.0725449
0.0658187
0.0591774
0.0526046
0.0460922
0.0396413
0.0332607
0.535872
0.458764
0.397541
0.348636
0.309104
0.276768
0.249995
0.227556
0.208518
0.192165
0.177941
0.165414
0.154244
0.144158
0.134935
0.126405
0.118423
0.110872
0.103657
0.0966984
0.0899328
0.0833076
0.0767811
0.0703208
0.0639029
0.0575114
0.0511382
0.0447832
0.0384527
0.490581
0.423297
0.369571
0.32644
0.291422
0.262665
0.238773
0.218686
0.201596
0.186878
0.174046
0.162719
0.152593
0.143423
0.135008
0.12722
0.119902
0.112949
0.106272
0.0997972
0.0934648
0.0872245
0.081036
0.0748677
0.0686961
0.0625054
0.0562875
0.0500418
0.0437748
0.447846
0.38955
0.342728
0.304948
0.27414
0.248743
0.227575
0.209729
0.194509
0.181376
0.169906
0.159764
0.150682
0.142443
0.134872
0.127832
0.121199
0.114872
0.108768
0.102815
0.0969552
0.091139
0.0853262
0.0794848
0.0735906
0.0676272
0.0615859
0.0554659
0.0492741
0.407683
0.357554
0.317048
0.284194
0.257286
0.235025
0.216415
0.20069
0.187255
0.175648
0.165501
0.156523
0.148478
0.141178
0.134469
0.128195
0.122274
0.116609
0.111117
0.105731
0.100392
0.0950488
0.0896604
0.0841923
0.0786179
0.0729185
0.0670837
0.0611117
0.0550097
0.370104
0.327342
0.292571
0.264218
0.240896
0.221537
0.205313
0.19158
0.179836
0.169687
0.160816
0.152971
0.145947
0.139575
0.13371
0.128221
0.123062
0.118104
0.113274
0.108508
0.103746
0.0989371
0.0940353
0.0890019
0.0838053
0.0784218
0.0728367
0.0670456
0.0610545
0.335116
0.298944
0.269339
0.245065
0.225013
0.208318
0.194299
0.182422
0.172265
0.163495
0.155843
0.149092
0.143064
0.137611
0.132608
0.127951
0.123541
0.119311
0.115184
0.111091
0.10697
0.102767
0.0984287
0.0939095
0.089169
0.0841746
0.0789033
0.0733437
0.0674983
0.302713
0.272387
0.247395
0.226784
0.20969
0.195419
0.183419
0.173252
0.164569
0.157091
0.15059
0.144882
0.139813
0.135256
0.131103
0.127263
0.123607
0.120149
0.116769
0.113404
0.109992
0.106474
0.102789
0.0988829
0.094701
0.0901968
0.0853325
0.0800835
0.0744423
0.272883
0.247693
0.226782
0.209433
0.194987
0.182901
0.172734
0.16413
0.156802
0.150519
0.145091
0.140362
0.136203
0.132504
0.129172
0.126124
0.123283
0.120569
0.117957
0.115361
0.112718
0.109964
0.10703
0.103849
0.100351
0.0964679
0.0921403
0.0873199
0.081979
0.2456
0.22488
0.207546
0.193075
0.180981
0.170849
0.16233
0.155139
0.149045
0.143856
0.139415
0.135592
0.132279
0.129384
0.126829
0.124546
0.122475
0.120508
0.118674
0.116872
0.115043
0.113118
0.111025
0.108684
0.106007
0.102902
0.0992764
0.0950471
0.0901505
0.220828
0.20396
0.189734
0.177781
0.167761
0.159364
0.152318
0.146399
0.141418
0.13722
0.133675
0.130676
0.128135
0.125976
0.124136
0.122561
0.1212
0.120005
0.118881
0.117867
0.116865
0.115808
0.114623
0.113221
0.111498
0.109333
0.106599
0.103162
0.0989025
0.198528
0.184946
0.173398
0.163635
0.155437
0.148575
0.142844
0.138064
0.134084
0.130777
0.128036
0.125774
0.12392
0.122415
0.121211
0.120266
0.119544
0.119011
0.11861
0.118318
0.118116
0.117924
0.117673
0.117272
0.116605
0.115521
0.113872
0.111455
0.108058
0.178652
0.167851
0.158597
0.150734
0.144134
0.138635
0.13408
0.130325
0.127246
0.124737
0.122712
0.121098
0.11984
0.118895
0.11823
0.11782
0.117636
0.117674
0.117887
0.118252
0.118778
0.119399
0.120055
0.120663
0.121103
0.121172
0.120797
0.119642
0.117329
0.161155
0.152686
0.145392
0.139179
0.133991
0.129713
0.126222
0.123399
0.121138
0.119347
0.117953
0.116899
0.116143
0.115656
0.115421
0.115434
0.115662
0.116148
0.116858
0.117795
0.118904
0.120234
0.121713
0.123275
0.124816
0.126162
0.127118
0.12722
0.126316
0.145984
0.139462
0.133841
0.129071
0.125145
0.12198
0.119471
0.117512
0.116005
0.114868
0.114034
0.113458
0.11311
0.112977
0.113058
0.113354
0.113891
0.11468
0.115729
0.117054
0.118658
0.120524
0.122681
0.125074
0.127631
0.130203
0.132574
0.134262
0.134673
0.133073
0.128167
0.123983
0.12049
0.117716
0.115589
0.114011
0.112879
0.112093
0.111568
0.111245
0.111083
0.111067
0.111186
0.111471
0.111942
0.112631
0.113572
0.114797
0.116339
0.118226
0.120479
0.123121
0.126158
0.129567
0.133238
0.137003
0.140332
0.142567
0.122331
0.118763
0.115821
0.11348
0.111783
0.110657
0.109997
0.109693
0.109634
0.109724
0.109904
0.110132
0.110395
0.110705
0.111099
0.111623
0.11233
0.113274
0.114509
0.116089
0.118064
0.120485
0.12339
0.126834
0.13086
0.135415
0.140443
0.145381
0.149785
0.113627
0.111166
0.109312
0.108035
0.107375
0.107254
0.107543
0.108123
0.10886
0.109636
0.110358
0.110993
0.111536
0.112008
0.112462
0.112962
0.113585
0.114411
0.115513
0.116967
0.118844
0.121217
0.124179
0.127799
0.13215
0.13728
0.143324
0.14968
0.156568
0.106786
0.105244
0.10436
0.104091
0.104468
0.105396
0.106732
0.108312
0.109963
0.111564
0.113017
0.114254
0.115248
0.116018
0.11662
0.117136
0.117667
0.11832
0.119197
0.120401
0.122028
0.124178
0.126961
0.130509
0.134927
0.140339
0.147015
0.154373
0.16414
0.101598
0.100824
0.100826
0.101538
0.102995
0.105068
0.10758
0.110354
0.113219
0.115995
0.118544
0.120761
0.122593
0.124037
0.125138
0.12598
0.12668
0.127371
0.128181
0.129248
0.130689
0.132632
0.135184
0.138565
0.142808
0.148304
0.155258
0.163464
0.176305
0.0978301
0.0977062
0.0985324
0.100244
0.102847
0.106189
0.11011
0.114406
0.118863
0.123276
0.127465
0.131291
0.134661
0.137538
0.139947
0.141961
0.143685
0.145254
0.146834
0.14861
0.150716
0.153312
0.156471
0.160583
0.165281
0.171791
0.178847
0.18929
0.203357
0.0952451
0.0956768
0.0973041
0.10004
0.103876
0.108682
0.114275
0.120443
0.126964
0.133611
0.140178
0.146489
0.15242
0.157906
0.162951
0.167627
0.172056
0.17641
0.180898
0.185716
0.191091
0.197304
0.204442
0.21327
0.222675
0.23606
0.247167
0.271798
0.278795
0.0936144
0.0945287
0.0969507
0.100746
0.105937
0.112385
0.119924
0.128352
0.137454
0.147005
0.156791
0.166627
0.176378
0.185976
0.195435
0.204855
0.214419
0.224389
0.235096
0.246923
0.260356
0.275986
0.294262
0.316464
0.341697
0.376601
0.409551
0.482495
0.484901
0.0927351
0.0940709
0.0972922
0.102192
0.108838
0.117103
0.12685
0.137907
0.150091
0.163207
0.177068
0.191516
0.206446
0.221832
0.237747
0.254378
0.272032
0.291144
0.312286
0.336164
0.363704
0.396053
0.434683
0.481898
0.539387
0.615835
0.705898
0.86359
0.915051
0.0924659
0.094165
0.0982053
0.104241
0.112432
0.122664
0.134844
0.148855
0.16457
0.181861
0.200611
0.220741
0.242233
0.265169
0.289755
0.316347
0.345474
0.37786
0.414465
0.456499
0.505624
0.563851
0.634344
0.720768
0.830154
0.971491
1.16289
1.42656
1.63819
0.000990139
0.000990141
0.000990141
0.000990138
0.000990137
0.000990143
0.000990147
0.000990145
0.00099014
0.000990137
0.000990141
0.000990148
0.000990148
0.000990142
0.000990136
0.000990136
0.000990143
0.000990146
0.000990146
0.000990145
0.000990145
0.000990146
0.000990147
0.000990147
0.000990148
0.000990149
0.000990147
0.000990143
0.000990141
0.000990142
0.000990145
0.000990148
0.000990148
0.000990149
0.000990149
0.000990149
0.000990149
0.000990149
0.000990149
0.000990149
0.000990149
0.000990148
0.000990148
0.000990147
0.000990147
0.000990147
0.000990148
0.000990148
0.000990149
0.000990149
0.000990149
0.00099015
0.00099015
0.00099015
0.00099015
0.000990151
0.00099015
0.000990151
0.000990151
0.000990151
0.000990151
0.000990152
0.000990152
0.000990152
0.000990152
0.000990152
0.000990153
0.000990152
0.000990153
0.000990153
0.000990153
0.000990154
0.000990152
0.000990154
0.000990153
0.000990154
0.000990153
0.000990153
0.000990154
0.000990152
0.000990154
0.000990153
0.000990154
0.000990155
0.000990155
0.000990155
0.000990154
0.000990155
0.000990155
0.000990156
0.000990157
0.000990157
0.000990157
0.000990157
0.000990157
0.000990157
0.000990157
0.000990157
0.000990157
0.000990157
0.000990157
0.000990157
0.000990157
0.000990157
0.000990157
0.000990157
0.000990157
0.000990156
0.000990156
0.000990156
0.000990156
0.000990156
0.000990156
0.000990155
0.000990155
0.000990155
0.000990154
0.000990154
0.000990154
0.000990154
0.000990154
0.000990154
0.000990155
0.000990155
0.000990156
0.000990156
0.000990156
0.000990157
0.000990158
0.000990159
0.000990159
0.000990161
0.000990161
0.000990165
0.000990163
0.000990168
0.000990165
0.000990176
0.00100821
4.09875e-005
4.09905e-005
4.09899e-005
4.09854e-005
4.0986e-005
4.09939e-005
4.09987e-005
4.09951e-005
4.09879e-005
4.09856e-005
4.09924e-005
4.10006e-005
4.10001e-005
4.09905e-005
4.09833e-005
4.09852e-005
4.09953e-005
4.10003e-005
4.10001e-005
4.09987e-005
4.09993e-005
4.10011e-005
4.10018e-005
4.10026e-005
4.10039e-005
4.10049e-005
4.10021e-005
4.09964e-005
4.0994e-005
4.09951e-005
4.09995e-005
4.10027e-005
4.10038e-005
4.10044e-005
4.10047e-005
4.10049e-005
4.1005e-005
4.10052e-005
4.10054e-005
4.10053e-005
4.1005e-005
4.10043e-005
4.10034e-005
4.10027e-005
4.10028e-005
4.10034e-005
4.1004e-005
4.10049e-005
4.10054e-005
4.1006e-005
4.10063e-005
4.10068e-005
4.10071e-005
4.10074e-005
4.10079e-005
4.10083e-005
4.10084e-005
4.10089e-005
4.1009e-005
4.10095e-005
4.10097e-005
4.101e-005
4.10106e-005
4.10106e-005
4.10112e-005
4.10112e-005
4.10118e-005
4.10115e-005
4.10125e-005
4.1012e-005
4.10123e-005
4.10135e-005
4.10116e-005
4.10139e-005
4.10125e-005
4.10135e-005
4.10131e-005
4.10128e-005
4.10138e-005
4.10121e-005
4.10139e-005
4.10126e-005
4.10146e-005
4.10161e-005
4.10165e-005
4.10164e-005
4.10154e-005
4.10167e-005
4.10163e-005
4.10177e-005
4.10183e-005
4.10187e-005
4.10191e-005
4.10193e-005
4.10193e-005
4.10196e-005
4.10191e-005
4.10195e-005
4.10193e-005
4.10193e-005
4.10193e-005
4.10191e-005
4.10191e-005
4.10188e-005
4.10188e-005
4.10185e-005
4.10186e-005
4.10181e-005
4.1018e-005
4.10177e-005
4.10175e-005
4.10169e-005
4.10167e-005
4.10162e-005
4.10159e-005
4.10152e-005
4.10147e-005
4.10143e-005
4.10142e-005
4.10144e-005
4.10145e-005
4.10146e-005
4.10151e-005
4.10156e-005
4.10162e-005
4.10167e-005
4.10174e-005
4.10183e-005
4.10188e-005
4.10203e-005
4.10214e-005
4.10234e-005
4.10235e-005
4.10301e-005
4.10264e-005
4.10338e-005
4.10482e-005
4.10605e-005
4.27152e-005
3.3799e-006
3.3802e-006
3.37989e-006
3.37998e-006
3.38092e-006
3.38159e-006
3.38104e-006
3.38011e-006
3.3801e-006
3.38119e-006
3.38219e-006
3.3819e-006
3.3807e-006
3.38005e-006
3.38077e-006
3.38214e-006
3.3833e-006
3.38365e-006
3.38399e-006
3.38448e-006
3.38485e-006
3.38491e-006
3.38488e-006
3.38504e-006
3.38507e-006
3.38488e-006
3.38451e-006
3.38456e-006
3.38461e-006
3.38477e-006
3.38495e-006
3.385e-006
3.38519e-006
3.38539e-006
3.38559e-006
3.3857e-006
3.3858e-006
3.3859e-006
3.38598e-006
3.38606e-006
3.3861e-006
3.38613e-006
3.38622e-006
3.38635e-006
3.38651e-006
3.38667e-006
3.38682e-006
3.38698e-006
3.38711e-006
3.38726e-006
3.38738e-006
3.38751e-006
3.38762e-006
3.38774e-006
3.38785e-006
3.38795e-006
3.38803e-006
3.38813e-006
3.38821e-006
3.3883e-006
3.38838e-006
3.38848e-006
3.38857e-006
3.38866e-006
3.38876e-006
3.38885e-006
3.38894e-006
3.38904e-006
3.38912e-006
3.38921e-006
3.38932e-006
3.3894e-006
3.38948e-006
3.38966e-006
3.38967e-006
3.38977e-006
3.3899e-006
3.38999e-006
3.3901e-006
3.39021e-006
3.39028e-006
3.39036e-006
3.3905e-006
3.3905e-006
3.39058e-006
3.3907e-006
3.39084e-006
3.3909e-006
3.39096e-006
3.391e-006
3.39102e-006
3.39106e-006
3.39111e-006
3.39116e-006
3.3912e-006
3.39124e-006
3.39127e-006
3.39131e-006
3.39133e-006
3.39135e-006
3.39136e-006
3.39136e-006
3.39136e-006
3.39134e-006
3.39132e-006
3.39128e-006
3.39125e-006
3.39119e-006
3.39113e-006
3.39105e-006
3.39098e-006
3.39086e-006
3.39076e-006
3.39063e-006
3.39052e-006
3.39038e-006
3.39025e-006
3.39013e-006
3.39005e-006
3.39e-006
3.38993e-006
3.38986e-006
3.38978e-006
3.38977e-006
3.38967e-006
3.38961e-006
3.38956e-006
3.38936e-006
3.38941e-006
3.38954e-006
3.38918e-006
3.38978e-006
3.38955e-006
3.38994e-006
3.38982e-006
3.40175e-006
3.18634e-006
3.10465e-006
2.4552e-005
5.32776e-007
5.3284e-007
5.32895e-007
5.33004e-007
5.33078e-007
5.33075e-007
5.33073e-007
5.33151e-007
5.33302e-007
5.33381e-007
5.33361e-007
5.3331e-007
5.33349e-007
5.33457e-007
5.33567e-007
5.33693e-007
5.33789e-007
5.33888e-007
5.3393e-007
5.33927e-007
5.33943e-007
5.34003e-007
5.34126e-007
5.34186e-007
5.34214e-007
5.34209e-007
5.34157e-007
5.34142e-007
5.34165e-007
5.34218e-007
5.34331e-007
5.34452e-007
5.34506e-007
5.34563e-007
5.34623e-007
5.3468e-007
5.34736e-007
5.3479e-007
5.34841e-007
5.34891e-007
5.34939e-007
5.3499e-007
5.35046e-007
5.35102e-007
5.35158e-007
5.35213e-007
5.35267e-007
5.35321e-007
5.35373e-007
5.35426e-007
5.35477e-007
5.35529e-007
5.35579e-007
5.3563e-007
5.3568e-007
5.35728e-007
5.35776e-007
5.35825e-007
5.35872e-007
5.3592e-007
5.35968e-007
5.36016e-007
5.36064e-007
5.36111e-007
5.36159e-007
5.36204e-007
5.36252e-007
5.36293e-007
5.36343e-007
5.36384e-007
5.36427e-007
5.36481e-007
5.36519e-007
5.36574e-007
5.36596e-007
5.36641e-007
5.36663e-007
5.36699e-007
5.36737e-007
5.36764e-007
5.36814e-007
5.36838e-007
5.36877e-007
5.36917e-007
5.36951e-007
5.36967e-007
5.36977e-007
5.37014e-007
5.37035e-007
5.37069e-007
5.37097e-007
5.37121e-007
5.3714e-007
5.37155e-007
5.37169e-007
5.37182e-007
5.37192e-007
5.37202e-007
5.3721e-007
5.37217e-007
5.37221e-007
5.37223e-007
5.37222e-007
5.37219e-007
5.37214e-007
5.37205e-007
5.37194e-007
5.3718e-007
5.37162e-007
5.37142e-007
5.37117e-007
5.37088e-007
5.37053e-007
5.37015e-007
5.36974e-007
5.36931e-007
5.3688e-007
5.36827e-007
5.36779e-007
5.36731e-007
5.3668e-007
5.36626e-007
5.36568e-007
5.36515e-007
5.36449e-007
5.36371e-007
5.36313e-007
5.36221e-007
5.36224e-007
5.36025e-007
5.36635e-007
5.35511e-007
5.35569e-007
5.44815e-007
5.36549e-007
4.68455e-007
1.69555e-006
0.000199985
0.0163937
1.46109e-007
1.46143e-007
1.46157e-007
1.46171e-007
1.46203e-007
1.46248e-007
1.46282e-007
1.46287e-007
1.46286e-007
1.46298e-007
1.46344e-007
1.46382e-007
1.46391e-007
1.46393e-007
1.46412e-007
1.4647e-007
1.46517e-007
1.46552e-007
1.46581e-007
1.46629e-007
1.4667e-007
1.46699e-007
1.46703e-007
1.46707e-007
1.46723e-007
1.46742e-007
1.46771e-007
1.46806e-007
1.4683e-007
1.46854e-007
1.46886e-007
1.46895e-007
1.4692e-007
1.4695e-007
1.46981e-007
1.47012e-007
1.47042e-007
1.47072e-007
1.47101e-007
1.47131e-007
1.4716e-007
1.47187e-007
1.47212e-007
1.47237e-007
1.47263e-007
1.47292e-007
1.4732e-007
1.47349e-007
1.47377e-007
1.47405e-007
1.47432e-007
1.47459e-007
1.47486e-007
1.47512e-007
1.47539e-007
1.47565e-007
1.4759e-007
1.47616e-007
1.4764e-007
1.47666e-007
1.4769e-007
1.47714e-007
1.47739e-007
1.47762e-007
1.47786e-007
1.47808e-007
1.47831e-007
1.47851e-007
1.47875e-007
1.47893e-007
1.47914e-007
1.47937e-007
1.47956e-007
1.47979e-007
1.47993e-007
1.48009e-007
1.48029e-007
1.48044e-007
1.48065e-007
1.48086e-007
1.48103e-007
1.48118e-007
1.48135e-007
1.48148e-007
1.48163e-007
1.48182e-007
1.48201e-007
1.48216e-007
1.48227e-007
1.48238e-007
1.48246e-007
1.48258e-007
1.48269e-007
1.48278e-007
1.48285e-007
1.48293e-007
1.48296e-007
1.48304e-007
1.48306e-007
1.4831e-007
1.48312e-007
1.48312e-007
1.48312e-007
1.4831e-007
1.48308e-007
1.48304e-007
1.483e-007
1.48292e-007
1.48286e-007
1.48276e-007
1.48266e-007
1.48252e-007
1.48239e-007
1.48221e-007
1.48204e-007
1.48183e-007
1.4816e-007
1.48135e-007
1.48111e-007
1.48086e-007
1.4806e-007
1.4803e-007
1.48001e-007
1.47967e-007
1.47932e-007
1.47889e-007
1.47854e-007
1.47822e-007
1.47371e-007
1.48277e-007
1.45854e-007
1.48876e-007
1.50234e-007
1.19796e-007
1.42237e-007
1.57683e-006
0.000175032
0.0108886
0.143289
6.06028e-008
6.06164e-008
6.06252e-008
6.06451e-008
6.06695e-008
6.06811e-008
6.06808e-008
6.06838e-008
6.07052e-008
6.07371e-008
6.07562e-008
6.07577e-008
6.07574e-008
6.07703e-008
6.07946e-008
6.08224e-008
6.08486e-008
6.0875e-008
6.0892e-008
6.09086e-008
6.09114e-008
6.092e-008
6.0936e-008
6.09557e-008
6.09712e-008
6.09877e-008
6.10051e-008
6.10164e-008
6.10279e-008
6.10417e-008
6.10616e-008
6.10859e-008
6.11048e-008
6.11211e-008
6.11383e-008
6.11555e-008
6.11728e-008
6.11902e-008
6.12077e-008
6.12251e-008
6.12421e-008
6.12589e-008
6.12758e-008
6.12933e-008
6.13111e-008
6.13285e-008
6.13458e-008
6.1363e-008
6.13801e-008
6.13973e-008
6.14144e-008
6.14313e-008
6.1448e-008
6.14647e-008
6.14812e-008
6.14973e-008
6.15133e-008
6.1529e-008
6.15447e-008
6.156e-008
6.15751e-008
6.15901e-008
6.16045e-008
6.16192e-008
6.16331e-008
6.16475e-008
6.16605e-008
6.16754e-008
6.16874e-008
6.17011e-008
6.17148e-008
6.17259e-008
6.17426e-008
6.17543e-008
6.17657e-008
6.17761e-008
6.17871e-008
6.17996e-008
6.18085e-008
6.18227e-008
6.1835e-008
6.18452e-008
6.18535e-008
6.18616e-008
6.18719e-008
6.18788e-008
6.18893e-008
6.18972e-008
6.19057e-008
6.19129e-008
6.19214e-008
6.19293e-008
6.19354e-008
6.1941e-008
6.19463e-008
6.19511e-008
6.19553e-008
6.19589e-008
6.19618e-008
6.19643e-008
6.19659e-008
6.19671e-008
6.19675e-008
6.19674e-008
6.19667e-008
6.19652e-008
6.19634e-008
6.19605e-008
6.19572e-008
6.19527e-008
6.19477e-008
6.19417e-008
6.19353e-008
6.1927e-008
6.19181e-008
6.19075e-008
6.18962e-008
6.18835e-008
6.18707e-008
6.18572e-008
6.18424e-008
6.18257e-008
6.18074e-008
6.17871e-008
6.17656e-008
6.17468e-008
6.16936e-008
6.16687e-008
6.23658e-008
6.04938e-008
6.52101e-008
6.00425e-008
5.47876e-008
1.54905e-007
5.25529e-006
0.000341115
0.0116734
0.116781
0.50197
3.31552e-008
3.31646e-008
3.31755e-008
3.31853e-008
3.31913e-008
3.31965e-008
3.32076e-008
3.32233e-008
3.32376e-008
3.32446e-008
3.32482e-008
3.32554e-008
3.32678e-008
3.32823e-008
3.3298e-008
3.33134e-008
3.33248e-008
3.33348e-008
3.33403e-008
3.33493e-008
3.336e-008
3.3372e-008
3.33858e-008
3.33963e-008
3.34089e-008
3.34192e-008
3.34299e-008
3.34426e-008
3.34575e-008
3.34677e-008
3.34819e-008
3.34957e-008
3.35061e-008
3.35196e-008
3.35329e-008
3.35454e-008
3.35576e-008
3.35698e-008
3.35819e-008
3.35939e-008
3.36061e-008
3.36185e-008
3.36311e-008
3.36438e-008
3.36561e-008
3.36679e-008
3.36798e-008
3.36914e-008
3.37032e-008
3.37148e-008
3.37265e-008
3.3738e-008
3.37495e-008
3.3761e-008
3.37724e-008
3.37835e-008
3.37948e-008
3.38057e-008
3.38167e-008
3.38274e-008
3.38381e-008
3.38486e-008
3.38587e-008
3.38691e-008
3.38789e-008
3.3889e-008
3.38986e-008
3.39085e-008
3.39175e-008
3.39275e-008
3.3936e-008
3.3946e-008
3.39543e-008
3.39646e-008
3.39714e-008
3.39807e-008
3.39877e-008
3.39948e-008
3.40035e-008
3.4012e-008
3.40181e-008
3.40244e-008
3.403e-008
3.40349e-008
3.40431e-008
3.40484e-008
3.40553e-008
3.40602e-008
3.40647e-008
3.40708e-008
3.40759e-008
3.40802e-008
3.40847e-008
3.40895e-008
3.4094e-008
3.40977e-008
3.41014e-008
3.41042e-008
3.41069e-008
3.41091e-008
3.41108e-008
3.41122e-008
3.4113e-008
3.41135e-008
3.41135e-008
3.41131e-008
3.41121e-008
3.41109e-008