/*--------------------------------*- C++ -*----------------------------------*\
| =========                 |                                                 |
| \\      /  F ield         | OpenFOAM: The Open Source CFD Toolbox           |
|  \\    /   O peration     | Version:  5.x                                   |
|   \\  /    A nd           | Web:      www.OpenFOAM.org                      |
|    \\/     M anipulation  |                                                 |
\*---------------------------------------------------------------------------*/
/*   Windows 32 and 64 bit porting by blueCAPE: http://www.bluecape.com.pt   *\
|  Based on Windows porting (2.0.x v4) by Symscape: http://www.symscape.com   |
\*---------------------------------------------------------------------------*/
FoamFile
{
    version     2.0;
    format      ascii;
    class       volScalarField;
    location    "280";
    object      nut;
}
// * * * * * * * * * * * * * * * * * * * * * * * * * * * * * * * * * * * * * //

dimensions      [0 2 -1 0 0 0 0];

internalField   nonuniform List<scalar> 
43900
(
5.71597e-005
5.80009e-005
5.80695e-005
5.80642e-005
5.80595e-005
5.80586e-005
5.8059e-005
5.8059e-005
5.80591e-005
5.80593e-005
5.80592e-005
5.80592e-005
5.80594e-005
5.80597e-005
5.80597e-005
5.80597e-005
5.806e-005
5.806e-005
5.80601e-005
5.80601e-005
5.806e-005
5.80601e-005
5.80602e-005
5.80602e-005
5.80603e-005
5.80603e-005
5.80602e-005
5.80603e-005
5.80604e-005
0.000591057
7.38771e-006
4.30784e-006
4.16092e-006
4.57999e-006
4.60604e-006
4.60914e-006
4.60401e-006
4.6039e-006
4.60451e-006
4.6044e-006
4.60455e-006
4.60499e-006
4.60548e-006
4.60556e-006
4.60581e-006
4.60639e-006
4.60643e-006
4.60656e-006
4.60672e-006
4.6066e-006
4.60685e-006
4.60705e-006
4.60695e-006
4.60717e-006
4.60719e-006
4.60711e-006
4.60739e-006
4.60747e-006
0.153377
0.0455736
0.00521257
0.000108187
1.3111e-006
6.44459e-007
6.01729e-007
7.14231e-007
7.2517e-007
7.23544e-007
7.21922e-007
7.2188e-007
7.22222e-007
7.22458e-007
7.22566e-007
7.2277e-007
7.22904e-007
7.22948e-007
7.23103e-007
7.23181e-007
7.23267e-007
7.23404e-007
7.23435e-007
7.23497e-007
7.23597e-007
7.23621e-007
7.23692e-007
7.23769e-007
7.23763e-007
0.475475
0.291362
0.133721
0.0385344
0.00461682
0.000177908
4.19018e-006
2.55472e-007
1.74067e-007
1.9393e-007
2.14007e-007
2.152e-007
2.12456e-007
2.11836e-007
2.12356e-007
2.1248e-007
2.12384e-007
2.12451e-007
2.12541e-007
2.12571e-007
2.12613e-007
2.12662e-007
2.12697e-007
2.12739e-007
2.12773e-007
2.12798e-007
2.1283e-007
2.12855e-007
2.12878e-007
0.757147
0.581754
0.414178
0.249139
0.106921
0.0267821
0.00272186
0.000131912
3.10487e-006
2.13869e-007
9.03929e-008
8.55628e-008
1.02896e-007
1.05868e-007
1.02886e-007
1.02794e-007
1.03716e-007
1.03553e-007
1.03406e-007
1.03499e-007
1.03571e-007
1.03585e-007
1.03599e-007
1.03621e-007
1.03644e-007
1.03659e-007
1.0368e-007
1.03698e-007
1.03706e-007
0.966894
0.798808
0.642475
0.490671
0.338777
0.18812
0.0684932
0.0125427
0.000945524
4.70014e-005
1.3925e-006
1.48841e-007
6.36629e-008
6.17574e-008
7.31238e-008
7.23944e-008
6.88815e-008
6.99722e-008
7.06217e-008
7.03863e-008
7.03859e-008
7.04873e-008
7.05042e-008
7.05054e-008
7.05163e-008
7.053e-008
7.05437e-008
7.05519e-008
7.05609e-008
1.12645
0.964072
0.815713
0.67511
0.537235
0.398088
0.254852
0.11317
0.0292345
0.00322905
0.000195797
1.01084e-005
3.73822e-007
7.99731e-008
4.8936e-008
5.42075e-008
6.26056e-008
5.8734e-008
5.76243e-008
5.81347e-008
5.78674e-008
5.75899e-008
5.77121e-008
5.78021e-008
5.78089e-008
5.78082e-008
5.78179e-008
5.78362e-008
5.78494e-008
1.24223
1.08444
0.941885
0.809003
0.681153
0.554545
0.426495
0.296824
0.161262
0.0526039
0.008099
0.000597898
3.57508e-005
1.90739e-006
1.2955e-007
5.58409e-008
4.2451e-008
5.15029e-008
5.24859e-008
5.16121e-008
5.25967e-008
5.27431e-008
5.22116e-008
5.21091e-008
5.22013e-008
5.22589e-008
5.22746e-008
5.2282e-008
5.22805e-008
1.34026
1.18588
1.0473
0.919502
0.798287
0.680144
0.562253
0.442502
0.318985
0.191595
0.0714817
0.0135015
0.00118786
7.92774e-005
5.03642e-006
2.98127e-007
7.20477e-008
4.55592e-008
4.67133e-008
4.96115e-008
4.75485e-008
4.82818e-008
4.9696e-008
4.94604e-008
4.91041e-008
4.90547e-008
4.90639e-008
4.90821e-008
4.91039e-008
1.4023
1.25406
1.12118
0.999689
0.885643
0.775713
0.667123
0.55761
0.44539
0.329316
0.209612
0.0845351
0.0180037
0.00180712
0.000132736
9.36588e-006
6.48045e-007
7.99172e-008
4.91509e-008
4.318e-008
4.76312e-008
4.56821e-008
4.46999e-008
4.5821e-008
4.63924e-008
4.63221e-008
4.62816e-008
4.62835e-008
4.62873e-008
1.44619
1.30068
1.17268
1.05637
0.948364
0.845477
0.744992
0.64464
0.542597
0.437516
0.328669
0.216451
0.0909593
0.0206221
0.00226511
0.000181584
1.40247e-005
1.06499e-006
1.08837e-007
5.51169e-008
4.15187e-008
4.59347e-008
4.57382e-008
4.34501e-008
4.37617e-008
4.43953e-008
4.44637e-008
4.44394e-008
4.44498e-008
1.48469
1.34218
1.21669
1.10379
0.999717
0.901655
0.807008
0.713563
0.619481
0.523318
0.424064
0.321245
0.215313
0.0933034
0.0216267
0.00250425
0.000215672
1.79393e-005
1.48327e-006
1.51034e-007
5.72981e-008
4.39951e-008
4.5486e-008
4.68745e-008
4.53022e-008
4.4289e-008
4.46187e-008
4.48059e-008
4.48059e-008
1.51185
1.37275
1.25003
1.1408
1.0405
0.946632
0.856838
0.769012
0.68137
0.592454
0.501146
0.406687
0.308702
0.207164
0.0893064
0.0204313
0.00244189
0.000226286
2.03764e-005
1.84004e-006
1.95043e-007
5.83879e-008
4.64279e-008
4.56532e-008
4.84654e-008
4.78172e-008
4.65194e-008
4.64986e-008
4.66512e-008
1.52997
1.39503
1.27551
1.16869
1.07255
0.98256
0.897083
0.81412
0.731957
0.649159
0.564574
0.477338
0.386861
0.292801
0.195024
0.0801057
0.0177909
0.00220612
0.000222855
2.19747e-005
2.18625e-006
2.42788e-007
6.17949e-008
4.67519e-008
4.51184e-008
4.83515e-008
4.90091e-008
4.82683e-008
4.75829e-008
1.54101
1.40968
1.29444
1.19072
1.09684
1.01123
0.929691
0.851067
0.773712
0.69623
0.617472
0.536533
0.452743
0.365653
0.275029
0.181144
0.070932
0.0151649
0.00194993
0.000213833
2.30505e-005
2.50164e-006
2.92093e-007
6.73614e-008
4.88423e-008
4.04641e-008
4.29548e-008
4.58157e-008
4.60666e-008
1.5464
1.41875
1.3069
1.20749
1.11658
1.03335
0.956091
0.881449
0.808423
0.735662
0.662038
0.586637
0.508754
0.427876
0.34367
0.255975
0.164672
0.0610668
0.0125761
0.00168458
0.000199829
2.33515e-005
2.74035e-006
3.41764e-007
7.5721e-008
4.84653e-008
3.90324e-008
3.88899e-008
4.06095e-008
1.5472
1.42331
1.31489
1.21873
1.1321
1.0515
0.97699
0.906403
0.837386
0.76895
0.699989
0.629593
0.557042
0.481785
0.403431
0.321709
0.236392
0.147039
0.0513866
0.0102968
0.00145226
0.000186992
2.37964e-005
3.04314e-006
4.10303e-007
8.55409e-008
4.55941e-008
3.95585e-008
3.64427e-008
1.54407
1.42403
1.31912
1.22624
1.14278
1.06651
0.994593
0.927197
0.861829
0.797311
0.732593
0.666767
0.599099
0.529011
0.45607
0.379957
0.300424
0.217165
0.129355
0.0426393
0.00844099
0.00126465
0.00017688
2.44368e-005
3.37643e-006
4.85917e-007
9.57703e-008
4.55208e-008
3.98462e-008
1.53751
1.42141
1.32007
1.23053
1.15027
1.07717
1.00909
0.944375
0.882913
0.821911
0.760973
0.699227
0.63595
0.570556
0.502584
0.431682
0.357577
0.280014
0.198595
0.112145
0.0350133
0.00694659
0.00110795
0.000167273
2.48672e-005
3.68025e-006
5.60702e-007
1.0936e-007
4.82136e-008
1.52789
1.41581
1.31812
1.23194
1.15487
1.08486
1.02012
0.9585
0.899606
0.842568
0.785371
0.72753
0.668357
0.607294
0.54389
0.477794
0.408726
0.336455
0.260727
0.181042
0.0951002
0.0282599
0.00567933
0.000963948
0.000156363
2.4989e-005
3.96799e-006
6.43072e-007
1.2641e-007
1.51551
1.40755
1.31356
1.23078
1.15691
1.08997
1.02825
0.970289
0.913921
0.859768
0.80595
0.751754
0.696478
0.639543
0.580484
0.518936
0.454618
0.387307
0.316809
0.242901
0.165179
0.076422
0.0218632
0.00451515
0.000818188
0.000142404
2.43922e-005
4.14889e-006
7.05986e-007
1.50071
1.39694
1.30671
1.22735
1.15667
1.09276
1.03397
0.978883
0.926222
0.874648
0.824407
0.773373
0.721454
0.668114
0.612906
0.55546
0.495483
0.432739
0.367039
0.298211
0.226053
0.150912
0.0627056
0.01739
0.00370102
0.000711621
0.000132038
2.40553e-005
4.26268e-006
1.4838
1.38429
1.29786
1.22195
1.15445
1.09354
1.03765
0.985405
0.935635
0.886782
0.839022
0.79138
0.742892
0.693103
0.641592
0.588013
0.532082
0.473571
0.412295
0.348096
0.280831
0.210439
0.13624
0.053176
0.01444
0.00316315
0.000638871
0.000124974
2.35132e-005
1.46509
1.36989
1.2873
1.21486
1.15054
1.0926
1.03953
0.990043
0.943038
0.897569
0.852146
0.807504
0.761843
0.715128
0.666922
0.616864
0.564658
0.510064
0.452887
0.392968
0.330165
0.264346
0.195162
0.120899
0.0451212
0.0121582
0.00274429
0.000578989
0.000116203
1.44488
1.35403
1.27531
1.20635
1.14519
1.09018
1.03987
0.993009
0.948535
0.90551
0.862947
0.820549
0.777968
0.734335
0.689302
0.642544
0.593785
0.542798
0.489392
0.433404
0.374697
0.313129
0.248485
0.180176
0.105669
0.0379862
0.0102391
0.00238857
0.000514834
1.42345
1.33698
1.26215
1.19667
1.13867
1.08656
1.03896
0.9947
0.95277
0.912325
0.87268
0.832693
0.792846
0.75177
0.709496
0.665683
0.620048
0.572354
0.522404
0.470033
0.415098
0.357462
0.296965
0.23331
0.165797
0.0907226
0.031519
0.00855205
0.00201792
1.40104
1.31898
1.24804
1.18604
1.13119
1.08195
1.03702
0.99527
0.955744
0.917612
0.880145
0.842641
0.804934
0.766631
0.727155
0.686219
0.643571
0.598991
0.552288
0.503298
0.45188
0.397902
0.34123
0.281671
0.218874
0.152106
0.0756159
0.0256153
0.00690302
1.37787
1.30022
1.23318
1.17466
1.12293
1.07654
1.03424
0.99497
0.95782
0.92203
0.886962
0.852104
0.816617
0.780701
0.743589
0.705168
0.665185
0.623419
0.579678
0.533794
0.48562
0.435024
0.381878
0.326035
0.267275
0.20518
0.13886
0.0625407
0.0205564
1.3541
1.28086
1.21772
1.16265
1.11403
1.07047
1.03077
0.993929
0.959084
0.925514
0.892606
0.85984
0.826649
0.793058
0.758382
0.722451
0.685035
0.645934
0.604967
0.561975
0.516813
0.469351
0.419468
0.367036
0.311897
0.253809
0.1924
0.126594
0.0528848
1.32985
1.261
1.20174
1.15012
1.1046
1.06384
1.02672
0.992274
0.959697
0.928304
0.897517
0.866837
0.835814
0.804196
0.771864
0.738327
0.703372
0.666811
0.628473
0.588204
0.545867
0.501333
0.454485
0.405206
0.35337
0.298817
0.24133
0.180766
0.111838
1.30518
1.24071
1.18532
1.13713
1.09468
1.05671
1.02215
0.990086
0.95976
0.930534
0.901876
0.87335
0.844617
0.815084
0.784752
0.753357
0.720662
0.686465
0.65059
0.61288
0.573193
0.531402
0.487388
0.441039
0.392243
0.340874
0.286809
0.229789
0.168708
1.28014
1.22001
1.16846
1.12369
1.0843
1.0491
1.01709
0.98739
0.959301
0.93222
0.905647
0.879167
0.852426
0.825107
0.797039
0.767717
0.737169
0.705206
0.671654
0.636355
0.599165
0.559955
0.518603
0.474995
0.429023
0.380577
0.329556
0.275735
0.219295
1.2547
1.19887
1.15114
1.10976
1.07341
1.04098
1.0115
0.984166
0.958311
0.933368
0.908867
0.884411
0.85965
0.834258
0.808251
0.781184
0.752863
0.723138
0.691862
0.658893
0.624096
0.587343
0.548512
0.507489
0.464167
0.418439
0.370207
0.319331
0.265805
1.22881
1.17725
1.13329
1.09527
1.06195
1.03226
1.00532
0.980355
0.956741
0.933949
0.911539
0.889137
0.866422
0.843109
0.81902
0.794079
0.767932
0.740417
0.711387
0.680703
0.648234
0.613853
0.577442
0.538885
0.498073
0.454902
0.409274
0.361082
0.31017
1.2024
1.15504
1.11481
1.08012
1.0498
1.02285
0.99844
0.975852
0.954496
0.933882
0.913598
0.893304
0.872719
0.851632
0.8296
0.80666
0.782601
0.757241
0.730417
0.701982
0.671799
0.639738
0.605678
0.5695
0.531094
0.490353
0.44718
0.401474
0.353089
1.17536
1.13213
1.09558
1.06417
1.03682
1.0126
0.990714
0.97051
0.951432
0.933021
0.914895
0.896733
0.87826
0.859241
0.839444
0.818773
0.79684
0.773653
0.749044
0.722861
0.694959
0.665203
0.633463
0.599616
0.563547
0.525145
0.484309
0.440942
0.394934
1.14756
1.10839
1.07545
1.04727
1.02285
1.00132
0.981961
0.964144
0.947361
0.931183
0.915251
0.899261
0.882946
0.866056
0.848328
0.830014
0.81042
0.789544
0.767247
0.743386
0.717817
0.6904
0.660998
0.62948
0.595722
0.559609
0.521031
0.479892
0.436104
1.11889
1.08368
1.05426
1.02925
1.00771
0.988845
0.971981
0.956546
0.942066
0.928144
0.914447
0.900688
0.886617
0.872007
0.856647
0.840405
0.823233
0.804788
0.784928
0.763509
0.740383
0.715401
0.688417
0.659287
0.627875
0.594053
0.557703
0.518724
0.477034
1.08926
1.05788
1.03189
1.00995
0.991225
0.97497
0.960566
0.947491
0.93531
0.923657
0.912223
0.900743
0.888989
0.876767
0.863945
0.850002
0.835246
0.819276
0.801958
0.783118
0.762585
0.740193
0.715773
0.689163
0.660206
0.628752
0.594667
0.557836
0.518175
1.0586
1.03092
1.00823
0.989266
0.973256
0.959533
0.947531
0.936774
0.926865
0.91747
0.908304
0.899122
0.889706
0.879852
0.869343
0.857833
0.846067
0.832702
0.818073
0.801983
0.78424
0.764647
0.743012
0.719138
0.692835
0.663922
0.632233
0.597625
0.559999
1.02691
1.00277
0.983238
0.967118
0.953715
0.942429
0.932748
0.924242
0.916552
0.909377
0.902456
0.895565
0.888503
0.881085
0.873133
0.864504
0.854895
0.844452
0.832767
0.819672
0.804972
0.788457
0.769903
0.749075
0.725739
0.699662
0.670627
0.638443
0.602973
0.994286
0.973501
0.956961
0.943538
0.932614
0.923651
0.91619
0.909846
0.904297
0.899271
0.894535
0.889887
0.885147
0.880149
0.874741
0.868798
0.861473
0.85427
0.845621
0.835694
0.824275
0.811129
0.795997
0.778602
0.758648
0.735835
0.709868
0.680479
0.647458
0.960923
0.943294
0.92957
0.918691
0.91011
0.903347
0.897993
0.893702
0.890187
0.887204
0.884547
0.882037
0.879516
0.876841
0.873876
0.87048
0.866443
0.861592
0.856024
0.849384
0.841435
0.831922
0.820555
0.807008
0.790922
0.771912
0.749581
0.723544
0.693474
0.927176
0.912489
0.901402
0.892914
0.886542
0.881858
0.87849
0.876127
0.874508
0.873414
0.872664
0.872105
0.871607
0.871055
0.870343
0.86937
0.868044
0.865482
0.863176
0.859868
0.855483
0.849777
0.842446
0.833126
0.821396
0.806776
0.788752
0.766786
0.740378
0.893566
0.881604
0.872982
0.866747
0.862466
0.859743
0.858233
0.857642
0.857726
0.858286
0.859166
0.860243
0.861424
0.862632
0.863806
0.864882
0.865793
0.866445
0.866229
0.865985
0.865065
0.863181
0.860016
0.855185
0.848214
0.838532
0.825514
0.808436
0.786552
0.860796
0.851346
0.845034
0.840934
0.838636
0.837751
0.837934
0.838888
0.840373
0.842205
0.844256
0.846446
0.848735
0.851105
0.853558
0.856086
0.858661
0.861285
0.863548
0.86587
0.868215
0.869983
0.870921
0.870657
0.868696
0.864361
0.856996
0.845652
0.829218
0.829727
0.822587
0.818448
0.816373
0.815938
0.816721
0.818337
0.820459
0.822835
0.825298
0.827764
0.830229
0.832728
0.83534
0.838165
0.841262
0.844617
0.848502
0.852414
0.857053
0.862304
0.867271
0.872009
0.876166
0.879301
0.880479
0.879275
0.874517
0.864425
0.801319
0.796291
0.794184
0.794001
0.795246
0.797401
0.799994
0.802634
0.805057
0.80712
0.808828
0.810318
0.811718
0.81327
0.815237
0.817737
0.820575
0.825064
0.830618
0.836942
0.843643
0.851291
0.859323
0.867512
0.875462
0.88248
0.887862
0.889811
0.887226
0.776506
0.773382
0.773128
0.774623
0.777216
0.780222
0.783023
0.78514
0.786325
0.786476
0.785774
0.784626
0.78319
0.782011
0.781753
0.782822
0.785301
0.789323
0.794527
0.800979
0.808957
0.817969
0.828459
0.840002
0.852308
0.864846
0.876803
0.886765
0.892848
0.75603
0.754567
0.7559
0.758706
0.762088
0.76511
0.766972
0.767081
0.765336
0.761633
0.756487
0.750917
0.745664
0.740984
0.737547
0.735435
0.735136
0.736856
0.740454
0.745978
0.753631
0.763394
0.775213
0.789078
0.804857
0.82224
0.840558
0.85858
0.875531
0.740268
0.74016
0.742684
0.74624
0.749589
0.75148
0.750953
0.74724
0.740768
0.731519
0.721048
0.709824
0.698396
0.687865
0.679007
0.672193
0.667811
0.66605
0.666847
0.670221
0.676341
0.685317
0.696993
0.711594
0.729308
0.750102
0.773759
0.799431
0.827812
0.729106
0.729981
0.733172
0.736742
0.739049
0.738494
0.734143
0.72513
0.712774
0.696878
0.678482
0.659191
0.640154
0.622556
0.607241
0.594709
0.585274
0.579057
0.575896
0.575772
0.578805
0.585073
0.594811
0.608094
0.625146
0.646497
0.673027
0.703861
0.742682
0.721948
0.723394
0.726661
0.729449
0.729731
0.725768
0.716408
0.701609
0.681325
0.65708
0.630638
0.603641
0.577441
0.553124
0.531486
0.513011
0.497974
0.486452
0.47814
0.473059
0.471203
0.472652
0.477611
0.486351
0.499374
0.516916
0.54101
0.569438
0.614718
0.71787
0.719495
0.722297
0.723664
0.721298
0.713222
0.698393
0.67665
0.64943
0.618423
0.585474
0.552333
0.520398
0.490686
0.463863
0.440296
0.420172
0.403511
0.390001
0.379535
0.371969
0.367324
0.365637
0.367263
0.372688
0.381928
0.399065
0.417557
0.461814
0.715873
0.717376
0.719367
0.719017
0.71369
0.701416
0.681417
0.654451
0.621989
0.586054
0.548708
0.511714
0.476393
0.443621
0.413904
0.387456
0.364256
0.344176
0.327136
0.312824
0.300934
0.29141
0.283983
0.279138
0.276465
0.276454
0.282615
0.285981
0.317083
0.715107
0.716327
0.717452
0.715326
0.707359
0.691708
0.668102
0.637524
0.601861
0.563326
0.524011
0.485603
0.449294
0.415817
0.385542
0.358575
0.334831
0.314145
0.296374
0.281269
0.268267
0.25741
0.248115
0.241299
0.234861
0.231797
0.22914
0.228029
0.231607
0.714989
0.715931
0.716334
0.712919
0.70311
0.685401
0.659758
0.627481
0.590652
0.551545
0.512201
0.4742
0.438615
0.406076
0.376874
0.351066
0.328555
0.309179
0.292748
0.279046
0.267919
0.25932
0.252386
0.248265
0.243758
0.245375
0.241834
0.252729
0.231664
0.715204
0.715994
0.716075
0.712055
0.70154
0.683152
0.657063
0.624717
0.588254
0.549925
0.511696
0.475061
0.441019
0.410149
0.382715
0.358771
0.338239
0.320979
0.306822
0.29561
0.287164
0.281559
0.278253
0.278599
0.279086
0.288371
0.289762
0.318698
0.289314
0.715659
0.716504
0.716808
0.713049
0.702954
0.68518
0.659938
0.628676
0.593503
0.556622
0.519953
0.484955
0.452612
0.423501
0.397903
0.375892
0.35742
0.342381
0.33064
0.322089
0.316587
0.314292
0.314721
0.319425
0.325202
0.341405
0.350551
0.38943
0.366107
5.80604e-005
5.80605e-005
5.80605e-005
5.80603e-005
5.80602e-005
5.80607e-005
5.8061e-005
5.80608e-005
5.80604e-005
5.80602e-005
5.80606e-005
5.8061e-005
5.80611e-005
5.80606e-005
5.80601e-005
5.80602e-005
5.80607e-005
5.80609e-005
5.80609e-005
5.80608e-005
5.80608e-005
5.80609e-005
5.8061e-005
5.8061e-005
5.80611e-005
5.80612e-005
5.8061e-005
5.80607e-005
5.80605e-005
5.80606e-005
5.80608e-005
5.8061e-005
5.80611e-005
5.80611e-005
5.80611e-005
5.80611e-005
5.80611e-005
5.80612e-005
5.80612e-005
5.80612e-005
5.80611e-005
5.80611e-005
5.8061e-005
5.8061e-005
5.8061e-005
5.8061e-005
5.80611e-005
5.80611e-005
5.80611e-005
5.80612e-005
5.80612e-005
5.80612e-005
5.80612e-005
5.80612e-005
5.80612e-005
5.80613e-005
5.80613e-005
5.80613e-005
5.80613e-005
5.80613e-005
5.80613e-005
5.80613e-005
5.80614e-005
5.80614e-005
5.80614e-005
5.80614e-005
5.80614e-005
5.80614e-005
5.80615e-005
5.80614e-005
5.80614e-005
5.80615e-005
5.80614e-005
5.80615e-005
5.80614e-005
5.80615e-005
5.80615e-005
5.80614e-005
5.80615e-005
5.80614e-005
5.80615e-005
5.80614e-005
5.80615e-005
5.80616e-005
5.80616e-005
5.80616e-005
5.80616e-005
5.80616e-005
5.80616e-005
5.80617e-005
5.80617e-005
5.80617e-005
5.80618e-005
5.80618e-005
5.80618e-005
5.80618e-005
5.80618e-005
5.80618e-005
5.80618e-005
5.80618e-005
5.80618e-005
5.80618e-005
5.80618e-005
5.80617e-005
5.80617e-005
5.80617e-005
5.80617e-005
5.80617e-005
5.80617e-005
5.80617e-005
5.80617e-005
5.80617e-005
5.80616e-005
5.80616e-005
5.80616e-005
5.80616e-005
5.80616e-005
5.80615e-005
5.80615e-005
5.80615e-005
5.80615e-005
5.80616e-005
5.80616e-005
5.80616e-005
5.80617e-005
5.80617e-005
5.80617e-005
5.80618e-005
5.80618e-005
5.80619e-005
5.8062e-005
5.8062e-005
5.80621e-005
5.80624e-005
5.80622e-005
5.80626e-005
5.80624e-005
5.80632e-005
5.93277e-005
4.60749e-006
4.60782e-006
4.60773e-006
4.60725e-006
4.60737e-006
4.60825e-006
4.60872e-006
4.60828e-006
4.60751e-006
4.60732e-006
4.60811e-006
4.60896e-006
4.60883e-006
4.60776e-006
4.60704e-006
4.60731e-006
4.60846e-006
4.609e-006
4.60899e-006
4.60887e-006
4.60896e-006
4.60915e-006
4.6092e-006
4.60929e-006
4.60943e-006
4.60953e-006
4.60921e-006
4.6086e-006
4.60834e-006
4.60847e-006
4.60894e-006
4.60927e-006
4.6094e-006
4.60947e-006
4.60951e-006
4.60953e-006
4.60955e-006
4.60957e-006
4.60959e-006
4.60958e-006
4.60955e-006
4.60948e-006
4.60937e-006
4.60931e-006
4.60932e-006
4.60939e-006
4.60946e-006
4.60956e-006
4.60961e-006
4.60968e-006
4.60973e-006
4.60978e-006
4.60982e-006
4.60985e-006
4.6099e-006
4.60995e-006
4.60996e-006
4.61001e-006
4.61002e-006
4.61008e-006
4.61011e-006
4.61014e-006
4.61021e-006
4.6102e-006
4.61027e-006
4.61028e-006
4.61034e-006
4.61031e-006
4.61042e-006
4.61037e-006
4.61041e-006
4.61053e-006
4.61034e-006
4.61059e-006
4.61044e-006
4.61055e-006
4.6105e-006
4.61047e-006
4.61058e-006
4.61041e-006
4.61061e-006
4.61047e-006
4.61069e-006
4.61084e-006
4.61088e-006
4.61089e-006
4.61079e-006
4.61093e-006
4.61089e-006
4.61103e-006
4.61109e-006
4.61114e-006
4.61118e-006
4.6112e-006
4.6112e-006
4.61124e-006
4.61119e-006
4.61124e-006
4.61121e-006
4.61121e-006
4.61121e-006
4.61119e-006
4.61119e-006
4.61116e-006
4.61116e-006
4.61112e-006
4.61113e-006
4.61108e-006
4.61107e-006
4.61103e-006
4.611e-006
4.61094e-006
4.61092e-006
4.61085e-006
4.61082e-006
4.61074e-006
4.61069e-006
4.61063e-006
4.61062e-006
4.61064e-006
4.61065e-006
4.61066e-006
4.61072e-006
4.61077e-006
4.61084e-006
4.6109e-006
4.61097e-006
4.61106e-006
4.61112e-006
4.61128e-006
4.6114e-006
4.61163e-006
4.61164e-006
4.6124e-006
4.61195e-006
4.61278e-006
4.61531e-006
4.61693e-006
4.78598e-006
7.23843e-007
7.239e-007
7.23839e-007
7.23874e-007
7.24072e-007
7.24191e-007
7.24066e-007
7.23883e-007
7.2391e-007
7.24143e-007
7.24334e-007
7.24251e-007
7.24005e-007
7.23898e-007
7.24062e-007
7.24352e-007
7.24577e-007
7.24651e-007
7.24723e-007
7.24819e-007
7.2489e-007
7.249e-007
7.24906e-007
7.24943e-007
7.24949e-007
7.24904e-007
7.24822e-007
7.24833e-007
7.24845e-007
7.24877e-007
7.24915e-007
7.24932e-007
7.24972e-007
7.25015e-007
7.25057e-007
7.25084e-007
7.25107e-007
7.25129e-007
7.25148e-007
7.25165e-007
7.25175e-007
7.25185e-007
7.25208e-007
7.25238e-007
7.25273e-007
7.25307e-007
7.25339e-007
7.25372e-007
7.254e-007
7.2543e-007
7.25458e-007
7.25485e-007
7.2551e-007
7.25535e-007
7.25559e-007
7.25581e-007
7.256e-007
7.25621e-007
7.25638e-007
7.25659e-007
7.25678e-007
7.25699e-007
7.2572e-007
7.2574e-007
7.25762e-007
7.25782e-007
7.25801e-007
7.25826e-007
7.25843e-007
7.25864e-007
7.25888e-007
7.25905e-007
7.25925e-007
7.25962e-007
7.25967e-007
7.25988e-007
7.26015e-007
7.26036e-007
7.26058e-007
7.26084e-007
7.261e-007
7.26119e-007
7.26146e-007
7.26148e-007
7.26164e-007
7.26188e-007
7.26218e-007
7.2623e-007
7.26243e-007
7.26252e-007
7.26258e-007
7.26266e-007
7.26275e-007
7.26286e-007
7.26296e-007
7.26304e-007
7.26311e-007
7.26319e-007
7.26323e-007
7.26328e-007
7.2633e-007
7.26331e-007
7.2633e-007
7.26327e-007
7.26322e-007
7.26316e-007
7.26307e-007
7.26295e-007
7.26283e-007
7.26267e-007
7.2625e-007
7.26227e-007
7.26204e-007
7.26176e-007
7.26152e-007
7.26123e-007
7.26094e-007
7.26067e-007
7.2605e-007
7.26037e-007
7.2602e-007
7.26005e-007
7.25987e-007
7.25984e-007
7.25961e-007
7.25946e-007
7.25932e-007
7.2589e-007
7.25894e-007
7.25929e-007
7.25837e-007
7.25981e-007
7.25936e-007
7.25871e-007
7.26004e-007
7.29496e-007
6.62821e-007
6.48574e-007
9.81109e-006
2.12911e-007
2.12936e-007
2.12958e-007
2.12999e-007
2.13024e-007
2.13022e-007
2.13028e-007
2.13062e-007
2.13118e-007
2.1314e-007
2.1313e-007
2.13117e-007
2.13135e-007
2.13181e-007
2.13219e-007
2.1327e-007
2.13302e-007
2.13338e-007
2.13353e-007
2.13355e-007
2.13367e-007
2.13395e-007
2.13438e-007
2.13454e-007
2.13462e-007
2.13459e-007
2.13444e-007
2.13444e-007
2.13456e-007
2.13478e-007
2.13522e-007
2.13562e-007
2.13581e-007
2.13603e-007
2.13627e-007
2.1365e-007
2.13673e-007
2.13695e-007
2.13716e-007
2.13736e-007
2.13756e-007
2.13778e-007
2.138e-007
2.13822e-007
2.13843e-007
2.13865e-007
2.13886e-007
2.13907e-007
2.13928e-007
2.13948e-007
2.13969e-007
2.13989e-007
2.14009e-007
2.14029e-007
2.14049e-007
2.14068e-007
2.14087e-007
2.14107e-007
2.14125e-007
2.14145e-007
2.14164e-007
2.14183e-007
2.14202e-007
2.14221e-007
2.1424e-007
2.14258e-007
2.14277e-007
2.14293e-007
2.14313e-007
2.14329e-007
2.14346e-007
2.14367e-007
2.14382e-007
2.14403e-007
2.14412e-007
2.14429e-007
2.14439e-007
2.14452e-007
2.14468e-007
2.14479e-007
2.14497e-007
2.14507e-007
2.14521e-007
2.14537e-007
2.14551e-007
2.14558e-007
2.14564e-007
2.14578e-007
2.14586e-007
2.14599e-007
2.14609e-007
2.14618e-007
2.14626e-007
2.14632e-007
2.14637e-007
2.14642e-007
2.14645e-007
2.14649e-007
2.14652e-007
2.14655e-007
2.14656e-007
2.14657e-007
2.14657e-007
2.14655e-007
2.14653e-007
2.1465e-007
2.14645e-007
2.14639e-007
2.14632e-007
2.14624e-007
2.14615e-007
2.14603e-007
2.14589e-007
2.14574e-007
2.14558e-007
2.14541e-007
2.14521e-007
2.145e-007
2.14481e-007
2.14461e-007
2.14441e-007
2.1442e-007
2.14397e-007
2.14376e-007
2.1435e-007
2.1432e-007
2.14296e-007
2.14258e-007
2.14284e-007
2.14149e-007
2.14535e-007
2.13883e-007
2.13888e-007
2.1925e-007
2.14367e-007
1.80973e-007
1.15715e-006
0.00021328
0.0114395
1.03725e-007
1.03747e-007
1.03756e-007
1.03767e-007
1.03793e-007
1.03822e-007
1.0384e-007
1.03839e-007
1.0384e-007
1.03854e-007
1.03887e-007
1.0391e-007
1.0391e-007
1.03915e-007
1.03928e-007
1.03966e-007
1.03996e-007
1.04019e-007
1.04042e-007
1.04077e-007
1.04099e-007
1.04113e-007
1.04111e-007
1.04117e-007
1.04128e-007
1.04143e-007
1.04167e-007
1.0419e-007
1.04205e-007
1.04219e-007
1.04236e-007
1.04242e-007
1.04261e-007
1.04281e-007
1.04301e-007
1.04321e-007
1.04341e-007
1.04361e-007
1.0438e-007
1.044e-007
1.04419e-007
1.04437e-007
1.04454e-007
1.0447e-007
1.04488e-007
1.04507e-007
1.04526e-007
1.04545e-007
1.04564e-007
1.04583e-007
1.04601e-007
1.04619e-007
1.04637e-007
1.04654e-007
1.04672e-007
1.0469e-007
1.04706e-007
1.04723e-007
1.0474e-007
1.04757e-007
1.04773e-007
1.04789e-007
1.04805e-007
1.0482e-007
1.04836e-007
1.04851e-007
1.04866e-007
1.0488e-007
1.04894e-007
1.04907e-007
1.04921e-007
1.04935e-007
1.04949e-007
1.04963e-007
1.04974e-007
1.04984e-007
1.04998e-007
1.05009e-007
1.05023e-007
1.05036e-007
1.05048e-007
1.05059e-007
1.0507e-007
1.05078e-007
1.05088e-007
1.05101e-007
1.05113e-007
1.05122e-007
1.05131e-007
1.05137e-007
1.05142e-007
1.05149e-007
1.05157e-007
1.05163e-007
1.05167e-007
1.05173e-007
1.05175e-007
1.0518e-007
1.05182e-007
1.05184e-007
1.05185e-007
1.05185e-007
1.05185e-007
1.05184e-007
1.05183e-007
1.0518e-007
1.05178e-007
1.05172e-007
1.05168e-007
1.05161e-007
1.05155e-007
1.05146e-007
1.05137e-007
1.05125e-007
1.05113e-007
1.05099e-007
1.05084e-007
1.05067e-007
1.05051e-007
1.05035e-007
1.05018e-007
1.04998e-007
1.04979e-007
1.04955e-007
1.04932e-007
1.04903e-007
1.04883e-007
1.04867e-007
1.04417e-007
1.05374e-007
1.02841e-007
1.06054e-007
1.07255e-007
7.75427e-008
1.03412e-007
2.00093e-006
0.000283922
0.0123184
0.100152
7.05827e-008
7.05964e-008
7.0608e-008
7.06309e-008
7.06545e-008
7.06606e-008
7.06594e-008
7.06683e-008
7.06964e-008
7.07297e-008
7.07413e-008
7.07407e-008
7.07431e-008
7.07597e-008
7.07875e-008
7.08141e-008
7.0842e-008
7.08681e-008
7.08817e-008
7.0892e-008
7.0894e-008
7.09044e-008
7.09256e-008
7.09439e-008
7.09597e-008
7.09769e-008
7.09923e-008
7.10007e-008
7.1015e-008
7.10312e-008
7.10535e-008
7.10812e-008
7.1098e-008
7.11138e-008
7.11306e-008
7.11477e-008
7.11649e-008
7.11823e-008
7.11997e-008
7.1217e-008
7.12342e-008
7.12512e-008
7.1269e-008
7.12875e-008
7.13058e-008
7.13232e-008
7.13405e-008
7.13575e-008
7.13748e-008
7.13921e-008
7.14093e-008
7.14264e-008
7.14434e-008
7.14603e-008
7.14771e-008
7.14934e-008
7.15099e-008
7.15257e-008
7.15417e-008
7.15571e-008
7.15725e-008
7.15878e-008
7.16021e-008
7.16172e-008
7.16312e-008
7.1646e-008
7.16591e-008
7.16744e-008
7.16865e-008
7.17008e-008
7.1715e-008
7.17257e-008
7.17428e-008
7.17547e-008
7.17669e-008
7.17777e-008
7.17887e-008
7.18014e-008
7.18098e-008
7.18241e-008
7.1836e-008
7.18468e-008
7.18549e-008
7.18641e-008
7.18743e-008
7.18809e-008
7.18914e-008
7.18996e-008
7.19082e-008
7.19162e-008
7.19256e-008
7.19328e-008
7.19381e-008
7.19435e-008
7.19488e-008
7.19531e-008
7.1958e-008
7.19608e-008
7.19638e-008
7.1966e-008
7.19674e-008
7.19683e-008
7.19684e-008
7.1968e-008
7.19668e-008
7.19651e-008
7.19625e-008
7.19594e-008
7.19554e-008
7.19506e-008
7.19448e-008
7.19387e-008
7.19316e-008
7.19231e-008
7.19136e-008
7.19026e-008
7.18907e-008
7.18778e-008
7.18647e-008
7.18509e-008
7.18358e-008
7.1819e-008
7.18e-008
7.17796e-008
7.17579e-008
7.17422e-008
7.16664e-008
7.16503e-008
7.28751e-008
6.96441e-008
7.79068e-008
6.87265e-008
6.42094e-008
2.57496e-007
1.30049e-005
0.000743516
0.0189187
0.125045
0.349752
5.78581e-008
5.78725e-008
5.7891e-008
5.79033e-008
5.79099e-008
5.79192e-008
5.794e-008
5.79649e-008
5.79818e-008
5.79873e-008
5.79922e-008
5.80058e-008
5.80264e-008
5.80475e-008
5.80709e-008
5.80904e-008
5.81029e-008
5.81108e-008
5.81184e-008
5.81318e-008
5.81497e-008
5.81652e-008
5.81813e-008
5.81954e-008
5.82155e-008
5.82295e-008
5.82448e-008
5.82668e-008
5.82887e-008
5.83009e-008
5.83181e-008
5.83319e-008
5.83473e-008
5.83674e-008
5.83859e-008
5.84031e-008
5.84199e-008
5.84366e-008
5.84532e-008
5.84696e-008
5.84865e-008
5.85038e-008
5.85215e-008
5.85389e-008
5.85556e-008
5.85717e-008
5.85878e-008
5.86035e-008
5.86194e-008
5.86351e-008
5.8651e-008
5.86666e-008
5.86823e-008
5.8698e-008
5.87135e-008
5.87288e-008
5.87443e-008
5.87592e-008
5.87744e-008
5.8789e-008
5.88037e-008
5.88181e-008
5.88321e-008
5.88462e-008
5.88599e-008
5.88736e-008
5.88871e-008
5.89003e-008
5.89131e-008
5.89267e-008
5.89382e-008
5.89525e-008
5.89629e-008
5.8977e-008
5.89867e-008
5.89998e-008
5.90095e-008
5.90192e-008
5.90325e-008
5.90426e-008
5.905e-008
5.90586e-008
5.90669e-008
5.90731e-008
5.9084e-008
5.90922e-008
5.91004e-008
5.91064e-008
5.91125e-008
5.9121e-008
5.9127e-008
5.91326e-008
5.91391e-008
5.91459e-008
5.91521e-008
5.91572e-008
5.91621e-008
5.91658e-008
5.91695e-008
5.91723e-008
5.91745e-008
5.9176e-008
5.9177e-008
5.91773e-008
5.9177e-008
5.9176e-008
5.91741e-008
5.91719e-008
5.91687e-008
5.91648e-008
5.91597e-008
5.91542e-008
5.91481e-008
5.91412e-008
5.9133e-008
5.91237e-008
5.91139e-008
5.91038e-008
5.90929e-008
5.90814e-008
5.90682e-008
5.90544e-008
5.90367e-008
5.90219e-008
5.89974e-008
5.89668e-008
5.9188e-008
5.88071e-008
5.65574e-008
6.42774e-008
4.8017e-008
6.38468e-008
4.88459e-007
3.07465e-005
0.00150331
0.029238
0.158668
0.403169
0.659438