/*--------------------------------*- C++ -*----------------------------------*\
| =========                 |                                                 |
| \\      /  F ield         | OpenFOAM: The Open Source CFD Toolbox           |
|  \\    /   O peration     | Version:  5.x                                   |
|   \\  /    A nd           | Web:      www.OpenFOAM.org                      |
|    \\/     M anipulation  |                                                 |
\*---------------------------------------------------------------------------*/
/*   Windows 32 and 64 bit porting by blueCAPE: http://www.bluecape.com.pt   *\
|  Based on Windows porting (2.0.x v4) by Symscape: http://www.symscape.com   |
\*---------------------------------------------------------------------------*/
FoamFile
{
    version     2.0;
    format      ascii;
    class       volScalarField;
    location    "280";
    object      p;
}
// * * * * * * * * * * * * * * * * * * * * * * * * * * * * * * * * * * * * * //

dimensions      [0 2 -2 0 0 0 0];

internalField   nonuniform List<scalar> 
43900
(
0.344414
0.344065
0.344024
0.343897
0.343696
0.343469
0.343268
0.342932
0.34269
0.342365
0.342041
0.341712
0.341365
0.341004
0.340634
0.340255
0.339866
0.339468
0.339061
0.338647
0.338226
0.337798
0.337363
0.336923
0.336477
0.336026
0.335569
0.335108
0.334642
0.342387
0.350466
0.344328
0.347616
0.345104
0.345855
0.344941
0.344767
0.344316
0.343883
0.343481
0.343046
0.342613
0.342185
0.341754
0.341318
0.34088
0.340438
0.339994
0.339545
0.339092
0.338636
0.338174
0.337711
0.337242
0.336769
0.336293
0.335811
0.335327
0.335592
0.357366
0.346276
0.352528
0.347437
0.350019
0.34763
0.347969
0.346881
0.34647
0.345882
0.345319
0.344786
0.344254
0.343728
0.343208
0.342694
0.342185
0.341678
0.341174
0.340674
0.340172
0.339674
0.339173
0.338671
0.338171
0.337666
0.33716
0.336655
0.330787
0.358454
0.351721
0.35153
0.351176
0.350751
0.349662
0.349623
0.348828
0.348456
0.34789
0.347374
0.346852
0.346329
0.345805
0.345279
0.344752
0.344223
0.343694
0.343165
0.342633
0.342101
0.341568
0.341032
0.340499
0.33996
0.33942
0.33888
0.338333
0.333287
0.357145
0.35213
0.351521
0.351499
0.351069
0.350874
0.35064
0.350112
0.349804
0.34937
0.348946
0.348521
0.348076
0.34762
0.347153
0.346675
0.346189
0.345692
0.345185
0.344673
0.344152
0.343621
0.343088
0.342544
0.341995
0.341444
0.34088
0.340314
0.338304
0.356407
0.353364
0.353059
0.352988
0.352582
0.352312
0.352063
0.351844
0.351575
0.351208
0.350866
0.350497
0.350111
0.349709
0.349293
0.348866
0.348423
0.347966
0.347503
0.347021
0.346524
0.346023
0.345503
0.344974
0.344438
0.343887
0.34333
0.342768
0.34455
0.358439
0.356632
0.356103
0.356058
0.355917
0.355589
0.355138
0.35482
0.354589
0.354257
0.353899
0.353532
0.353143
0.352742
0.352325
0.351894
0.351448
0.350991
0.35051
0.350017
0.349521
0.348996
0.348459
0.347919
0.347354
0.346783
0.346201
0.34559
0.351258
0.362538
0.361376
0.360765
0.36059
0.360452
0.360238
0.359888
0.359427
0.358983
0.358643
0.358272
0.357855
0.357425
0.356983
0.356525
0.356051
0.355564
0.355053
0.354538
0.354009
0.353445
0.35288
0.352308
0.351699
0.351085
0.350453
0.349816
0.349176
0.359091
0.368144
0.367436
0.366803
0.366525
0.366316
0.366066
0.365757
0.365363
0.364844
0.364325
0.363908
0.363466
0.362984
0.362482
0.361966
0.361436
0.360884
0.36032
0.35973
0.359116
0.358508
0.357877
0.357202
0.35654
0.355891
0.355205
0.354472
0.35373
0.368398
0.375186
0.37479
0.374154
0.373793
0.373514
0.373206
0.372854
0.372458
0.371993
0.371421
0.37081
0.370283
0.369752
0.369191
0.368606
0.368
0.36737
0.366716
0.366046
0.365363
0.364636
0.363904
0.363176
0.362394
0.361567
0.36074
0.359913
0.359087
0.377769
0.383689
0.383397
0.382732
0.382305
0.381962
0.381592
0.381178
0.380721
0.380216
0.379647
0.378982
0.378255
0.3776
0.376954
0.376288
0.375607
0.374892
0.374149
0.373384
0.372592
0.371785
0.370953
0.370083
0.369187
0.368307
0.367402
0.36645
0.36547
0.387875
0.393267
0.393025
0.392326
0.391842
0.39144
0.391012
0.390534
0.390008
0.389431
0.388798
0.388098
0.387312
0.386458
0.385654
0.38487
0.384073
0.383249
0.382397
0.381522
0.380619
0.379681
0.378714
0.377739
0.376734
0.375681
0.374598
0.373513
0.372438
0.399174
0.403848
0.403636
0.402916
0.40238
0.40192
0.401433
0.400894
0.4003
0.39965
0.398937
0.398158
0.397302
0.396353
0.395336
0.394358
0.3934
0.392416
0.39141
0.390382
0.389312
0.38822
0.387099
0.385945
0.384753
0.383544
0.382336
0.381064
0.379739
0.411257
0.415403
0.415192
0.414445
0.413855
0.413335
0.412785
0.412179
0.411513
0.410782
0.409981
0.409106
0.408151
0.407105
0.405958
0.404745
0.403564
0.402405
0.40121
0.399982
0.398733
0.39745
0.396129
0.39478
0.393391
0.391954
0.390491
0.389008
0.387571
0.424083
0.427859
0.427634
0.426852
0.426208
0.425628
0.425015
0.424342
0.423602
0.422792
0.421904
0.420932
0.419873
0.418723
0.417473
0.416116
0.414698
0.413303
0.411924
0.410513
0.409078
0.407616
0.406098
0.40455
0.402974
0.40139
0.399756
0.398055
0.396324
0.437606
0.441125
0.440877
0.440058
0.439362
0.438725
0.438051
0.437311
0.4365
0.435611
0.434638
0.433573
0.432412
0.431152
0.429789
0.428315
0.426734
0.4251
0.423474
0.421863
0.420216
0.418529
0.416796
0.415038
0.413231
0.411361
0.409458
0.407531
0.405593
0.451704
0.455055
0.454779
0.453915
0.453165
0.452467
0.451727
0.450916
0.450025
0.449048
0.447978
0.446805
0.445525
0.444135
0.442629
0.441005
0.439255
0.437391
0.435465
0.43355
0.431629
0.429645
0.42765
0.425604
0.423488
0.421373
0.419222
0.416971
0.414672
0.466298
0.469545
0.469236
0.468325
0.467517
0.466757
0.465948
0.46506
0.464085
0.463015
0.46184
0.460552
0.459144
0.457611
0.45595
0.454157
0.452228
0.450157
0.447964
0.445711
0.443469
0.441218
0.438914
0.436589
0.43421
0.43177
0.429294
0.42679
0.424261
0.481301
0.48449
0.484149
0.483188
0.482324
0.481503
0.480626
0.479662
0.478603
0.477439
0.47616
0.474758
0.473224
0.471554
0.469742
0.467785
0.465682
0.463426
0.461015
0.458476
0.455889
0.453276
0.450665
0.447978
0.445236
0.442489
0.439615
0.436671
0.433733
0.496588
0.499755
0.499383
0.49837
0.497449
0.496566
0.49562
0.494578
0.493431
0.49217
0.490783
0.48926
0.487594
0.485777
0.483805
0.481673
0.47938
0.476923
0.474296
0.471492
0.468558
0.465562
0.462517
0.459473
0.456378
0.453165
0.449974
0.446767
0.443446
0.512038
0.515217
0.514813
0.513748
0.51277
0.511826
0.510811
0.509691
0.508454
0.507093
0.505595
0.503949
0.502147
0.50018
0.498043
0.495732
0.493243
0.490576
0.48773
0.484695
0.481467
0.478107
0.474709
0.471272
0.467756
0.464275
0.460687
0.45699
0.453369
0.527534
0.530755
0.530324
0.529207
0.528174
0.527169
0.526085
0.524887
0.523563
0.522102
0.520493
0.518723
0.516781
0.514662
0.512358
0.509865
0.50718
0.504301
0.501228
0.497962
0.494496
0.49083
0.48706
0.483178
0.479257
0.475237
0.471183
0.467101
0.462866
0.542954
0.54625
0.545793
0.544625
0.543537
0.542472
0.54132
0.540042
0.538626
0.537061
0.535333
0.533432
0.531346
0.529066
0.526585
0.523898
0.521001
0.517891
0.514569
0.511035
0.507288
0.503319
0.499149
0.494843
0.490411
0.485979
0.481494
0.476877
0.472229
0.55819
0.561591
0.561112
0.559894
0.558754
0.557631
0.55641
0.555053
0.553547
0.551878
0.550032
0.547996
0.54576
0.543313
0.540649
0.537761
0.534646
0.531299
0.527721
0.523911
0.519872
0.5156
0.511089
0.506374
0.501505
0.496548
0.491533
0.486427
0.481243
0.57314
0.576677
0.57618
0.574913
0.573723
0.572543
0.571255
0.569819
0.568219
0.566442
0.564473
0.5623
0.559911
0.557295
0.554444
0.551349
0.548008
0.544416
0.540571
0.536475
0.532128
0.527533
0.522685
0.517583
0.512269
0.506778
0.501141
0.495398
0.489638
0.587714
0.591415
0.590904
0.589589
0.588351
0.587117
0.585763
0.584246
0.582553
0.58067
0.578578
0.576265
0.573717
0.570923
0.567873
0.564562
0.560984
0.557133
0.55301
0.548612
0.543942
0.539003
0.533796
0.528318
0.52258
0.51662
0.510456
0.504169
0.497824
0.601835
0.605727
0.605204
0.603844
0.602561
0.601275
0.599855
0.59826
0.596473
0.594479
0.592259
0.5898
0.587088
0.584111
0.580859
0.577324
0.573498
0.56938
0.564965
0.560253
0.555247
0.549949
0.544366
0.5385
0.532356
0.525939
0.519289
0.512451
0.505455
0.615436
0.619541
0.619008
0.617606
0.61628
0.614942
0.613458
0.611783
0.609901
0.607794
0.605446
0.602839
0.599958
0.59679
0.593325
0.589554
0.585469
0.581066
0.576343
0.571299
0.565935
0.560255
0.554265
0.547973
0.541384
0.534501
0.527345
0.51997
0.512332
0.628463
0.6328
0.63226
0.630817
0.629451
0.628065
0.626519
0.624764
0.622786
0.620566
0.618085
0.615323
0.612265
0.608898
0.60521
0.60119
0.596831
0.592127
0.587076
0.581676
0.575928
0.569836
0.563408
0.55665
0.549573
0.542183
0.53449
0.526541
0.518307
0.640873
0.645456
0.644909
0.643428
0.642025
0.640594
0.638985
0.637152
0.635077
0.632742
0.630124
0.627204
0.623965
0.620392
0.616471
0.61219
0.607542
0.602518
0.597117
0.591336
0.585178
0.578645
0.571746
0.56449
0.556889
0.548957
0.540704
0.532145
0.523323
0.652633
0.65747
0.656917
0.655401
0.653965
0.65249
0.650821
0.64891
0.646738
0.644285
0.641529
0.638447
0.635021
0.631233
0.627068
0.622514
0.61756
0.612199
0.606425
0.600238
0.593639
0.586632
0.579226
0.571433
0.563267
0.554746
0.54589
0.536709
0.52724
0.663722
0.668815
0.668255
0.666708
0.665244
0.663728
0.662
0.660013
0.657745
0.655175
0.652278
0.649031
0.645411
0.6414
0.636981
0.632139
0.626863
0.621142
0.614972
0.608349
0.601276
0.593756
0.5858
0.577421
0.568636
0.559467
0.549939
0.540076
0.529887
0.674127
0.679473
0.678905
0.677331
0.675842
0.674288
0.672505
0.670443
0.668081
0.665395
0.662357
0.658942
0.655125
0.650884
0.646202
0.641059
0.635443
0.629342
0.622749
0.615659
0.608074
0.599999
0.591443
0.582423
0.572959
0.563076
0.552804
0.542178
0.531209
0.683844
0.689433
0.688855
0.687259
0.68575
0.684163
0.682327
0.680193
0.677738
0.674936
0.671757
0.668172
0.664155
0.659681
0.654727
0.649274
0.643302
0.6368
0.629757
0.622167
0.614032
0.605355
0.596147
0.586427
0.576216
0.565547
0.554454
0.542979
0.531153
0.692876
0.698692
0.698102
0.696489
0.694966
0.693349
0.691464
0.689261
0.686717
0.683802
0.680483
0.676729
0.672509
0.667797
0.662564
0.656788
0.650448
0.643524
0.636006
0.627884
0.619158
0.609831
0.599915
0.589429
0.5784
0.566864
0.554864
0.542451
0.529678
0.701235
0.707257
0.706651
0.705027
0.703495
0.701853
0.699923
0.697657
0.695027
0.692002
0.688546
0.684625
0.680204
0.67525
0.669732
0.663624
0.6569
0.649536
0.641517
0.632831
0.623472
0.613445
0.602759
0.591437
0.57951
0.567019
0.554016
0.540563
0.526732
0.708938
0.715139
0.714515
0.712887
0.711352
0.709689
0.707719
0.705393
0.702683
0.699553
0.695964
0.691879
0.687257
0.682061
0.676257
0.66981
0.66269
0.654868
0.646323
0.637038
0.627005
0.616222
0.604703
0.592468
0.579553
0.566007
0.551892
0.537282
0.522266
0.716005
0.722357
0.721711
0.720086
0.718556
0.716877
0.714872
0.712492
0.709706
0.706476
0.702759
0.698513
0.693693
0.688258
0.682166
0.675376
0.667851
0.659556
0.650462
0.640546
0.629793
0.618201
0.605777
0.592544
0.578543
0.56383
0.548479
0.53258
0.516243
0.722465
0.728937
0.728265
0.726651
0.725132
0.723443
0.721408
0.71898
0.716125
0.712801
0.708962
0.70456
0.699547
0.693876
0.687496
0.68036
0.672423
0.663642
0.653979
0.6434
0.631885
0.619424
0.606021
0.591699
0.576501
0.560494
0.543766
0.52643
0.508617
0.728344
0.734909
0.734207
0.732613
0.731112
0.729419
0.72736
0.724889
0.721972
0.718561
0.714607
0.710057
0.704858
0.698955
0.69229
0.684809
0.676458
0.667181
0.656928
0.645659
0.633338
0.619949
0.605487
0.589974
0.573457
0.55601
0.537743
0.518794
0.499328
0.733673
0.740306
0.739571
0.738006
0.73653
0.734838
0.732761
0.730256
0.727283
0.723793
0.719731
0.715041
0.709663
0.703536
0.696597
0.688778
0.680012
0.670231
0.659377
0.647391
0.634224
0.619845
0.60424
0.587426
0.569448
0.550396
0.530398
0.509628
0.488298
0.738477
0.745166
0.744394
0.742867
0.741423
0.739737
0.73765
0.735117
0.732096
0.728535
0.724374
0.719553
0.714007
0.707668
0.700462
0.692313
0.68314
0.672862
0.661401
0.648678
0.634629
0.619202
0.602368
0.58413
0.564536
0.543683
0.521727
0.498886
0.475434
0.742783
0.749527
0.748714
0.747232
0.745827
0.744154
0.742062
0.739508
0.736447
0.732823
0.728573
0.723632
0.717931
0.711393
0.703937
0.695473
0.68591
0.675147
0.66308
0.649614
0.634657
0.61813
0.599981
0.580195
0.558811
0.535932
0.511748
0.486532
0.460641
0.746611
0.753429
0.752568
0.751139
0.749777
0.748122
0.746031
0.743463
0.740369
0.736691
0.732362
0.727315
0.721474
0.714757
0.707072
0.69832
0.688388
0.677162
0.664512
0.650311
0.634435
0.616771
0.597232
0.575772
0.552411
0.527255
0.500523
0.472558
0.443833
0.74998
0.756909
0.755988
0.754617
0.753304
0.75167
0.749586
0.74701
0.743892
0.740169
0.735774
0.730636
0.724676
0.717805
0.709922
0.700915
0.690655
0.679004
0.665807
0.650899
0.634117
0.615302
0.594316
0.571068
0.545544
0.517832
0.488182
0.457017
0.424963
0.752908
0.760002
0.759004
0.757695
0.756433
0.754824
0.752751
0.750175
0.74704
0.743284
0.73884
0.733633
0.727582
0.720592
0.712555
0.703343
0.69281
0.680792
0.667105
0.651545
0.633898
0.613946
0.591487
0.566363
0.538498
0.507942
0.474957
0.440047
0.404045
0.755414
0.762735
0.761637
0.760393
0.759185
0.757604
0.755549
0.75298
0.749843
0.746071
0.741601
0.736357
0.730256
0.723196
0.715062
0.705713
0.694983
0.682679
0.668584
0.652455
0.634018
0.612982
0.589067
0.56202
0.531668
0.49798
0.461207
0.421903
0.381187
0.757523
0.765128
0.763903
0.762732
0.761578
0.76003
0.758002
0.755455
0.752334
0.748576
0.744117
0.738884
0.732789
0.725726
0.71757
0.708164
0.697326
0.684838
0.670448
0.653863
0.634751
0.612741
0.58745
0.558494
0.525566
0.488483
0.447442
0.402965
0.356609
0.759267
0.767197
0.765816
0.764728
0.763632
0.762125
0.76014
0.757639
0.754567
0.750865
0.746469
0.741308
0.735288
0.7283
0.720208
0.710843
0.700009
0.687464
0.672918
0.656031
0.636409
0.613594
0.587081
0.556317
0.52082
0.480139
0.434365
0.383792
0.330652
0.760685
0.768953
0.767394
0.766405
0.765373
0.763922
0.762004
0.759581
0.756602
0.753009
0.74874
0.743721
0.737858
0.731036
0.723112
0.713908
0.70321
0.690756
0.676224
0.659228
0.639309
0.615915
0.58842
0.556057
0.51813
0.473762
0.422894
0.365169
0.303838
0.761821
0.770409
0.768659
0.767793
0.766833
0.765459
0.763638
0.761334
0.758495
0.75507
0.750997
0.746204
0.740592
0.734041
0.7264
0.717483
0.70706
0.694854
0.680515
0.66362
0.643657
0.619975
0.59183
0.558206
0.518181
0.470233
0.414131
0.348125
0.276978
0.762719
0.771588
0.769645
0.768929
0.768051
0.766777
0.765083
0.762934
0.760285
0.757085
0.753276
0.748781
0.743498
0.737301
0.730033
0.7215
0.711468
0.699644
0.685669
0.66909
0.649354
0.625721
0.597349
0.56294
0.521375
0.470252
0.409182
0.333915
0.25121
0.763429
0.772529
0.7704
0.769858
0.769068
0.767913
0.76637
0.764405
0.761977
0.759034
0.755515
0.75134
0.746403
0.740577
0.733706
0.725593
0.716004
0.704642
0.691145
0.675041
0.655758
0.632482
0.60431
0.569655
0.527264
0.473661
0.4083
0.323333
0.227229
0.763991
0.773277
0.770974
0.770624
0.769923
0.768897
0.767514
0.765737
0.763525
0.760821
0.75756
0.753662
0.749021
0.743513
0.736984
0.729241
0.720053
0.709126
0.696097
0.680488
0.661722
0.63893
0.611194
0.57665
0.534
0.47862
0.409716
0.31534
0.203443
0.764392
0.773835
0.771373
0.771216
0.770594
0.769689
0.768448
0.76683
0.764789
0.762266
0.759195
0.755494
0.751058
0.745766
0.739465
0.73197
0.72305
0.712418
0.699708
0.684438
0.666033
0.643573
0.616147
0.581628
0.538757
0.481712
0.409337
0.305256
0.173741
0.764485
0.774066
0.771454
0.771467
0.770894
0.770071
0.768917
0.767394
0.765451
0.76303
0.760063
0.756466
0.752135
0.746947
0.740752
0.733365
0.724555
0.714032
0.70143
0.686252
0.667916
0.645442
0.617925
0.582946
0.539369
0.479902
0.403406
0.285826
0.129513
0.764323
0.773988
0.771236
0.771369
0.770802
0.769999
0.768855
0.767337
0.765398
0.762983
0.760024
0.756436
0.752116
0.746937
0.740746
0.733355
0.724529
0.713968
0.7013
0.686007
0.667485
0.644683
0.616684
0.580741
0.535901
0.473129
0.392138
0.257003
0.0680161
0.765538
0.775185
0.772401
0.772627
0.772118
0.771384
0.770295
0.768809
0.76687
0.764424
0.761404
0.757733
0.753312
0.748021
0.741709
0.734187
0.725217
0.714494
0.701634
0.686099
0.667261
0.644005
0.615368
0.578359
0.532009
0.466134
0.381527
0.235043
0.0157102
0.772243
0.782015
0.779502
0.779969
0.77994
0.779819
0.77943
0.778642
0.777319
0.775351
0.772648
0.769133
0.764726
0.759329
0.752817
0.745023
0.735727
0.724638
0.71138
0.695426
0.676123
0.65243
0.623136
0.585831
0.537753
0.472295
0.383772
0.257478
0.134286
0.334088
0.333444
0.33279
0.332131
0.331466
0.330794
0.330115
0.32943
0.328741
0.328045
0.327345
0.326638
0.325926
0.32521
0.32449
0.323764
0.323034
0.3223
0.321562
0.32082
0.320076
0.319329
0.31858
0.317829
0.317077
0.316325
0.31557
0.314815
0.31406
0.313305
0.312549
0.311793
0.311038
0.310283
0.309529
0.308776
0.308024
0.307273
0.306524
0.305777
0.305032
0.304288
0.303547
0.302809
0.302074
0.301342
0.300613
0.299888
0.299167
0.29845
0.297737
0.297028
0.296325
0.295626
0.294932
0.294244
0.293561
0.292884
0.292213
0.291548
0.290889
0.290237
0.289591
0.288952
0.28832
0.287695
0.287077
0.286466
0.285863
0.285268
0.284681
0.284101
0.283529
0.282967
0.282412
0.281866
0.281328
0.2808
0.28028
0.279769
0.279269
0.278776
0.278294
0.277821
0.277357
0.276904
0.27646
0.276027
0.275604
0.275191
0.274788
0.274397
0.274015
0.273645
0.273285
0.272937
0.272599
0.272272
0.271957
0.271652
0.271358
0.271076
0.270804
0.270544
0.270295
0.270057
0.26983
0.269613
0.269408
0.269213
0.269029
0.268856
0.268692
0.268539
0.268396
0.268263
0.268139
0.268025
0.267921
0.267827
0.267742
0.267667
0.2676
0.267542
0.267492
0.26745
0.267416
0.26739
0.267368
0.267356
0.267349
0.267349
0.267359
0.267369
0.267401
0.267422
0.267489
0.267504
0.26766
0.334753
0.334082
0.333407
0.332726
0.332037
0.331342
0.330644
0.329939
0.329229
0.328515
0.327796
0.327072
0.326347
0.325617
0.324883
0.324147
0.323408
0.322667
0.321924
0.32118
0.320432
0.319683
0.31893
0.318174
0.317417
0.316654
0.315892
0.315129
0.31436
0.31359
0.31282
0.31205
0.311279
0.310508
0.309738
0.308968
0.3082
0.307432
0.306666
0.305902
0.305139
0.30438
0.303622
0.302865
0.30211
0.301358
0.300608
0.299861
0.299118
0.298378
0.297642
0.29691
0.296183
0.29546
0.294741
0.294028
0.29332
0.292618
0.291921
0.29123
0.290545
0.289866
0.289195
0.28853
0.287872
0.287221
0.286577
0.285941
0.285313
0.284693
0.28408
0.283476
0.282881
0.282294
0.281716
0.281147
0.280588
0.280038
0.279496
0.278966
0.278445
0.277935
0.277434
0.276945
0.276466
0.275997
0.27554
0.275093
0.274657
0.274233
0.273819
0.273416
0.273024
0.272644
0.272275
0.271917
0.271571
0.271236
0.270913
0.270602
0.270302
0.270014
0.269738
0.269473
0.269221
0.26898
0.26875
0.268533
0.268328
0.268134
0.267953
0.267783
0.267625
0.267479
0.267345
0.267223
0.267112
0.267012
0.266923
0.266844
0.266775
0.266716
0.266666
0.266624
0.266591
0.266565
0.266546
0.266532
0.266529
0.266519
0.266526
0.266521
0.26654
0.266514
0.266559
0.266517
0.26656
0.2665
0.266459
0.336052
0.335357
0.334657
0.333949
0.333237
0.332521
0.331798
0.331068
0.330333
0.329593
0.328847
0.328095
0.327336
0.326571
0.325801
0.325026
0.324245
0.323458
0.322665
0.321866
0.321063
0.320255
0.319445
0.318643
0.317851
0.317065
0.316261
0.315438
0.314621
0.313803
0.312985
0.312165
0.31135
0.310539
0.309729
0.308919
0.308108
0.307298
0.306488
0.30568
0.304874
0.304066
0.303255
0.302447
0.301642
0.300842
0.300045
0.299253
0.298464
0.29768
0.2969
0.296125
0.295354
0.294589
0.293829
0.293074
0.292326
0.291583
0.290846
0.290117
0.289393
0.288677
0.287968
0.287267
0.286574
0.285888
0.285211
0.284542
0.283882
0.283231
0.282589
0.281956
0.281331
0.280718
0.280114
0.27952
0.278935
0.278361
0.277796
0.277241
0.276695
0.276163
0.275641
0.275129
0.274628
0.27414
0.27366
0.273194
0.27274
0.272298
0.271868
0.27145
0.271044
0.270651
0.27027
0.269902
0.269547
0.269204
0.268875
0.268558
0.268255
0.267965
0.267688
0.267425
0.267175
0.266938
0.266714
0.266504
0.266308
0.266124
0.265954
0.265797
0.265654
0.265524
0.265407
0.265303
0.265213
0.265136
0.265072
0.265021
0.264982
0.264955
0.264941
0.264939
0.264949
0.264972
0.265006
0.265052
0.265112
0.265183
0.265274
0.265337
0.265432
0.265551
0.26555
0.265793
0.265592
0.266189
0.26558
0.337688
0.336944
0.336189
0.335433
0.33467
0.333898
0.33312
0.332337
0.33155
0.330753
0.32995
0.329142
0.328328
0.32751
0.326685
0.325854
0.325021
0.324183
0.323344
0.322503
0.321652
0.320799
0.319942
0.319074
0.318187
0.317296
0.316415
0.315541
0.314664
0.313784
0.312902
0.312017
0.311138
0.310269
0.309399
0.308527
0.307654
0.306781
0.305908
0.305037
0.304168
0.303305
0.302451
0.3016
0.300745
0.299889
0.299037
0.298191
0.29735
0.296514
0.295683
0.294858
0.294038
0.293224
0.292416
0.291615
0.290822
0.290035
0.289256
0.288485
0.287722
0.286968
0.286223
0.285486
0.284758
0.28404
0.283331
0.282631
0.281941
0.281261
0.280592
0.279932
0.279279
0.278632
0.277993
0.277366
0.276739
0.276117
0.275507
0.274909
0.274332
0.273765
0.273211
0.272662
0.272124
0.271598
0.271086
0.270596
0.270115
0.269645
0.269186
0.268737
0.268302
0.267879
0.267471
0.267078
0.2667
0.266338
0.265989
0.265655
0.265336
0.265031
0.26474
0.264463
0.2642
0.263954
0.263722
0.263507
0.263307
0.263124
0.262957
0.262807
0.262673
0.262556
0.262456
0.262373
0.262308
0.26226
0.26223
0.262219
0.262227
0.262255
0.262302
0.262369
0.262457
0.262567
0.262694
0.26284
0.263021
0.263195
0.263371
0.26375
0.263632
0.264543
0.263659
0.265832
0.263476
0.267508
0.262701
0.339645
0.338858
0.338066
0.337267
0.336455
0.335636
0.334814
0.333981
0.333141
0.332297
0.331444
0.330584
0.329718
0.328848
0.32797
0.327084
0.326193
0.325294
0.324382
0.323464
0.322548
0.321629
0.320701
0.319766
0.318825
0.31788
0.316936
0.315981
0.315027
0.314078
0.313128
0.31217
0.311203
0.31024
0.309283
0.30833
0.307381
0.306435
0.30549
0.304548
0.303605
0.302663
0.301725
0.300794
0.299874
0.298963
0.298055
0.297149
0.296245
0.295345
0.294449
0.293559
0.292674
0.291795
0.290923
0.290057
0.289197
0.288344
0.287498
0.286659
0.285827
0.285002
0.284185
0.283375
0.282573
0.281779
0.280995
0.280216
0.279448
0.278693
0.277942
0.277207
0.276483
0.275773
0.275078
0.274394
0.273736
0.27309
0.272451
0.271826
0.271202
0.270593
0.269998
0.269424
0.26887
0.268327
0.267789
0.267252
0.266732
0.26623
0.265746
0.265281
0.264832
0.2644
0.263982
0.263578
0.263188
0.262812
0.262453
0.262108
0.261778
0.261466
0.261169
0.260891
0.260629
0.260383
0.260154
0.259941
0.259745
0.259566
0.259405
0.259263
0.259139
0.259035
0.25895
0.258885
0.258841
0.258818
0.258816
0.258835
0.258877
0.258941
0.259028
0.259139
0.259273
0.259435
0.259638
0.259855
0.260096
0.260581
0.260525
0.261721
0.260708
0.263853
0.26038
0.267153
0.258935
0.272436
0.253171
0.342082
0.341281
0.340471
0.339636
0.338789
0.337932
0.337056
0.336165
0.335262
0.334341
0.333411
0.332469
0.331513
0.330545
0.329577
0.328599
0.327605
0.326602
0.325619
0.324629
0.323616
0.322592
0.321569
0.320541
0.319529
0.31854
0.317535
0.31651
0.315487
0.314447
0.313408
0.312382
0.311351
0.3103
0.309246
0.308195
0.307144
0.306095
0.305048
0.304004
0.302962
0.301923
0.300883
0.299849
0.298823
0.297805
0.296792
0.295787
0.294789
0.293796
0.29281
0.29183
0.290856
0.289889
0.288928
0.287973
0.287026
0.286086
0.285155
0.284231
0.283316
0.28241
0.281514
0.280627
0.279753
0.278888
0.278036
0.277198
0.276373
0.27556
0.274759
0.273975
0.273208
0.272457
0.27172
0.27099
0.270267
0.269565
0.268878
0.268195
0.267523
0.26687
0.26623
0.26561
0.264996
0.264395
0.263822
0.263269
0.262733
0.262207
0.261697
0.261197
0.260713
0.260253
0.25981
0.259383
0.258971
0.258573
0.258193
0.257828
0.25748
0.257148
0.256832
0.256531
0.256244
0.255971
0.255713
0.255475
0.255257
0.255061
0.254884
0.254729
0.254595
0.254482
0.25439
0.254321
0.254273
0.254249
0.254249
0.254274
0.254326
0.254406
0.254518
0.254665
0.254847
0.255055
0.255308
0.255677
0.255757
0.256622
0.256114
0.258083
0.256365
0.259848
0.256526
0.261927
0.255239
0.268473
0.237519
0.344869
0.344022
0.343139
0.342244
0.341342
0.340406
0.339448
0.338479
0.337507
0.336513
0.335501
0.334483
0.333453
0.33241
0.331348
0.330293
0.329279
0.328237
0.327119
0.326002
0.324894
0.32379
0.322687
0.321563
0.320411
0.319223
0.318046
0.316902
0.315749
0.3146
0.313447
0.312281
0.311114
0.309962
0.308826
0.30769
0.306548
0.305405
0.304262
0.303121
0.301985
0.300854
0.299727
0.298602
0.297473
0.296344
0.295219
0.2941
0.29299
0.291888
0.290795
0.289711
0.288636
0.28757
0.286515
0.28547
0.284436
0.283415
0.282405
0.281408
0.280424
0.279454
0.278498
0.277555
0.276626
0.275711
0.274808
0.27392
0.273045
0.272178
0.271328
0.270479
0.269643
0.268817
0.268002
0.267204
0.266422
0.265652
0.264894
0.264152
0.263427
0.262722
0.262031
0.26134
0.260659
0.260002
0.259362
0.258736
0.258124
0.257532
0.256953
0.256397
0.25586
0.255335
0.254828
0.254344
0.25388
0.253435
0.253007
0.252598
0.252207
0.251835
0.251482
0.251149
0.250838
0.250549
0.250283
0.250037
0.249809
0.2496
0.249411
0.249241
0.249091
0.248963
0.248856
0.248772
0.248712
0.248676
0.248665
0.24868
0.248723
0.248791
0.248887
0.249008
0.249159
0.249334
0.249453
0.249827
0.249719
0.250439
0.249984
0.25105
0.250392
0.251475
0.251235
0.251804
0.251477
0.258269
0.226253
0.348392
0.347448
0.346491
0.345528
0.344513
0.343488
0.342505
0.34149
0.340403
0.339311
0.338204
0.337082
0.335942
0.334788
0.333625
0.332422
0.331149
0.3299
0.328687
0.327468
0.326241
0.324979
0.323696
0.322436
0.321175
0.319911
0.318653
0.317414
0.316163
0.314885
0.313608
0.312334
0.311057
0.309769
0.308464
0.307161
0.305873
0.304594
0.303322
0.302058
0.300798
0.299543
0.298297
0.29706
0.29583
0.294596
0.293361
0.292138
0.290927
0.289723
0.288528
0.287341
0.286164
0.284998
0.283845
0.282702
0.281574
0.280457
0.279354
0.278265
0.277187
0.276124
0.275074
0.274036
0.273012
0.272001
0.271003
0.270019
0.269043
0.268078
0.267122
0.266174
0.265228
0.264299
0.263389
0.262485
0.261602
0.26074
0.259904
0.259093
0.258306
0.257539
0.256796
0.256073
0.255383
0.254718
0.254056
0.253415
0.252792
0.25218
0.251589
0.251011
0.250444
0.249892
0.249353
0.248825
0.248313
0.247819
0.247343
0.246888
0.246453
0.24604
0.245648
0.245278
0.24493
0.244604
0.244299
0.244015
0.243752
0.243509
0.243286
0.243084
0.242902
0.242741
0.242601
0.242483
0.242385
0.242308
0.242251
0.242212
0.242191
0.242184
0.24219
0.242207
0.242233
0.2423
0.242266
0.242468
0.242342
0.242684
0.242491
0.242924
0.242748
0.242984
0.243529
0.242702
0.242637
0.249622
0.220455
0.352834
0.351796
0.350737
0.349619
0.348491
0.347352
0.346118
0.344871
0.34365
0.342432
0.341178
0.339892
0.338592
0.337257
0.335917
0.334587
0.333271
0.331932
0.330545
0.329141
0.327731
0.326354
0.324987
0.323557
0.322131
0.320753
0.319397
0.317991
0.316533
0.315065
0.31361
0.312157
0.310713
0.309295
0.307891
0.30649
0.305077
0.303653
0.302232
0.300814
0.299398
0.297988
0.296583
0.295186
0.293797
0.292426
0.291074
0.289727
0.288385
0.287055
0.28574
0.284438
0.283149
0.281872
0.280607
0.279355
0.278115
0.276887
0.275672
0.274471
0.273282
0.272107
0.270946
0.269799
0.268666
0.267546
0.266443
0.265354
0.264285
0.263238
0.262209
0.261206
0.260233
0.259281
0.258351
0.257444
0.256555
0.255689
0.25483
0.253974
0.253134
0.252311
0.25149
0.250687
0.2499
0.249126
0.248383
0.247657
0.246946
0.246267
0.245613
0.244976
0.244365
0.243777
0.243206
0.242659
0.242132
0.241625
0.241136
0.240663
0.240208
0.239769
0.239347
0.238943
0.238555
0.238186
0.237835
0.237502
0.237188
0.236894
0.236619
0.236364
0.236129
0.235913
0.235714
0.235533
0.23537
0.235221
0.235087
0.234967
0.234858
0.234765
0.234679
0.234604
0.23453
0.234511
0.234398
0.234481
0.234319
0.234511
0.23431
0.234565
0.234604
0.23427
0.234688
0.23382
0.23239
0.23921
0.21374
0.358109
0.356903
0.355648
0.354387
0.353115
0.351783
0.35044
0.349092
0.347696
0.346261
0.344819
0.343341
0.341891
0.340542
0.339113
0.337566
0.336007
0.334419
0.332881
0.331387
0.32981
0.328183
0.326571
0.324959
0.323372
0.321781
0.320142
0.31848
0.316852
0.315263
0.313663
0.312051
0.310426
0.308818
0.307243
0.305668
0.304098
0.302543
0.300993
0.299441
0.297895
0.296352
0.294808
0.293259
0.291714
0.290178
0.288646
0.287126
0.285642
0.284206
0.282785
0.281372
0.27997
0.278579
0.277201
0.275837
0.274487
0.273151
0.271831
0.270526
0.269237
0.267965
0.26671
0.265473
0.264255
0.263055
0.26187
0.260706
0.259567
0.258448
0.257349
0.256271
0.255211
0.254166
0.253134
0.252123
0.251133
0.250151
0.249201
0.248282
0.247378
0.246504
0.245664
0.244834
0.244016
0.243232
0.242465
0.2417
0.240963
0.240243
0.239524
0.23883
0.238155
0.237491
0.236852
0.236231
0.235631
0.235052
0.234494
0.233958
0.233443
0.232947
0.232472
0.232017
0.23158
0.231163
0.230763
0.230383
0.230021
0.229676
0.229348
0.229038
0.228743
0.228464
0.2282
0.22795
0.227715
0.227492
0.227283
0.227088
0.226904
0.226735
0.226582
0.22644
0.226297
0.226224
0.22606
0.226077
0.225901
0.225979
0.225864
0.225844
0.226159
0.225768
0.225693
0.225025
0.223752
0.229628
0.20748
0.364289
0.36293
0.361569
0.36013
0.358645
0.357177
0.355676
0.354111
0.352544
0.350973
0.349375
0.347752
0.346063
0.34426
0.34249
0.340791
0.339106
0.337382
0.335607
0.333804
0.332021
0.330265
0.328508
0.326726
0.32492
0.323095
0.321272
0.319485
0.31768
0.315848
0.314027
0.312204
0.310399
0.30859
0.306779
0.304984
0.303209
0.30145
0.299699
0.297964
0.296246
0.294549
0.29287
0.29122
0.289569
0.287899
0.28625
0.284624
0.282988
0.28135
0.279742
0.278166
0.276611
0.275076
0.273562
0.272069
0.270596
0.269144
0.267714
0.266305
0.264917
0.263552
0.262207
0.260881
0.259577
0.258294
0.257038
0.2558
0.254577
0.253371
0.25219
0.251021
0.249875
0.24876
0.247661
0.246586
0.245529
0.244504
0.243494
0.24249
0.24151
0.24056
0.239624
0.238708
0.237828
0.236964
0.236116
0.235308
0.234517
0.233728
0.232979
0.232249
0.231527
0.230831
0.230154
0.229492
0.228851
0.228227
0.227624
0.227039
0.226472
0.225927
0.2254
0.224893
0.224406
0.223937
0.223488
0.223057
0.222641
0.222244
0.221861
0.221495
0.221142
0.220805
0.220482
0.220172
0.219876
0.219595
0.219325
0.219072
0.218832
0.218608
0.218402
0.218224
0.218032
0.217926
0.217744
0.217707
0.217544
0.217559
0.21747
0.217293
0.217374
0.216849
0.216453
0.215869
0.214893
0.219878
0.200494
0.371128
0.369557
0.367928
0.366271
0.364622
0.36288
0.361089
0.359332
0.357524
0.355632
0.353743
0.351854
0.349938
0.348036
0.346121
0.344154