/*--------------------------------*- C++ -*----------------------------------*\
| =========                 |                                                 |
| \\      /  F ield         | OpenFOAM: The Open Source CFD Toolbox           |
|  \\    /   O peration     | Version:  5.x                                   |
|   \\  /    A nd           | Web:      www.OpenFOAM.org                      |
|    \\/     M anipulation  |                                                 |
\*---------------------------------------------------------------------------*/
/*   Windows 32 and 64 bit porting by blueCAPE: http://www.bluecape.com.pt   *\
|  Based on Windows porting (2.0.x v4) by Symscape: http://www.symscape.com   |
\*---------------------------------------------------------------------------*/
FoamFile
{
    version     2.0;
    format      ascii;
    class       surfaceScalarField;
    location    "280";
    object      phi;
}
// * * * * * * * * * * * * * * * * * * * * * * * * * * * * * * * * * * * * * //

dimensions      [0 3 -1 0 0 0 0];

internalField   nonuniform List<scalar> 
87341
(
0.365413
39.5576
0.528834
39.7596
0.495245
39.9566
0.601635
39.8166
0.637519
39.8872
0.681203
39.8794
0.716724
39.8875
0.752724
39.887
0.788319
39.8874
0.819327
39.892
0.853094
39.8893
0.885433
39.8907
0.913787
39.8947
0.938046
39.8988
0.962018
39.8991
0.984901
39.9002
1.00257
39.9054
1.01963
39.906
1.03644
39.9062
1.05184
39.9076
1.06883
39.906
1.08413
39.9077
1.09726
39.9099
1.11163
39.9087
1.12448
39.9102
1.13694
39.9106
1.15074
39.9092
1.16219
39.9116
39.9127
1.17254
0.971077
38.5865
1.36337
39.3673
1.47525
39.8447
1.61303
39.6789
1.65413
39.8461
1.81387
39.7196
1.91771
39.7837
2.05083
39.7539
2.14621
39.7921
2.2464
39.7918
2.33312
39.8025
2.41818
39.8056
2.50265
39.8102
2.58413
39.8173
2.65876
39.8244
2.72415
39.8348
2.79095
39.8386
2.85746
39.8395
2.91609
39.8476
2.97272
39.851
3.02257
39.8562
3.06788
39.8624
3.11551
39.8623
3.15849
39.8657
3.19854
39.8701
3.23818
39.8709
3.27203
39.8754
3.30528
39.8783
39.8766
3.34133
2.03572
36.5508
3.35303
38.05
4.13242
39.0654
4.21594
39.5953
4.37545
39.6865
4.31154
39.7835
4.34454
39.7507
4.32338
39.7751
4.34845
39.767
4.36742
39.7729
4.39076
39.7792
4.4157
39.7807
4.44533
39.7806
4.47985
39.7828
4.51508
39.7892
4.55802
39.7918
4.6042
39.7924
4.64392
39.7997
4.68772
39.8038
4.73156
39.8072
4.77465
39.8131
4.82165
39.8154
4.86352
39.8204
4.903
39.8262
4.94485
39.8283
4.98317
39.8326
5.02259
39.836
5.06473
39.8362
39.8409
5.10049
1.69701
34.8538
3.49814
36.2489
4.94925
37.6142
5.83656
38.708
6.13709
39.386
6.22543
39.6952
6.24086
39.7352
6.27181
39.7441
6.29243
39.7464
6.31019
39.7551
6.32676
39.7626
6.33962
39.7679
6.352
39.7682
6.36235
39.7724
6.3822
39.7694
6.40478
39.7692
6.42211
39.7751
6.44608
39.7758
6.47434
39.7755
6.50242
39.7791
6.5357
39.7798
6.56837
39.7828
6.60324
39.7855
6.64253
39.7869
6.68074
39.7901
6.72353
39.7898
6.76973
39.7898
6.81032
39.7956
39.7987
6.85252
1.08977
33.764
2.45821
34.8805
4.03319
36.0393
5.50015
37.2411
6.57237
38.3138
7.16239
39.1052
7.37314
39.5245
7.42046
39.6968
7.46675
39.7001
7.51948
39.7024
7.57355
39.7086
7.63018
39.7112
7.68628
39.7121
7.74167
39.717
7.78932
39.7217
7.83428
39.7243
7.88835
39.721
7.94283
39.7213
7.99
39.7284
8.03895
39.7301
8.08519
39.7336
8.13405
39.7339
8.19069
39.7289
8.24932
39.7283
8.30954
39.7298
8.36539
39.734
8.41317
39.742
8.46681
39.742
39.7354
8.53007
0.856798
32.9072
1.87216
33.8651
3.04461
34.8668
4.37841
35.9073
5.73607
36.9561
6.87616
37.9651
7.60639
38.7942
7.9621
39.3411
8.09477
39.5674
8.18041
39.6167
8.27402
39.6149
8.36603
39.6192
8.4477
39.6304
8.5288
39.6359
8.61637
39.6341
8.70271
39.6379
8.77875
39.6449
8.85499
39.6451
8.9403
39.6431
9.02349
39.6469
9.10937
39.6477
9.19835
39.6449
9.27727
39.65
9.34179
39.6638
9.40633
39.6653
9.47788
39.6624
9.56529
39.6546
9.65495
39.6523
39.6645
9.72583
0.749536
32.1577
1.60078
33.0138
2.55525
33.9123
3.61695
34.8456
4.77556
35.7975
5.99148
36.7492
7.10605
37.6797
7.93617
38.511
8.39505
39.1086
8.59497
39.4168
8.70944
39.5005
8.82706
39.5016
8.95206
39.5054
9.06915
39.5188
9.18277
39.5205
9.30101
39.5197
9.42322
39.5227
9.54066
39.5276
9.64813
39.5356
9.76179
39.5333
9.87309
39.5364
9.96835
39.5496
10.0667
39.5516
10.1868
39.5437
10.3085
39.5436
10.4272
39.5437
10.5239
39.5579
10.6071
39.5691
39.5744
10.6973
0.696132
31.4616
1.46151
32.2485
2.29993
33.0739
3.21361
33.9319
4.19995
34.8112
5.25003
35.6991
6.34878
36.5809
7.42391
37.4358
8.29725
38.2352
8.85209
38.862
9.11568
39.2369
9.2569
39.3604
9.39598
39.3663
9.54362
39.3712
9.68401
39.3801
9.82036
39.3834
9.96201
39.3811
10.1112
39.3785
10.2611
39.3856
10.4003
39.3941
10.534
39.4027
10.6836
39.4001
10.8363
39.3988
10.9721
39.4079
11.0981
39.4176
11.2116
39.4302
11.3305
39.4391
11.4673
39.4323
39.4264
11.6152
0.668434
30.7931
1.3871
31.5298
2.16066
32.3004
2.99111
33.1014
3.87793
33.9244
4.81757
34.7594
5.80243
35.5961
6.81629
36.422
7.82912
37.2224
8.71327
37.9778
9.33448
38.6157
9.65609
39.0388
9.83315
39.1893
10.0029
39.2015
10.176
39.207
10.3469
39.2124
10.5051
39.2229
10.6596
39.224
10.8185
39.2267
10.9899
39.2227
11.1668
39.2258
11.3276
39.2394
11.4739
39.2525
11.6137
39.2681
11.7667
39.2646
11.9265
39.2704
12.0891
39.2764
12.2323
39.2891
39.2967
12.362
0.651214
30.1419
1.34541
30.8356
2.08148
31.5643
2.86114
32.3218
3.68458
33.1009
4.55024
33.8938
5.45425
34.6921
6.38945
35.4868
7.34388
36.268
8.29825
37.0235
9.17845
37.7355
9.84884
38.3684
10.2308
38.8074
10.4473
38.9849
10.6501
39.0043
10.8494
39.0131
11.0616
39.0108
11.2545
39.031
11.439
39.0422
11.6181
39.0435
11.7957
39.0483
11.9832
39.0518
12.1798
39.0559
12.3859
39.062
12.5693
39.0812
12.7499
39.0899
12.9234
39.1028
13.1053
39.1072
39.1186
13.2833
0.648764
29.4932
1.33132
30.153
2.04864
30.847
2.80136
31.5691
3.58939
32.3129
4.4116
33.0716
5.2657
33.838
6.14779
34.6047
7.05183
35.3639
7.96842
36.1069
8.88133
36.8226
9.75497
37.4947
10.4527
38.1096
10.8793
38.5582
11.1349
38.7488
11.3773
38.7707
11.6031
38.7849
11.8465
38.7876
12.0918
38.797
12.3228
38.8125
12.5503
38.8207
12.7742
38.8279
12.9846
38.8456
13.189
38.8575
13.3969
38.8733
13.6019
38.8849
13.7991
38.9057
13.9786
38.9278
38.9356
14.1616
0.651602
28.8416
1.33151
29.4731
2.04134
30.1371
2.78134
30.8291
3.55122
31.543
4.34991
32.2729
5.17556
33.0123
6.02541
33.7548
6.89547
34.4939
7.77988
35.2225
8.6696
35.9328
9.54882
36.6155
10.4009
37.2576
11.1122
37.847
11.5668
38.2941
11.857
38.4805
12.1285
38.5135
12.3849
38.5312
12.6432
38.5386
12.9111
38.5446
13.1618
38.5701
13.3951
38.5946
13.6332
38.6074
13.8725
38.6183
14.1049
38.6409
14.3402
38.6496
14.5851
38.6608
14.8224
38.6905
38.7067
15.0513
0.655853
28.1857
1.33812
28.7909
2.04679
29.4285
2.78178
30.0941
3.54266
30.7821
4.32852
31.487
5.13776
32.2031
5.96809
32.9245
6.81646
33.6455
7.67871
34.3602
8.54912
35.0624
9.41935
35.7453
10.2767
36.4002
11.1081
37.0156
11.8205
37.5817
12.2811
38.02
12.5925
38.202
12.8911
38.2326
13.1683
38.2614
13.4246
38.2883
13.6922
38.3025
13.9771
38.3097
14.2577
38.3268
14.5319
38.3441
14.7986
38.3743
15.0451
38.4031
15.2624
38.4435
15.4902
38.4626
38.4658
15.7312
0.666184
27.5195
1.35628
28.1008
2.07054
28.7142
2.80882
29.3558
3.57032
30.0206
4.35414
30.7032
5.15897
31.3982
5.98291
32.1006
6.82347
32.8049
7.6775
33.5062
8.54092
34.199
9.40827
34.8779
10.2719
35.5366
11.1203
36.1672
11.943
36.759
12.6585
37.3045
13.1317
37.7288
13.4661
37.8982
13.7935
37.934
14.0981
37.9838
14.4125
37.9881
14.7224
37.9998
15.0227
38.0265
15.312
38.0547
15.6066
38.0797
15.911
38.0987
16.2297
38.1247
16.5351
38.1573
38.1973
16.8035
0.679534
26.84
1.38121
27.3991
2.10516
27.9903
2.85136
28.6096
3.61916
29.2528
4.40736
29.915
5.21473
30.5909
6.03973
31.2756
6.8803
31.9644
7.73391
32.6526
8.59738
33.3355
9.46675
34.0086
10.3367
34.6666
11.2
35.3039
12.0457
35.9133
12.865
36.4852
13.5804
37.0133
14.0557
37.4229
14.4103
37.5794
14.7876
37.6064
15.1248
37.6509
15.4425
37.6821
15.7534
37.7156
16.0719
37.7363
16.3627
37.7889
16.6262
37.8352
16.8757
37.8751
17.1435
37.8895
37.8922
17.4486
0.693312
26.1467
1.4076
26.6848
2.14268
27.2552
2.89827
27.854
3.67397
28.4771
4.46867
29.1203
5.28082
29.7787
6.10893
30.4474
6.95123
31.1221
7.8055
31.7983
8.66911
32.4719
9.53884
33.1388
10.4107
33.7948
11.2793
34.4352
12.1378
35.0549
12.9755
35.6474
13.7842
36.2047
14.4862
36.721
14.9595
37.106
15.3161
37.2498
15.6781
37.289
16.0146
37.3456
16.339
37.3912
16.6536
37.4216
16.9863
37.4563
17.3545
37.467
17.7015
37.5281
17.985
37.606
37.6602
18.217
0.709154
25.4375
1.43838
25.9556
2.1874
26.5062
2.95573
27.0857
3.74276
27.6901
4.54773
28.3153
5.36923
28.9572
6.20555
29.6111
7.05498
30.2726
7.91556
30.9377
8.785
31.6025
9.66065
32.2632
10.5393
32.9161
11.4172
33.5574
12.2892
34.1828
13.1489
34.7878
13.9871
35.3665
14.7959
35.9121
15.4881
36.4139
15.9623
36.7756
16.3361
36.9152
16.7128
36.9689
17.0943
37.0096
17.4753
37.0406
17.8208
37.1108
18.1228
37.165
18.4424
37.2086
18.8245
37.224
37.267
19.2176
0.72656
24.711
1.47257
25.2096
2.23771
25.741
3.02143
26.302
3.82294
26.8886
4.64141
27.4969
5.47579
28.1228
6.32445
28.7625
7.18569
29.4114
8.05773
30.0657
8.93847
30.7217
9.82562
31.376
10.7165
32.0252
11.6082
32.6657
12.497
33.2941
13.3781
33.9066
14.2456
34.4989
15.0918
35.066
15.9029
35.6028
16.5792
36.0993
17.0482
36.4462
17.4529
36.5642
17.8322
36.6302
18.2089
36.664
18.6016
36.7181
18.9878
36.7787
19.3151
36.8813
19.5617
36.9774
37.0238
19.8049
0.743921
23.967
1.50691
24.4466
2.28853
24.9594
3.08819
25.5023
3.90507
26.0717
4.73816
26.6638
5.5864
27.2746
6.44842
27.9004
7.32243
28.5374
8.20673
29.1814
9.09947
29.829
9.9985
30.477
10.9015
31.1222
11.8057
31.7615
12.7081
32.3917
13.605
33.0097
14.4919
33.6121
15.3629
34.195
16.211
34.7546
17.0204
35.2899
17.6813
35.7853
18.1459
36.0995
18.5674
36.2088
18.9418
36.2896
19.2822
36.3778
19.6213
36.4396
20.0323
36.4702
20.4752
36.5345
36.6556
20.8435
0.760821
23.2062
1.54042
23.667
2.33833
24.1615
3.15389
24.6867
3.98628
25.2393
4.83446
25.8156
5.69727
26.4118
6.5735
27.0242
7.46147
27.6494
8.35929
28.2836
9.2652
28.9231
10.1773
29.565
11.0934
30.2061
12.0112
30.8436
12.9281
31.4748
13.8412
32.0966
14.7469
32.7063
15.6413
33.3006
16.5197
33.8762
17.3799
34.4297
18.2035
34.9618
18.8472
35.4558
19.299
35.757
19.7308
35.8578
20.1572
35.9513
20.5373
36.0595
20.8404
36.1671
21.1542
36.2207
36.2468
21.563
0.776497
22.4297
1.57157
22.8719
2.38473
23.3483
3.21528
23.8562
4.06239
24.3922
4.925
24.953
5.80191
25.5349
6.69182
26.1343
7.59335
26.7479
8.50468
27.3722
9.42393
28.0039
10.3493
28.6396
11.2786
29.2767
12.2099
29.9124
13.1408
30.5439
14.0687
31.1687
14.9908
31.7842
15.9039
32.3875
16.8042
32.9759
17.6879
33.5461
18.5546
34.0951
19.3748
34.6356
19.9938
35.138
20.4068
35.4448
20.8086
35.5495
21.2197
35.6484
21.6715
35.7153
22.0347
35.8575
35.9487
22.3328
0.790237
21.6395
1.59891
22.0632
2.42549
22.5218
3.26928
23.0124
4.1294
23.5321
5.0048
24.0776
5.89426
24.6454
6.79639
25.2322
7.7098
25.8345
8.63286
26.4492
9.56363
27.0731
10.5003
27.703
11.4408
28.3362
12.3832
28.97
13.3251
29.602
14.2642
30.2296
15.1978
30.8505
16.1231
31.4623
17.0365
32.0624
17.934
32.6486
18.8102
33.2189
19.6717
33.774
20.4851
34.3246
21.0935
34.8364
21.5446
35.0985
21.9725
35.2205
22.3586
35.3292
22.7938
35.4223
35.5544
23.1881
0.80185
20.8376
1.62201
21.2431
2.45995
21.6838
3.31496
22.1574
4.18619
22.6609
5.07257
23.1912
5.9729
23.7451
6.88579
24.3193
7.80977
24.9105
8.74335
25.5156
9.68465
26.1318
10.6317
26.756
11.5826
27.3853
12.5353
28.0173
13.4877
28.6496
14.4376
29.2797
15.3826
29.9055
16.3202
30.5248
17.2473
31.1353
18.161
31.7349
19.0579
32.3219
19.9368
32.8952
20.8062
33.4553
21.6194
34.0232
22.2042
34.5137
22.6547
34.77
23.0801
34.9038
23.4527
35.0498
35.161
23.8461
0.811055
20.0266
1.64032
20.4138
2.48725
20.8369
3.35118
21.2934
4.23125
21.7808
5.12643
22.296
6.03552
22.836
6.95714
23.3977
7.8898
23.9778
8.83193
24.5735
9.78188
25.1818
10.7377
25.8002
11.6974
26.4256
12.659
27.0557
13.6205
27.6881
14.5796
28.3206
15.5342
28.951
16.4818
29.5771
17.4199
30.1971
18.3459
30.8089
19.257
31.4108
20.1511
32.0011
21.0272
32.5791
21.8973
33.1531
22.6742
33.7368
23.2245
34.2197
23.6365
34.4917
24.0516
34.6347
34.7879
24.4246
0.817804
19.2088
1.6537
19.5779
2.50717
19.9834
3.37758
20.423
4.26409
20.8943
5.16572
21.3944
6.08127
21.9205
7.00941
22.4695
7.94866
23.0386
8.89738
23.6247
9.85396
24.2253
10.8166
24.8376
11.7831
25.459
12.7518
26.0871
13.7204
26.7195
14.6868
27.3541
15.6489
27.9888
16.6044
28.6216
17.551
29.2506
18.4862
29.8737
19.4077
30.4893
20.3131
31.0957
21.2007
31.6915
22.0759
32.2779
22.9419
32.8707
23.7052
33.4564
24.241
33.9559
24.6588
34.2169
34.4109
25.0359
0.822089
18.3867
1.66213
18.7379
2.51967
19.1259
3.39409
19.5486
4.28462
20.0038
5.1903
20.4887
6.10999
21.0008
7.04238
21.5371
7.986
22.095
8.93923
22.6715
9.90041
23.2641
10.8678
23.8702
11.8393
24.4874
12.8131
25.1133
13.7871
25.7455
14.7592
26.382
15.7273
27.0208
16.6891
27.6598
17.6424
28.2972
18.5849
28.9312
19.5144
29.5599
20.4285
30.1816
21.3252
30.7949
22.2037
31.3994
23.0744
32
23.9262
32.6046
24.6441
33.2381
25.165
33.696
33.985
25.5908
0.823973
17.5627
1.66575
17.8961
2.52492
18.2667
3.40092
18.6726
4.29305
19.1116
5.2004
19.5814
6.12188
20.0793
7.05623
20.6028
8.002
21.1492
8.95766
21.7159
9.92149
22.3002
10.8918
22.8999
11.8666
23.5126
12.844
24.1359
13.8217
24.7678
14.7978
25.406
15.77
26.0486
16.7362
26.6937
17.6941
27.3393
18.6414
27.9838
19.576
28.6253
20.4954
29.2622
21.3972
29.893
22.2798
30.5168
23.1448
31.1349
24.0016
31.7479
24.843
32.3967
25.5065
33.0324
33.4832
26.0084
0.823644
16.7391
1.66491
17.0548
2.52344
17.4082
3.39878
17.7973
4.29028
18.2201
5.19712
18.6745
6.11826
19.1582
7.05249
19.6686
7.99842
20.2033
8.95452
20.7598
9.91907
21.3357
10.8903
21.9287
11.8664
22.5365
12.8453
23.157
13.825
23.788
14.8034
24.4276
15.7782
25.0738
16.7473
25.7246
17.7082
26.3784
18.6588
27.0332
19.5967
27.6874
20.5197
28.3393
21.4253
28.9874
22.3116
29.6305
23.178
30.2685
24.0239
30.902
24.8786
31.542
25.679
32.2321
32.8547
26.3075
0.821182
15.9179
1.65977
16.2162
2.51548
16.5525
3.38795
16.9248
4.27663
17.3314
5.18077
17.7704
6.09941
18.2395
7.03141
18.7366
7.97544
19.2592
8.93002
19.8052
9.89352
20.3722
10.8641
20.958
11.84
21.5606
12.8191
22.1779
13.7994
22.8078
14.7786
23.4483
15.7547
24.0977
16.7253
24.754
17.6881
25.4155
18.6408
26.0805
19.5811
26.7471
20.5065
27.4138
21.415
28.0789
22.3043
28.7412
23.1733
29.3996
24.0211
30.0541
24.8558
30.7073
25.7036
31.3843
32.0982
26.46
0.816751
15.1011
1.65064
15.3824
2.5015
15.7016
3.36907
16.0572
4.2529
16.4476
5.15233
16.871
6.0665
17.3253
6.99434
17.8087
7.93462
18.3189
8.88589
18.8539
9.84657
19.4115
10.8149
19.9897
11.7891
20.5865
12.7671
21.1999
13.7467
21.8282
14.7257
22.4693
15.7018
23.1215
16.6728
23.783
17.6363
24.4521
18.5899
25.1269
19.5311
25.8059
20.4576
26.4873
21.3671
27.1694
22.2575
27.8508
23.1269
28.5302
23.9742
29.2068
24.8007
29.8808
25.6258
30.5592
31.2742
26.4498
0.810474
14.2907
1.63778
14.555
2.48187
14.8575
3.34261
15.1965
4.21967
15.5705
5.11252
15.9781
6.02038
16.4175
6.94229
16.8868
7.87709
17.3841
8.8234
17.9076
9.77969
18.4552
10.7442
19.0252
11.7151
19.6156
12.6904
20.2246
13.668
20.8506
14.6457
21.4917
15.6209
22.1463
16.5914
22.8126
17.5546
23.4889
18.5079
24.1735
19.449
24.8648
20.3752
25.5611
21.2841
26.2606
22.1733
26.9617
23.0406
27.6628
23.8845
28.3628
24.7044
29.061
25.5054
29.7582
30.4651
26.3145
0.802438
13.4882
1.62136
13.7361
2.45684
14.0221
3.30889
14.3444
4.17734
14.7021
5.06176
15.0937
5.96151
15.5177
6.87572
15.9726
7.80333
16.4565
8.74305
16.9679
9.69341
17.5049
10.6527
18.0659
11.6191
18.6492
12.5906
19.2531
13.5651
19.8762
14.5402
20.5166
15.5135
21.1729
16.4826
21.8435
17.4448
22.5267
18.3974
23.221
19.3376
23.9246
20.2627
24.6359
21.1701
25.3532
22.057
26.0747
22.9212
26.7987
23.7603
27.5237
24.573
28.2483
25.3595
28.9717
29.6943
26.1303
0.792712
12.6955
1.6015
12.9273
2.4266
13.197
3.26818
13.5029
4.12624
13.844
5.00046
14.2195
5.89035
14.6278
6.79517
15.0678
7.71395
15.5378
8.64551
16.0363
9.58846
16.5619
10.5412
17.1131
11.5019
17.6884
12.4686
18.2864
13.4391
18.9057
14.4109
19.5447
15.3817
20.2021
16.3488
20.8764
17.3094
21.5661
18.2606
22.2697
19.1996
22.9857
20.1233
23.7122
21.0287
24.4478
21.913
25.1904
22.7733
25.9384
23.6071
26.6899
24.4122
27.4432
25.1872
28.1967
28.9485
25.933
0.781345
11.9142
1.57832
12.1304
2.39131
12.384
3.2207
12.6735
4.06662
12.9981
4.92895
13.3571
5.80733
13.7495
6.70114
14.174
7.60955
14.6293
8.53151
15.1144
9.4657
15.6277
10.4106
16.1682
11.3645
16.7346
12.3253
17.3256
13.291
17.94
14.259
18.5768
15.2267
19.2344
16.1914
19.9117
17.1502
20.6074
18.0999
21.32
19.0375
22.0481
19.9597
22.7901
20.8631
23.5443
21.7446
24.3089
22.601
25.082
23.4293
25.8616
24.2268
26.6457
24.9914
27.4321
28.2183
25.7215
0.76836
11.1458
1.55185
11.3469
2.35105
11.5848
3.16654
11.858
3.99865
12.166
4.84742
12.5084
5.71264
12.8842
6.59387
13.2927
7.49043
13.7328
8.40136
14.2034
9.3255
14.7036
10.2614
15.2323
11.2073
15.7886
12.1613
16.3715
13.1213
16.9801
14.0848
17.6133
15.0491
18.2701
16.0113
18.9495
16.9682
19.6504
17.9167
20.3715
18.8532
21.1116
19.7742
21.8691
20.676
22.6425
21.555
23.4299
22.4076
24.2294
23.2304
25.0388
24.0202
25.8559
24.7744
26.678
27.5023
25.4903
0.753753
10.3921
1.52211
10.5785
2.30583
10.8011
3.10574
11.0581
3.92236
11.3494
4.7559
11.6748
5.60635
12.0338
6.47341
12.4257
7.35657
12.8496
8.25503
13.305
9.16775
13.7909
10.0934
14.3067
11.0304
14.8517
11.9768
15.4251
12.9304
16.0264
13.8889
16.6548
14.8494
17.3095
15.8091
17.9899
16.7645
18.695
17.7121
19.4239
18.6481
20.1755
19.5686
20.9486
20.4696
21.7416
21.3468
22.5527
22.1962
23.38
23.0139
24.2211
23.7961
25.0736
24.5396
25.9345
26.8007
25.2413
0.737494
9.65456
1.48903
9.82698
2.2556
10.0345
3.03824
10.2754
3.83769
10.5499
4.65436
10.8581
5.48841
11.1998
6.33973
11.5743
7.20797
11.9814
8.09251
12.4204
8.99245
12.8909
9.90661
13.3925
10.8335
13.9248
11.7714
14.4872
12.7182
15.0796
13.6714
15.7017
14.6281
16.3528
15.5853
17.0327
16.5395
17.7408
17.4869
18.4765
18.4234
19.2391
19.3446
20.0274
20.2459
20.8403
21.1226
21.676
21.9699
22.5326
22.7834
23.4077
23.5586
24.2984
24.2917
25.2015
26.1133
24.9791
0.719529
8.93503
1.45255
9.09396
2.20025
9.28679
2.96394
9.51173
3.74455
9.76933
4.54269
10.06
5.35871
10.3837
6.19271
10.7403
7.04451
11.1296
7.91367
11.5513
8.79948
12.0051
9.70092
12.4911
10.6167
13.009
11.5451
13.5588
12.4842
14.1405
13.4316
14.7543
14.3844
15.4
15.3395
16.0776
16.2931
16.7871
17.2413
17.5283
18.1795
18.3008
19.1029
19.104
20.0063
19.9369
20.8843
20.7981
21.7313
21.6856
22.5421
22.5969
23.3115
23.529
24.0348
24.4782
25.4402
24.7079
0.699787
8.23525
1.41254
8.3812
2.13965
8.55968
2.88268
8.7687
3.64277
9.00924
4.42072
9.28205
5.21708
9.58737
6.03214
9.92529
6.86592
10.2958
7.71817
10.699
8.58837
11.1349
9.47573
11.6037
10.3791
12.1056
11.297
12.6409
12.2276
13.2099
13.1686
13.8133
14.1174
14.4513
15.0705
15.1245
16.0243
15.8333
16.9745
16.5782
17.9161
17.3592
18.8437
18.1764
19.7515
19.0291
20.6333
19.9163
21.4825
20.8363
22.2928
21.7866
23.058
22.7638
23.7726
23.7636
24.781
24.4317
0.678195
7.55705
1.3689
7.6905
2.07369
7.8549
2.79435
8.04804
3.53223
8.27136
4.28832
8.52596
5.06335
8.81234
5.8578
9.13084
6.67188
9.48173
7.50556
9.86532
8.35854
10.282
9.23022
10.7321
10.1197
11.2161
11.0258
11.7348
11.9469
12.2888
12.881
12.8791
13.8253
13.507
14.7766
14.1731
15.7313
14.8787
16.6847
15.6248
17.6315
16.4123
18.5659
17.242
19.4812
18.1139
20.37
19.0275
21.2247
19.9816
22.0377
20.9737
22.8013
22.0001
23.5089
23.056
24.1354
24.1545
0.654708
6.90235
1.32159
7.02361
2.00233
7.17416
2.69894
7.35143
3.41293
7.55737
4.14547
7.79342
4.89746
8.06036
5.66955
8.35874
6.46217
8.68911
7.27547
9.05202
8.1094
9.44804
8.96361
9.87784
9.83752
10.3422
10.7302
10.8421
11.6403
11.3787
12.5662
11.9533
13.5054
12.5678
14.4549
13.2236
15.4109
13.9227
16.3688
14.6669
17.323
15.4581
18.267
16.298
19.1932
17.1876
20.0933
18.1275
20.9581
19.1168
21.7781
20.1537
22.544
21.2342
23.2473
22.3527
23.502
23.8808
0.629342
6.273
1.27069
6.38227
1.92573
6.51912
2.59663
6.68053
3.28506
6.86893
3.99233
7.08615
4.7195
7.33319
5.46739
7.61085
6.23659
7.91991
7.02749
8.26113
7.84024
8.63528
8.67482
9.04326
9.53095
9.48609
10.4081
9.965
11.3052
10.4815
12.2212
11.0374
13.1541
11.6348
14.1011
12.2767
15.0584
12.9653
16.0217
13.7036
16.9852
14.4946
17.9419
15.3413
18.8833
16.2462
19.7996
17.2111
20.6801
18.2364
21.5131
19.3207
22.2868
20.4604
22.9902
21.6493
22.8781
23.6141
0.60221
5.67079
1.21643
5.76804
1.84419
5.89136
2.4878
6.03692
3.14902
6.20772
3.82927
6.40589
4.52976
6.63271
5.25143
6.88918
5.99505
7.17629
6.76119
7.49498
7.55029
7.84619
8.36261
8.23094
9.19826
8.65043
10.0571
9.10613
10.9388
9.59983
11.8424
10.1337
12.7667
10.7106
13.7095
11.3339
14.6675
12.0073
15.6364
12.7347
16.6105
13.5205
17.5825
14.3693
18.5432
15.2856
19.4815
16.2728
20.3845
17.3334
21.2379
18.4673
22.0268
19.6715
22.7368
20.9393
22.2594
23.3555
0.573534
5.09726
1.15922
5.18236
1.75824
5.29233
2.37301
5.42215
3.00535
5.57537
3.65679
5.75446
4.3286
5.9609
5.02185
6.19592
5.73745
6.46069
6.47617
6.75627
7.23869
7.08367
8.02565
7.44398
8.83757
7.83851
9.67484
8.26886
10.5376
8.73706
11.4256
9.2457
12.3382
9.79798
13.2742
10.3979
14.2309
11.0507
15.2043
11.7612
16.1892
12.5355
17.1782
13.3803
18.1617
14.3021
19.1272
15.3073
20.0598
16.4007
20.9422
17.5849
21.7555
18.8583
22.4806
20.2142
21.6393
23.1007
0.543648
4.55361
1.09958
4.62642
1.66852
4.72339
2.25296
4.83772
2.85475
4.97357
3.47547
5.13375
4.11645
5.31991
4.77887
5.53351
5.46375
5.77582
6.17205
6.04796
6.90475
6.35096
7.66284
6.68589
8.44731
7.05404
9.25909
7.45708
10.099
7.89718
10.9675
8.37722
11.8645
8.9009
12.7897
9.47275
13.7416
10.0988
14.717
10.7858
15.7112
11.5413
16.7172
12.3743
17.7252
13.2942
18.722
14.3105
19.6908
15.4319
20.6109
16.6648
21.4586
18.0106
22.209
19.4639
21.0095
22.8388
0.512953
4.04066
1.03812
4.10126
1.57572
4.18579
2.12838
4.28506
2.69793
4.40402
3.28596
4.54572
3.89386
4.71201
4.52287
4.9045
5.17414
5.12454
5.84888
5.37323
6.54834
5.6515
7.27391
5.96032
8.02705
6.3009
8.80923
6.67489
9.6219
7.08451
10.4663
7.53283
11.3433
8.02394
12.2531
8.56286
13.1956
9.15634
14.1688
9.81269
15.1687
10.5414
16.1892
11.3538
17.2211
12.2623
18.2509
13.2806
19.2605
14.4223
20.2259
15.6994
21.1181
17.1183
21.9043
18.6776
20.3605
22.5533
0.481848
3.55881
0.975388
3.60772
1.48053
3.68065
2.00005
3.76554
2.53572
3.86835
3.08912
3.99232
3.66167
4.13946
4.25471
4.31146
4.86957
4.50967
5.5077
4.7351
6.17069
4.98852
6.86032
5.27069
7.57852
5.58271
8.32726
5.92615
9.10858
6.30319
9.92441
6.71699
10.7765
7.17187
11.666
7.67332
12.5936
8.22873
13.5586
8.84774
14.5584
9.5416
15.5885
10.3237
16.6408
11.21
17.7024
12.219
18.7545
13.3702
19.7705
14.6835
20.7159
16.1729
21.5481
17.8454
19.6827
22.2259
0.45066
3.10815
0.911893
3.14649
1.38364
3.2089
1.86886
3.28033
2.36919
3.36802
2.88621
3.47531
3.4214
3.60426
3.97624
3.75663
4.55229
3.93362
5.1513
4.1361
5.7752
4.36462
6.42616
4.61973
7.10651
4.90236
7.81868
5.21398
8.56516
5.55671
9.34848
5.93368
10.1711
6.34926
11.0349
6.80954
11.9412
7.32238
12.8909
7.89804
13.8835
8.54904
14.916
9.29117
15.9824
10.1436
17.0712
11.1301
18.1644
12.277
19.2331
13.6148
20.2385
15.1676
21.1259
16.958
18.9668
21.8418
0.419602
2.68855
0.84809
2.718
1.28584
2.77114
1.73597
2.8302
2.19993
2.90406
2.67931
2.99593
3.17571
3.10786
3.69079
3.24155
4.22643
3.39799
4.78467
3.57785
5.36785
3.78144
5.97842
4.00916
6.61902
4.26177
7.29241
4.54059
8.00138
4.84773
8.74874
5.18632
9.53729
5.56071
10.3697
5.97712
11.2486
6.44354
12.176
6.97061
13.1532
7.57184
14.1795
8.26484
15.2514
9.07174
16.3599
10.0217
17.4892
11.1477
18.6096
12.4944
19.6796
14.0976
20.6296
16.0079
18.2038
21.3927
0.388804
2.29974
0.784494
2.32231
1.18818
2.36746
1.60301
2.41537
2.03021
2.47685
2.47147
2.55467
2.92853
2.6508
3.40331
2.76677
3.89796
2.90333
4.41493
3.06088
4.9568
3.23957
5.52624
3.43972
6.12601
3.662
6.75899
3.90761
7.42815
4.17857
8.13658
4.47789
8.88744
4.80986
9.68404
5.18052
10.5298
5.59776
11.4281
6.07229
12.3819
6.61809
13.3926
7.25411
14.46
8.00439
15.5781
8.90348
16.7356
9.99025
17.9031
11.3268
19.0401
12.9607
20.059
14.989
17.3834
20.8794
0.358415
1.94133
0.721796
1.95893
1.09201
1.99724
1.47206
2.03532
1.86301
2.08591
2.26663
2.15105
2.68485
2.23258
3.11988
2.33174
3.57411
2.4491
4.05022
2.58477
4.55091
2.73888
5.079
2.91162
5.63744
3.10356
6.2292
3.31585
6.85728
3.55048
7.52489
3.81028
8.2354
4.09934
8.99255
4.42337
9.80044
4.78988
10.6634
5.20929
11.5861
5.69547
12.572
6.26822
13.6243
6.95209
14.7408
7.78696
15.9163
8.81468
17.1234
10.1197
18.3281
11.756
19.421
13.8961
16.4921
20.3123
0.328718
1.61261
0.660896
1.62675
0.99897
1.65916
1.34556
1.68873
1.70163
1.72984
2.06909
1.7836
2.45
1.85166
2.84678
1.93496
3.26194
2.03394
3.69829
2.14842
4.15873
2.27843
4.64618
2.42418
5.16358
2.58616
5.7139
2.76553
6.30018
2.9642
6.92564
3.18483
7.59378
3.4312
8.30857
3.70858
9.07462
4.02383
9.8971
4.38681
10.7819
4.81063
11.7347
5.31541
12.7622
5.92465
13.8656
6.68356
15.0484
7.63187
16.2856
8.88251
17.558
10.4836
18.7316
12.7226
15.5089
19.7147
0.300153
1.31246
0.602808
1.3241
0.910724
1.35125
1.22588
1.37357
1.54923
1.40649
1.88278
1.45004
2.22871
1.50574
2.58945
1.57422
2.96774
1.65565
3.3664
1.74977
3.7883
1.85653
4.23632
1.97615
4.71335
2.10913
5.22233
2.25656
5.76631
2.42022
6.34857
2.60257
6.9727
2.80707
7.64285
3.03843
8.36399
3.30268
9.14191
3.60889
9.98371
3.96883
10.8967
4.40246
11.891
4.93031
12.9714
5.60319
14.1516
6.45164
15.4105
7.62366
16.7527
9.14134
18.0242
11.4511
14.3971
19.136
0.273237
1.03922
0.548471
1.04886
0.828684
1.07104
1.11487
1.08738
1.40819
1.11318
1.71065
1.14758
2.02447
1.19192
2.35215
1.24654
2.69638
1.31142
3.05987
1.38629
3.44535
1.47105
3.85558
1.56592
4.29334
1.67137
4.7615
1.78841
5.2631
1.91861
5.80148
2.06418
6.38039
2.22817
7.00415
2.41467
7.67804
2.6288
8.40833
2.87859
9.20311
3.17404
10.0712
3.53433
11.0262
3.97537
12.0763
4.5531
13.2466
5.28135
14.5237
6.34648
15.9408
7.72424
17.3518
10.0401
13.0871
18.6618
0.248429
0.790792
0.49856
0.798731
0.753746
0.815849
1.01367
0.827464
1.27986
0.846979
1.55432
0.873127
1.83922
0.90701
2.137
0.948761
2.45017
0.998245
2.78127
1.05519
3.13283
1.11949
3.5074
1.19134
3.90759
1.27118
4.33614
1.35986
4.79602
1.45873
5.29059
1.56961
5.82372
1.69503
6.40001
1.83838
7.02493
2.00387
7.70527
2.19826
8.4499
2.42941
9.26951
2.71472
10.1799
3.06494
11.1952
3.53787
12.3489
4.12763
13.6484
5.04694
15.1463
6.22636
16.7892
8.39724
11.462
18.4143
0.226104
0.564688
0.453373
0.571462
0.686188
0.583033
0.922518
0.591133
1.16451
0.604992
1.41397
0.62366
1.67304
0.647943
1.94397
0.677831
2.22908
0.713133
2.53067
0.753605
2.851
0.799163
3.19238
0.849957
3.55721
0.906358
3.94803
0.969043
4.3677
1.03905
4.81953
1.11779
5.30739
1.20717
5.83603
1.30975
6.41111
1.42879
7.03987
1.56949
7.73171
1.73757
8.49928
1.94715
9.35948
2.20475
10.3348
2.56256
11.461
3.00143
12.7838
3.72411
14.3617
4.64844
16.3777
6.38129
9.35197
18.4877
0.20654
0.358148
0.412779
0.365223
0.625701
0.370111
0.840899
0.375936
1.06133
0.384564
1.28855
0.39644
1.52457
0.41192
1.77147
0.430928
2.03132
0.453281
2.30614
0.478787
2.59792
0.507385
2.90869
0.539187
3.24059
0.574459
3.59596
0.613669
3.97749
0.657521
4.38832
0.706961
4.83225
0.763243
5.31393
0.828063
5.83912
0.903602
6.41532
0.993295
7.05204
1.10086
7.76312
1.23607
8.5658
1.40207
9.48973
1.63863
10.5697
1.92141
11.8825
2.41133
13.5197
3.01127
15.9068
3.99417
6.68248
18.5763
0.189605
0.168543
0.376237
0.17859
0.571567
0.174781
0.767702
0.179802
0.968834
0.183431
1.17614
0.189137
1.39153
0.196532
1.61686
0.205594
1.85394
0.216196
2.1045
0.228233
2.37022
0.241669
2.65284
0.256565
2.95424
0.273061
3.27651
0.291394
3.62212
0.311916
3.99398
0.335094
4.39569
0.36154
4.83168
0.392072
5.3075
0.427775
5.83052
0.470275
6.41001
0.521368
7.06004
0.586037
7.79741
0.664702
8.65518
0.780866
9.66474
0.911849
10.9151
1.16097
12.4964
1.42997
14.9378
1.55279
3.68859
17.9317
0.168543
0.347133
0.521914
0.701716
0.885147
1.07428
1.27082
1.47641
1.69261
1.92084
2.16251
2.41907
2.69213
2.98353
3.29544
3.63054
3.99208
4.38415
4.81192
5.2822
5.80357
6.3896
7.05431
7.83517
8.74702
9.90799
11.338
12.8907
16.5793
1.18698
54.1258
1.19728
54.1299
1.20745
54.1301
1.2243
54.1234
1.24229
54.1222
1.24976
54.1328
1.2487
54.1413
1.25057
54.1384
1.26295
54.1279
1.28121
54.122
1.29146
54.13
1.28879
54.1429
1.28391
54.1451
1.29174
54.1324
1.31188
54.1201
1.33219
54.1199
1.3395
54.1329
1.33972
54.14
1.34081
54.1392
1.34504
54.136
1.34901
54.1363
1.35011
54.1391
1.34967
54.1407
1.34821
54.1417
1.34485
54.1436
1.33936
54.1457
1.33727
54.1423
1.34403
54.1335
1.35462
54.1297
1.36376
54.1311
1.36631
54.1377
1.36359
54.1429
1.35957
54.1443
1.35496
54.1448
1.35003
54.1452
1.34496
54.1453
1.33983
54.1454
1.33445
54.1456
1.32891
54.1458
1.32351
54.1456
1.31842
54.1453
1.31424
54.1444
1.31158
54.1429
1.31001
54.1418
1.30856
54.1417
1.30639
54.1424
1.30344
54.1432
1.29926
54.1444
1.29459
54.1449
1.28916
54.1457
1.2833
54.1461
1.27685
54.1467
1.27002
54.1471
1.26283
54.1474
1.25511
54.148
1.2468
54.1486
1.23846
54.1486
1.2294
54.1493
1.22024
54.1494
1.21036
54.1501
1.20019
54.1504
1.18966
54.1508
1.17833
54.1516
1.16713
54.1514
1.15511
54.1523
1.14312
54.1522
1.1303
54.1531
1.11808
54.1524
1.10433
54.154
1.09137
54.1532
1.07808
54.1535
1.06313
54.1552
1.05097
54.1524
1.03568
54.1555
1.02241
54.1535
1.00769
54.155
0.993934
54.154
0.980741
54.1534
0.966171
54.1548
0.954324
54.1521
0.939691
54.1549
0.927209
54.1527
0.911818
54.1556
0.894138
54.1579
0.875933
54.1584
0.858017
54.1581
0.841884
54.1564
0.823836
54.1583
0.806433
54.1576
0.786948
54.1597
0.766539
54.1606
0.745499
54.1613
0.723875
54.1619
0.702069
54.162
0.680309
54.162
0.65816
54.1624
0.636741
54.1617
0.614706
54.1623
0.593095
54.1618
0.571473
54.1619
0.54992
54.1618
0.528564
54.1616
0.507302
54.1615
0.486373
54.1612
0.465448
54.1612
0.44496
54.1607
0.424285
54.1609
0.404254
54.1603
0.384286
54.1602
0.364774
54.1597
0.345477
54.1595
0.326849
54.1589
0.308381
54.1587
0.290587
54.158
0.273172
54.1576
0.256586
54.1568
0.240552
54.1563
0.225079
54.1557
0.209657
54.1557
0.193945
54.1559
0.178013