/*--------------------------------*- C++ -*----------------------------------*\
| =========                 |                                                 |
| \\      /  F ield         | OpenFOAM: The Open Source CFD Toolbox           |
|  \\    /   O peration     | Version:  5.x                                   |
|   \\  /    A nd           | Web:      www.OpenFOAM.org                      |
|    \\/     M anipulation  |                                                 |
\*---------------------------------------------------------------------------*/
/*   Windows 32 and 64 bit porting by blueCAPE: http://www.bluecape.com.pt   *\
|  Based on Windows porting (2.0.x v4) by Symscape: http://www.symscape.com   |
\*---------------------------------------------------------------------------*/
FoamFile
{
    version     2.0;
    format      ascii;
    class       volVectorField;
    location    "280";
    object      U;
}
// * * * * * * * * * * * * * * * * * * * * * * * * * * * * * * * * * * * * * //

dimensions      [0 1 -1 0 0 0 0];

internalField   nonuniform List<vector> 
43900
(
(1.16163 -0.000739148 -1.64054e-027)
(1.16715 0.00217937 -4.3964e-027)
(1.16973 0.000360734 1.42791e-030)
(1.16838 0.00182667 2.7987e-030)
(1.16976 0.000800405 3.65702e-030)
(1.16993 0.00198005 3.65486e-030)
(1.17014 0.00119316 5.86934e-027)
(1.17053 0.00185144 -1.17192e-026)
(1.17043 0.0016535 9.68838e-030)
(1.17 0.00177154 -1.16899e-026)
(1.16975 0.00191517 1.1712e-026)
(1.16993 0.00193306 1.1569e-029)
(1.17 0.00200092 -1.16547e-026)
(1.17003 0.00206635 2.49706e-029)
(1.17015 0.00212564 2.56156e-029)
(1.17 0.00217204 2.62836e-029)
(1.16993 0.00222169 -2.3201e-026)
(1.16998 0.00225375 5.50038e-029)
(1.16992 0.00229925 2.32265e-026)
(1.17001 0.00232761 2.85656e-029)
(1.17004 0.00236646 2.90431e-029)
(1.16995 0.00241173 2.94875e-029)
(1.17002 0.00242542 2.99233e-029)
(1.17001 0.00247387 3.03011e-029)
(1.16997 0.00249942 3.06772e-029)
(1.17006 0.00251515 -2.29299e-026)
(1.17003 0.00256552 6.27134e-029)
(1.16998 0.00258269 6.33882e-029)
(1.17004 0.00259859 9.15271e-026)
(1.15869 0.0114563 0)
(1.16551 -0.00496804 0)
(1.17144 0.00906295 0)
(1.16654 -0.000164768 0)
(1.16843 0.00619847 0)
(1.16803 0.00277226 0)
(1.16838 0.00491622 0)
(1.16779 0.00469601 0)
(1.16823 0.00464929 0)
(1.16871 0.00541361 0)
(1.16884 0.00532822 0)
(1.16865 0.00554934 0)
(1.16875 0.0058345 0)
(1.16891 0.00602114 0)
(1.16876 0.00616981 0)
(1.16893 0.00635401 0)
(1.16926 0.00649507 0)
(1.16923 0.00666843 0)
(1.16928 0.00680631 0)
(1.16925 0.0069348 0)
(1.16912 0.00708175 0)
(1.16928 0.00716026 0)
(1.16933 0.0072999 0)
(1.16926 0.00739464 0)
(1.16937 0.00747051 0)
(1.1693 0.007613 0)
(1.16924 0.00765518 0)
(1.16942 0.00773843 0)
(1.16941 0.0078601 0)
(1.10201 0.0321145 0)
(1.1447 -0.017565 0)
(1.16304 0.0287978 0)
(1.16318 -0.00368579 0)
(1.16626 0.0208769 0)
(1.16423 0.00400276 0)
(1.16564 0.0150173 0)
(1.16633 0.00837406 0)
(1.16656 0.0118488 0)
(1.16667 0.0105781 0)
(1.16696 0.0107414 0)
(1.16724 0.0110644 0)
(1.16724 0.0110293 0)
(1.16721 0.0110581 0)
(1.1675 0.0112164 0)
(1.16772 0.011272 0)
(1.16744 0.0114142 0)
(1.16741 0.0115035 0)
(1.16767 0.0115898 0)
(1.16771 0.0117536 0)
(1.16796 0.011801 0)
(1.16799 0.0119468 0)
(1.16782 0.0120604 0)
(1.16798 0.0121081 0)
(1.16803 0.0122927 0)
(1.16805 0.0123182 0)
(1.16829 0.0124279 0)
(1.16823 0.0125818 0)
(1.1681 0.0126025 1.60966e-027)
(1.04077 0.0199928 0)
(1.08666 -0.0067376 0)
(1.12959 0.0201114 0)
(1.15558 0.00816313 0)
(1.16323 0.0222402 0)
(1.16592 0.0107006 0)
(1.16471 0.0205791 0)
(1.16344 0.0136024 0)
(1.16452 0.0181247 0)
(1.16489 0.0157226 0)
(1.16514 0.0168491 0)
(1.16538 0.0165871 0)
(1.16561 0.0165972 0)
(1.16574 0.0167182 0)
(1.16571 0.0166765 0)
(1.16564 0.0167816 0)
(1.16595 0.016812 0)
(1.16637 0.0168486 0)
(1.16623 0.0170019 0)
(1.16625 0.016975 0)
(1.16626 0.0171173 0)
(1.16628 0.0171986 0)
(1.16664 0.0172306 0)
(1.16672 0.0174317 0)
(1.1667 0.0174379 0)
(1.16682 0.0175606 0)
(1.16672 0.017757 0)
(1.1667 0.0177461 0)
(1.16701 0.0179363 1.71619e-027)
(1.00357 0.0101932 3.43951e-027)
(1.03907 -0.000913691 0)
(1.07594 0.0108226 0)
(1.1142 0.012889 0)
(1.1445 0.0183084 0)
(1.16006 0.0173351 0)
(1.16338 0.0228267 0)
(1.16439 0.0185377 0)
(1.16342 0.0216821 0)
(1.16362 0.0203375 0)
(1.16382 0.0208436 0)
(1.16379 0.0211931 0)
(1.1638 0.0211904 0)
(1.16399 0.0212633 0)
(1.16397 0.0215411 0)
(1.16421 0.0215761 0)
(1.16432 0.0217187 0)
(1.16405 0.021967 0)
(1.16428 0.0219561 0)
(1.16455 0.0222176 0)
(1.16467 0.0223103 0)
(1.16486 0.0223863 0)
(1.16479 0.022645 0)
(1.16481 0.0226911 0)
(1.16499 0.0229057 0)
(1.16494 0.0231434 0)
(1.16507 0.0231262 0)
(1.16541 0.0233967 0)
(1.16538 0.0235354 -7.23274e-027)
(0.976254 0.00684484 -3.58959e-027)
(1.00614 0.00066489 0)
(1.03738 0.00759203 0)
(1.06978 0.0110306 0)
(1.10224 0.0148988 0)
(1.13255 0.0181978 0)
(1.15289 0.0221456 0)
(1.16111 0.0222494 0)
(1.16229 0.0245421 0)
(1.16186 0.0229778 0)
(1.16176 0.0243763 0)
(1.162 0.0242223 0)
(1.16197 0.0245154 0)
(1.16181 0.024831 0)
(1.16223 0.0249563 0)
(1.16225 0.0253093 0)
(1.16203 0.0255635 0)
(1.16243 0.0256707 0)
(1.16258 0.026036 0)
(1.16242 0.0262263 0)
(1.1626 0.0263844 0)
(1.16255 0.0268378 0)
(1.16252 0.0269082 0)
(1.16244 0.0271978 0)
(1.16244 0.0274362 0)
(1.16284 0.0274617 0)
(1.16319 0.0278602 0)
(1.16298 0.0280767 0)
(1.16275 0.0282695 3.82559e-027)
(0.953195 0.00525073 0)
(0.97952 0.00141847 0)
(1.0071 0.00641685 0)
(1.03574 0.0096268 0)
(1.06486 0.0129458 0)
(1.09378 0.0165622 0)
(1.12182 0.0203127 0)
(1.1451 0.0231856 0)
(1.15659 0.0258464 0)
(1.15961 0.0263712 0)
(1.15936 0.0263026 0)
(1.15905 0.0272424 0)
(1.15928 0.0272999 0)
(1.15952 0.027778 0)
(1.1592 0.028185 0)
(1.15941 0.0284431 0)
(1.15998 0.0288325 0)
(1.15974 0.0293299 0)
(1.15947 0.0295114 0)
(1.15971 0.029856 0)
(1.15954 0.030408 0)
(1.15951 0.0304789 0)
(1.15988 0.0308822 0)
(1.16066 0.0312511 0)
(1.16084 0.0315101 0)
(1.16042 0.0320161 0)
(1.15969 0.0323335 0)
(1.15977 0.0325035 0)
(1.16071 0.0328318 0)
(0.932173 0.00444383 0)
(0.956156 0.00186772 0)
(0.981297 0.00598607 0)
(1.00742 0.00902446 0)
(1.03415 0.0120564 0)
(1.06105 0.0153393 0)
(1.08762 0.0188728 0)
(1.11305 0.022426 0)
(1.13623 0.0257326 0)
(1.15076 0.0280965 0)
(1.15569 0.029888 0)
(1.15597 0.0295752 0)
(1.15563 0.0304307 0)
(1.15588 0.0307669 0)
(1.15624 0.0313028 0)
(1.15596 0.0317505 0)
(1.1557 0.0322492 0)
(1.15619 0.0325398 0)
(1.15675 0.0331851 0)
(1.15647 0.0337631 0)
(1.15674 0.0338712 0)
(1.15738 0.0345745 0)
(1.15719 0.035104 0)
(1.15602 0.035382 0)
(1.15587 0.0359854 0)
(1.15633 0.0363173 0)
(1.15787 0.0365383 0)
(1.15854 0.0372156 0)
(1.15813 0.0375535 0)
(0.912379 0.00386761 0)
(0.934596 0.00228548 0)
(0.957886 0.00589115 0)
(0.982102 0.00886514 0)
(1.00696 0.011797 0)
(1.03214 0.0149024 0)
(1.05729 0.0182148 0)
(1.08198 0.0216794 0)
(1.10567 0.0252 0)
(1.12766 0.0284539 0)
(1.14422 0.0312388 0)
(1.15093 0.0332611 0)
(1.15159 0.033226 0)
(1.15129 0.0341713 0)
(1.15135 0.0346034 0)
(1.15193 0.0352781 0)
(1.1521 0.0358524 0)
(1.15146 0.0363617 0)
(1.15127 0.0369489 0)
(1.15204 0.0372647 0)
(1.15226 0.0382341 0)
(1.1515 0.0387345 0)
(1.15154 0.0389701 0)
(1.15305 0.0397065 0)
(1.15381 0.0403177 0)
(1.1542 0.0405744 0)
(1.1533 0.0413661 0)
(1.15233 0.0417465 0)
(1.15241 0.0421994 0)
(0.893094 0.00334054 0)
(0.914005 0.00270791 0)
(0.93592 0.00599517 0)
(0.958698 0.00895927 0)
(0.982112 0.011873 0)
(1.00591 0.0149119 0)
(1.02983 0.0181186 0)
(1.05357 0.0214671 0)
(1.0768 0.0249212 0)
(1.0991 0.0284122 0)
(1.11983 0.0317305 0)
(1.13749 0.0346618 0)
(1.14533 0.0370908 0)
(1.14612 0.0373182 0)
(1.14605 0.0384551 0)
(1.14576 0.038902 0)
(1.1463 0.0398347 0)
(1.14691 0.0403998 0)
(1.1473 0.0411348 0)
(1.1466 0.0420531 0)
(1.14658 0.0423653 0)
(1.14794 0.0429586 0)
(1.14872 0.0441433 0)
(1.14818 0.0445024 0)
(1.14712 0.045118 0)
(1.14702 0.0460674 0)
(1.14816 0.0464423 0)
(1.14988 0.0472925 0)
(1.15054 0.0479991 -1.00747e-026)
(0.874079 0.00319565 0)
(0.89391 0.00301406 0)
(0.914731 0.00625418 0)
(0.936382 0.00927984 0)
(0.958666 0.0122462 0)
(0.981368 0.0153101 0)
(1.00427 0.0185169 0)
(1.02713 0.0218489 0)
(1.0497 0.0252816 0)
(1.07168 0.0287899 0)
(1.09269 0.0323224 0)
(1.11211 0.0357226 0)
(1.12961 0.0388181 0)
(1.13873 0.0415197 0)
(1.13947 0.0420695 0)
(1.13986 0.0433508 0)
(1.13921 0.0439893 0)
(1.13988 0.0449491 0)
(1.14017 0.0460005 0)
(1.14098 0.0465163 0)
(1.14146 0.0478479 0)
(1.14056 0.0486333 0)
(1.14001 0.0492528 0)
(1.14078 0.050071 0)
(1.14309 0.0510799 0)
(1.14387 0.0518703 0)
(1.14356 0.0523464 0)
(1.14227 0.0532952 0)
(1.14234 0.0538539 1.06442e-026)
(0.855077 0.003149 0)
(0.873986 0.00331758 0)
(0.893862 0.00660664 0)
(0.91456 0.00974587 0)
(0.935899 0.0128212 0)
(0.957689 0.0159773 0)
(0.979734 0.0192601 0)
(1.00183 0.0226558 0)
(1.02378 0.0261436 0)
(1.04535 0.029704 0)
(1.06628 0.0333122 0)
(1.08624 0.0369178 0)
(1.10477 0.0403935 0)
(1.12159 0.0436232 0)
(1.13133 0.0465005 0)
(1.13176 0.0474039 0)
(1.13296 0.0487411 0)
(1.13236 0.0494858 0)
(1.13257 0.0506633 0)
(1.13298 0.051949 0)
(1.13314 0.0526664 0)
(1.13426 0.0536509 0)
(1.13598 0.0549563 0)
(1.13603 0.0557076 0)
(1.13449 0.0564796 0)
(1.13431 0.0575574 0)
(1.13571 0.0585627 0)
(1.13837 0.0596203 0)
(1.13921 0.0606129 1.16697e-026)
(0.835945 0.00306172 0)
(0.854059 0.00366327 0)
(0.873124 0.00702771 0)
(0.893004 0.0103079 0)
(0.913534 0.0135299 0)
(0.934544 0.0168221 0)
(0.955859 0.020229 0)
(0.977299 0.0237394 0)
(0.998685 0.0273354 0)
(1.01983 0.0310002 0)
(1.04054 0.034715 0)
(1.06059 0.0384542 0)
(1.07967 0.042169 0)
(1.09738 0.045742 0)
(1.11352 0.0491105 0)
(1.12332 0.0521366 0)
(1.12362 0.0532617 0)
(1.125 0.0546504 0)
(1.12506 0.055713 0)
(1.12501 0.0567881 0)
(1.12656 0.0582 0)
(1.1271 0.0591989 0)
(1.12623 0.0603321 0)
(1.12675 0.0615359 0)
(1.12954 0.0627695 0)
(1.13062 0.0641137 0)
(1.13002 0.0647887 0)
(1.12888 0.0655676 0)
(1.12898 0.0667977 -1.23385e-026)
(0.816621 0.00304595 0)
(0.834003 0.00403787 0)
(0.852329 0.00754142 0)
(0.871481 0.0110074 0)
(0.8913 0.0144225 0)
(0.911623 0.0179016 0)
(0.932295 0.0214883 0)
(0.953154 0.0251734 0)
(0.97404 0.0289409 0)
(0.994791 0.0327765 0)
(1.01524 0.0366648 0)
(1.03522 0.0405863 0)
(1.05451 0.0445149 0)
(1.07284 0.0484016 0)
(1.08984 0.052125 0)
(1.10542 0.0556853 0)
(1.11506 0.0588717 0)
(1.11505 0.0602613 0)
(1.11656 0.0616071 0)
(1.1183 0.0632773 0)
(1.11774 0.0642946 0)
(1.11774 0.0658469 0)
(1.11988 0.067423 0)
(1.12037 0.0685891 0)
(1.11916 0.0697511 0)
(1.11966 0.0713404 0)
(1.12245 0.0722554 0)
(1.12503 0.0744935 0)
(1.12581 0.0756395 -1.35731e-026)
(0.796912 0.00308665 0)
(0.813623 0.00443587 0)
(0.831269 0.00813193 0)
(0.849741 0.0118191 0)
(0.868908 0.0154636 0)
(0.888609 0.0191697 0)
(0.90869 0.0229777 0)
(0.92901 0.0268814 0)
(0.949422 0.0308659 0)
(0.969782 0.0349188 0)
(0.989945 0.0390269 0)
(1.00977 0.0431738 0)
(1.02908 0.0473395 0)
(1.0477 0.051496 0)
(1.06537 0.0555918 0)
(1.08177 0.0595074 0)
(1.09682 0.063307 0)
(1.10599 0.0665738 0)
(1.10615 0.0681516 0)
(1.1072 0.0696686 0)
(1.10834 0.0718358 0)
(1.10935 0.072945 0)
(1.1089 0.0745508 0)
(1.11026 0.0759985 0)
(1.11327 0.0776548 0)
(1.11401 0.0791098 0)
(1.11287 0.0798819 0)
(1.11219 0.0811303 0)
(1.1135 0.0825481 1.43504e-026)
(0.776809 0.00316752 0)
(0.79289 0.00484924 0)
(0.80991 0.00877516 0)
(0.827756 0.0127105 0)
(0.846309 0.0166061 0)
(0.865436 0.0205633 0)
(0.884984 0.0246194 0)
(0.904809 0.028766 0)
(0.924783 0.0329908 0)
(0.944772 0.0372816 0)
(0.964649 0.0416265 0)
(0.984285 0.0460111 0)
(1.00354 0.0504179 0)
(1.02228 0.0548254 0)
(1.04032 0.0592031 0)
(1.05745 0.063492 0)
(1.07337 0.0675897 0)
(1.08792 0.0716027 0)
(1.09592 0.0747949 0)
(1.09606 0.0768751 0)
(1.09742 0.0780157 0)
(1.09828 0.0802355 0)
(1.10114 0.082046 0)
(1.10106 0.0832019 0)
(1.10071 0.0848009 0)
(1.10233 0.0867921 0)
(1.10551 0.0883599 0)
(1.10813 0.0908365 0)
(1.10769 0.091355 0)
(0.756286 0.00328975 0)
(0.771768 0.00529692 0)
(0.788195 0.00949456 0)
(0.805463 0.013716 0)
(0.823449 0.017899 0)
(0.842035 0.0221423 0)
(0.861092 0.0264853 0)
(0.880474 0.030918 0)
(0.900052 0.0354261 0)
(0.919707 0.0399994 0)
(0.939321 0.0446263 0)
(0.958778 0.0492939 0)
(0.977964 0.053987 0)
(0.996758 0.0586875 0)
(1.01503 0.0633735 0)
(1.03261 0.0680125 0)
(1.04931 0.0725426 0)
(1.06491 0.0768945 0)
(1.0789 0.0811029 0)
(1.08598 0.0844388 0)
(1.08684 0.0866908 0)
(1.08929 0.0880232 0)
(1.08933 0.0905835 0)
(1.0913 0.0921363 0)
(1.0939 0.0946675 0)
(1.09321 0.0963141 0)
(1.09351 0.0972666 0)
(1.09527 0.0994209 0)
(1.09866 0.10135 0)
(0.735262 0.00344727 0)
(0.750165 0.00578322 0)
(0.766024 0.0102926 0)
(0.782738 0.014837 0)
(0.800193 0.019346 0)
(0.818268 0.0239143 0)
(0.836847 0.0285824 0)
(0.855803 0.0333427 0)
(0.875007 0.0381798 0)
(0.894343 0.0430827 0)
(0.9137 0.0480409 0)
(0.932972 0.0530422 0)
(0.952054 0.0580726 0)
(0.970844 0.0631167 0)
(0.98923 0.0681562 0)
(1.00709 0.0731691 0)
(1.02428 0.078121 0)
(1.04064 0.0829479 0)
(1.05599 0.0876041 0)
(1.06971 0.0920039 0)
(1.07613 0.0954978 0)
(1.07718 0.0977532 0)
(1.07972 0.0998441 0)
(1.07942 0.10181 0)
(1.08079 0.103948 0)
(1.08413 0.106029 0)
(1.08696 0.108409 0)
(1.08741 0.110595 0)
(1.08682 0.110905 0)
(0.713721 0.00363123 4.13772e-026)
(0.72806 0.00630114 0)
(0.743367 0.0111536 0)
(0.759546 0.0160502 0)
(0.776489 0.0209137 0)
(0.794081 0.025838 0)
(0.812205 0.0308622 0)
(0.83075 0.0359801 0)
(0.849592 0.0411762 0)
(0.868615 0.0464379 0)
(0.88772 0.0517563 0)
(0.906805 0.0571189 0)
(0.925773 0.0625125 0)
(0.944529 0.067922 0)
(0.962978 0.0733306 0)
(0.981018 0.0787194 0)
(0.998539 0.0840647 0)
(1.01542 0.0893287 0)
(1.03154 0.0944429 0)
(1.04689 0.0993627 0)
(1.06033 0.104148 0)
(1.06526 0.107309 0)
(1.06672 0.110312 0)
(1.06931 0.111822 0)
(1.07139 0.114855 0)
(1.07176 0.116474 0)
(1.07408 0.117792 0)
(1.07833 0.121119 0)
(1.08228 0.124202 0)
(0.691676 0.00383956 1.37564e-027)
(0.705461 0.00685047 0)
(0.720227 0.0120753 0)
(0.735884 0.0173518 0)
(0.752329 0.0225972 0)
(0.769454 0.0279064 0)
(0.787144 0.0333174 0)
(0.805292 0.0388241 0)
(0.823791 0.0444124 0)
(0.842523 0.0500686 0)
(0.861385 0.0557805 0)
(0.880286 0.0615384 0)
(0.899137 0.0673287 0)
(0.917849 0.0731376 0)
(0.936339 0.0789495 0)
(0.954516 0.0847472 0)
(0.97229 0.0905116 0)
(0.989561 0.0962201 0)
(1.00623 0.101835 0)
(1.0222 0.107267 0)
(1.03763 0.112624 0)
(1.05064 0.11783 0)
(1.05509 0.120769 0)
(1.05732 0.12399 0)
(1.06017 0.125592 0)
(1.06359 0.129131 0)
(1.06468 0.131603 0)
(1.06501 0.132794 0)
(1.06775 0.13476 0)
(0.669146 0.0040693 -4.77836e-026)
(0.682383 0.00742669 0)
(0.696616 0.0130489 0)
(0.71176 0.0187293 0)
(0.727717 0.0243804 0)
(0.744383 0.0300987 0)
(0.761649 0.0359231 0)
(0.779408 0.0418444 0)
(0.797562 0.0478505 0)
(0.816007 0.0539287 0)
(0.834638 0.0600655 0)
(0.853363 0.0662493 0)
(0.872095 0.0724673 0)
(0.890752 0.0787054 0)
(0.909254 0.0849487 0)
(0.927524 0.0911811 0)
(0.945479 0.097385 0)
(0.963035 0.103542 0)
(0.980099 0.109629 0)
(0.996573 0.115608 0)
(1.01236 0.121365 0)
(1.02814 0.127056 0)
(1.04115 0.132873 0)
(1.0451 0.134964 0)
(1.04803 0.138758 0)
(1.05064 0.141011 0)
(1.0541 0.142423 0)
(1.05729 0.147709 0)
(1.05733 0.148619 0)
(0.646181 0.00431782 0)
(0.658876 0.00802388 0)
(0.672582 0.014064 0)
(0.687219 0.0201675 0)
(0.702695 0.0262431 0)
(0.71891 0.0323897 0)
(0.735762 0.0386467 0)
(0.753148 0.045005 0)
(0.770967 0.0514493 0)
(0.789126 0.0579683 0)
(0.807525 0.064549 0)
(0.82607 0.0711766 0)
(0.844684 0.0778402 0)
(0.863287 0.0845241 0)
(0.881802 0.0912131 0)
(0.900155 0.0978908 0)
(0.918273 0.104539 0)
(0.936079 0.11114 0)
(0.953497 0.117671 0)
(0.970447 0.124107 0)
(0.98687 0.1304 0)
(1.00283 0.136402 0)
(1.01886 0.142627 0)
(1.03206 0.148177 0)
(1.03504 0.151266 0)
(1.03859 0.154303 0)
(1.04074 0.158337 0)
(1.0455 0.15868 0)
(1.04922 0.163636 0)
(0.622842 0.00458493 -5.84747e-026)
(0.634998 0.00863974 0)
(0.648182 0.0151165 0)
(0.662317 0.0216609 0)
(0.677316 0.0281784 0)
(0.693086 0.0347714 0)
(0.709529 0.0414806 0)
(0.726545 0.0482961 0)
(0.744036 0.0552009 0)
(0.761915 0.062184 0)
(0.780092 0.0692325 0)
(0.798472 0.0763316 0)
(0.816974 0.0834662 0)
(0.835524 0.0906225 0)
(0.854049 0.0977849 0)
(0.87248 0.104937 0)
(0.89075 0.112061 0)
(0.908792 0.119139 0)
(0.926538 0.126151 0)
(0.943923 0.133077 0)
(0.960896 0.139892 0)
(0.977446 0.146528 0)
(0.993641 0.152964 0)
(1.01034 0.159598 0)
(1.02249 0.165209 0)
(1.02574 0.169039 0)
(1.02971 0.170643 0)
(1.0319 0.176521 0)
(1.03624 0.176779 5.49937e-026)
(0.599196 0.00486917 -1.69681e-027)
(0.610817 0.00927055 0)
(0.623481 0.0162002 0)
(0.637117 0.0232005 0)
(0.651643 0.0301745 0)
(0.66697 0.0372294 0)
(0.683005 0.044407 0)
(0.699654 0.0516968 0)
(0.716824 0.0590817 0)
(0.734422 0.0665471 0)
(0.752369 0.0740823 0)
(0.770579 0.0816726 0)
(0.788967 0.0893004 0)
(0.807463 0.0969524 0)
(0.825996 0.104611 0)
(0.844499 0.112261 0)
(0.862907 0.119882 0)
(0.881158 0.127459 0)
(0.89919 0.13497 0)
(0.916946 0.142396 0)
(0.934373 0.149718 0)
(0.95143 0.156908 0)
(0.968113 0.163893 0)
(0.98482 0.170753 0)
(1.0016 0.177815 0)
(1.01319 0.183109 0)
(1.01748 0.18706 0)
(1.02224 0.188639 0)
(1.02434 0.19419 1.06233e-027)
(0.575315 0.00516991 6.7415e-026)
(0.586404 0.00991432 0)
(0.598552 0.0173116 0)
(0.611691 0.024781 0)
(0.625744 0.0322244 0)
(0.640628 0.0397548 0)
(0.656256 0.0474153 0)
(0.672537 0.0551948 0)
(0.689382 0.0630756 0)
(0.706703 0.0710422 0)
(0.724421 0.0790826 0)
(0.742458 0.0871818 0)
(0.760733 0.0953238 0)
(0.779171 0.10349 0)
(0.797707 0.111666 0)
(0.816275 0.119832 0)
(0.834813 0.127971 0)
(0.853262 0.136065 0)
(0.871563 0.144092 0)
(0.88966 0.152034 0)
(0.907501 0.159872 0)
(0.925036 0.167587 0)
(0.942234 0.175147 0)
(0.959175 0.18247 0)
(0.976588 0.189963 0)
(0.993428 0.196977 0)
(1.00516 0.202436 0)
(1.00981 0.207066 0)
(1.016 0.208626 -6.28479e-026)
(0.551271 0.00548588 0)
(0.561831 0.0105693 0)
(0.573465 0.0184473 0)
(0.586109 0.0263979 0)
(0.59969 0.0343223 0)
(0.614132 0.0423404 0)
(0.629351 0.0504971 0)
(0.645262 0.0587806 0)
(0.661782 0.0671725 0)
(0.678825 0.0756574 0)
(0.696313 0.08422 0)
(0.714171 0.0928468 0)
(0.732325 0.10152 0)
(0.7507 0.110222 0)
(0.769234 0.118935 0)
(0.787862 0.127641 0)
(0.806523 0.13632 0)
(0.82516 0.144953 0)
(0.843716 0.15352 0)
(0.862137 0.162001 0)
(0.880371 0.170376 0)
(0.898367 0.178625 0)
(0.916085 0.186729 0)
(0.933529 0.194639 0)
(0.950945 0.202395 0)
(0.968782 0.210199 0)
(0.986737 0.217496 0)
(0.997227 0.222887 0)
(1.00275 0.227461 0)
(0.527137 0.00581579 0)
(0.537173 0.0112343 0)
(0.548296 0.0196055 0)
(0.560445 0.0280478 0)
(0.573555 0.0364635 0)
(0.587551 0.0449805 0)
(0.602358 0.0536455 0)
(0.617895 0.0624462 0)
(0.634082 0.0713634 0)
(0.65084 0.0803814 0)
(0.668091 0.0894844 0)
(0.685765 0.0986577 0)
(0.703793 0.107884 0)
(0.722103 0.117143 0)
(0.740629 0.126416 0)
(0.75931 0.135683 0)
(0.778086 0.144924 0)
(0.796902 0.154118 0)
(0.815702 0.163244 0)
(0.834433 0.172281 0)
(0.853044 0.181207 0)
(0.871485 0.190001 0)
(0.889713 0.198642 0)
(0.907709 0.207101 0)
(0.925546 0.215376 0)
(0.943245 0.223391 0)
(0.962777 0.231694 0)
(0.979932 0.239242 0)
(0.990215 0.243684 7.39547e-026)
(0.50298 0.00615874 0)
(0.512497 0.0119098 0)
(0.523112 0.0207865 0)
(0.534768 0.0297311 0)
(0.547405 0.0386487 0)
(0.560954 0.0476761 0)
(0.575344 0.0568621 0)
(0.590502 0.066194 0)
(0.606351 0.0756519 0)
(0.622817 0.0852195 0)
(0.639825 0.0948809 0)
(0.657306 0.104618 0)
(0.675195 0.114414 0)
(0.693425 0.124249 0)
(0.711933 0.134102 0)
(0.730659 0.143952 0)
(0.749546 0.153778 0)
(0.768537 0.163557 0)
(0.787577 0.173266 0)
(0.806614 0.182883 0)
(0.825599 0.192384 0)
(0.844481 0.201745 0)
(0.863218 0.210945 0)
(0.88178 0.219959 0)
(0.900175 0.228778 0)
(0.918438 0.237327 0)
(0.937112 0.245756 0)
(0.957794 0.254632 0)
(0.973822 0.261354 9.86321e-028)
(0.478864 0.00651264 0)
(0.487867 0.0125951 0)
(0.497978 0.0219886 0)
(0.509143 0.0314448 0)
(0.521305 0.0408736 0)
(0.534403 0.0504216 0)
(0.548372 0.06014 0)
(0.563142 0.0700154 0)
(0.578644 0.0800277 0)
(0.594807 0.0901602 0)
(0.611562 0.100397 0)
(0.628843 0.110719 0)
(0.646587 0.121108 0)
(0.66473 0.131542 0)
(0.683209 0.141999 0)
(0.701969 0.152458 0)
(0.720955 0.162894 0)
(0.74011 0.173284 0)
(0.759382 0.183604 0)
(0.77872 0.193828 0)
(0.798073 0.203932 0)
(0.817392 0.21389 0)
(0.836632 0.223678 0)
(0.855757 0.233273 0)
(0.87475 0.242659 0)
(0.893625 0.251806 0)
(0.912521 0.260687 0)
(0.932645 0.269697 0)
(0.953335 0.27855 -1.68399e-025)
(0.45485 0.00687584 0)
(0.463346 0.0132905 0)
(0.472957 0.0232118 0)
(0.483632 0.0331884 0)
(0.495318 0.0431376 0)
(0.507961 0.0532167 0)
(0.521502 0.0634792 0)
(0.535877 0.0739112 0)
(0.55102 0.0844924 0)
(0.566868 0.095206 0)
(0.583355 0.106035 0)
(0.600419 0.116961 0)
(0.618 0.127964 0)
(0.636042 0.139022 0)
(0.654484 0.150111 0)
(0.673269 0.161206 0)
(0.692343 0.172282 0)
(0.711655 0.183312 0)
(0.731151 0.194271 0)
(0.750782 0.20513 0)
(0.770496 0.215864 0)
(0.790246 0.226444 0)
(0.809983 0.236844 0)
(0.829666 0.247039 0)
(0.849263 0.257006 0)
(0.868761 0.266729 0)
(0.888201 0.276187 0)
(0.907933 0.285397 0)
(0.9294 0.294931 -7.63091e-028)
(0.430992 0.00724612 0)
(0.43899 0.0139959 0)
(0.448107 0.0244552 0)
(0.458292 0.0349604 0)
(0.469501 0.0454386 0)
(0.481685 0.0560589 0)
(0.49479 0.066877 0)
(0.508759 0.0778787 0)
(0.523532 0.0890437 0)
(0.539051 0.100355 0)
(0.555255 0.111796 0)
(0.572087 0.123347 0)
(0.58949 0.134986 0)
(0.60741 0.14669 0)
(0.625795 0.158435 0)
(0.64459 0.170194 0)
(0.663742 0.18194 0)
(0.683201 0.193642 0)
(0.702915 0.205271 0)
(0.722834 0.216799 0)
(0.742909 0.228193 0)
(0.763091 0.239423 0)
(0.783329 0.25046 0)
(0.803578 0.261272 0)
(0.823797 0.271835 0)
(0.843955 0.282124 0)
(0.864045 0.292132 0)
(0.884148 0.301791 0)
(0.904809 0.311456 9.50331e-026)
(0.407344 0.00762077 0)
(0.414853 0.0147106 0)
(0.423481 0.0257168 0)
(0.433179 0.0367572 0)
(0.443909 0.0477719 0)
(0.455627 0.0589422 0)
(0.468288 0.0703263 0)
(0.48184 0.0819097 0)
(0.496229 0.0936722 0)
(0.511402 0.105597 0)
(0.527306 0.117668 0)
(0.543887 0.129865 0)
(0.561095 0.142164 0)
(0.578878 0.154542 0)
(0.597186 0.166971 0)
(0.61597 0.179424 0)
(0.635183 0.19187 0)
(0.654776 0.204279 0)
(0.674699 0.216615 0)
(0.694903 0.228847 0)
(0.71534 0.240938 0)
(0.735959 0.252853 0)
(0.756712 0.264559 0)
(0.777547 0.27602 0)
(0.798418 0.287204 0)
(0.819283 0.298082 0)
(0.840111 0.308631 0)
(0.860898 0.318843 0)
(0.881719 0.328562 1.01302e-025)
(0.383955 0.00799674 0)
(0.390988 0.0154335 0)
(0.399134 0.0269938 0)
(0.408347 0.0385742 0)
(0.418595 0.0501313 0)
(0.429843 0.0618595 0)
(0.44205 0.0738187 0)
(0.455172 0.0859947 0)
(0.469161 0.098368 0)
(0.48397 0.110923 0)
(0.499552 0.123642 0)
(0.515859 0.136505 0)
(0.532847 0.149489 0)
(0.550471 0.162569 0)
(0.568684 0.175716 0)
(0.587438 0.188897 0)
(0.606693 0.202081 0)
(0.626403 0.215233 0)
(0.646523 0.228317 0)
(0.667006 0.241293 0)
(0.687804 0.254123 0)
(0.708868 0.266765 0)
(0.730147 0.27918 0)
(0.751591 0.291327 0)
(0.773147 0.303167 0)
(0.794766 0.314663 0)
(0.816402 0.325782 0)
(0.838022 0.336522 0)
(0.859587 0.346701 -1.06973e-025)
(0.360876 0.00837068 0)
(0.367443 0.0161625 0)
(0.375115 0.0282822 0)
(0.383846 0.0404052 0)
(0.393611 0.0525091 0)
(0.404382 0.0648012 0)
(0.416125 0.0773437 0)
(0.428802 0.0901225 0)
(0.442373 0.103119 0)
(0.456798 0.116319 0)
(0.472034 0.129705 0)
(0.488043 0.143257 0)
(0.504783 0.156951 0)
(0.522217 0.170762 0)
(0.540306 0.184658 0)
(0.55901 0.198607 0)
(0.578286 0.21257 0)
(0.598096 0.22651 0)
(0.618399 0.240387 0)
(0.639151 0.254155 0)
(0.660308 0.267772 0)
(0.681822 0.281189 0)
(0.703643 0.29436 0)
(0.725718 0.307237 0)
(0.747992 0.319775 0)
(0.77041 0.331927 0)
(0.792917 0.343653 0)
(0.815461 0.354927 0)
(0.837972 0.365696 1.12968e-025)
(0.338152 0.00873889 0)
(0.344268 0.016895 0)
(0.351475 0.0295763 0)
(0.359727 0.0422419 0)
(0.369006 0.0548944 0)
(0.379293 0.0677546 0)
(0.39056 0.0808865 0)
(0.402778 0.0942765 0)
(0.415911 0.107908 0)
(0.429927 0.121767 0)
(0.444792 0.135838 0)
(0.460473 0.150102 0)
(0.476937 0.164533 0)
(0.494151 0.179104 0)
(0.512083 0.193784 0)
(0.530702 0.208538 0)
(0.549973 0.223325 0)
(0.569861 0.238103 0)
(0.59033 0.252825 0)
(0.61134 0.267442 0)
(0.632852 0.281903 0)
(0.65482 0.296153 0)
(0.677195 0.310138 0)
(0.699925 0.3238 0)
(0.722952 0.337084 0)
(0.746217 0.349936 0)
(0.769656 0.362306 0)
(0.793202 0.374147 0)
(0.816776 0.385446 -2.38237e-025)
(0.315832 0.00909737 0)
(0.321512 0.0176266 0)
(0.328264 0.0308685 0)
(0.336039 0.0440729 0)
(0.34483 0.0572729 0)
(0.354625 0.0707026 0)
(0.365404 0.0844271 0)
(0.377144 0.0984341 0)
(0.389818 0.112709 0)
(0.4034 0.12724 0)
(0.417864 0.142013 0)
(0.433185 0.157008 0)
(0.449338 0.172203 0)
(0.466298 0.187568 0)
(0.48404 0.20307 0)
(0.502537 0.218671 0)
(0.521767 0.23433 0)
(0.541701 0.249999 0)
(0.562311 0.265628 0)
(0.583563 0.281158 0)
(0.605421 0.296532 0)
(0.627845 0.311684 0)
(0.650788 0.32655 0)
(0.674199 0.341063 0)
(0.698019 0.355156 0)
(0.722182 0.368761 0)
(0.74662 0.381818 0)
(0.771253 0.394265 0)
(0.795994 0.40607 8.87179e-028)
(0.293963 0.0094419 0)
(0.299223 0.0183517 0)
(0.305529 0.0321486 0)
(0.312832 0.0458842 0)
(0.321132 0.0596268 0)
(0.330427 0.0736236 0)
(0.340704 0.0879408 0)
(0.351948 0.102568 0)
(0.364139 0.117492 0)
(0.377259 0.132705 0)
(0.39129 0.148194 0)
(0.406214 0.163942 0)
(0.422016 0.179925 0)
(0.438678 0.196114 0)
(0.456187 0.212479 0)
(0.474525 0.228977 0)
(0.493674 0.245561 0)
(0.513616 0.262183 0)
(0.534334 0.278784 0)
(0.555802 0.295301 0)
(0.577992 0.311666 0)
(0.60087 0.327803 0)
(0.624393 0.343635 0)
(0.648512 0.359081 0)
(0.673167 0.374058 0)
(0.69829 0.388485 0)
(0.723803 0.402285 0)
(0.749617 0.415383 0)
(0.775636 0.42772 1.32462e-027)
(0.272594 0.00976803 0)
(0.277451 0.0190626 0)
(0.283322 0.0334038 0)
(0.290155 0.0476577 0)
(0.297961 0.0619336 0)
(0.306746 0.0764911 0)
(0.316508 0.0913971 0)
(0.327235 0.106643 0)
(0.338919 0.12222 0)
(0.351546 0.138122 0)
(0.365109 0.15434 0)
(0.379597 0.170858 0)
(0.395003 0.187653 0)
(0.41132 0.2047 0)
(0.428544 0.221964 0)
(0.446672 0.239404 0)
(0.465693 0.256974 0)
(0.4856 0.274615 0)
(0.506385 0.292265 0)
(0.528036 0.309855 0)
(0.550535 0.327303 0)
(0.573857 0.344523 0)
(0.597966 0.361422 0)
(0.622819 0.377901 0)
(0.648355 0.39386 0)
(0.674504 0.409196 0)
(0.70118 0.423813 0)
(0.728281 0.437617 0)
(0.755698 0.450529 1.3792e-025)
(0.251777 0.0100712 0)
(0.256246 0.0197493 0)
(0.261691 0.0346183 0)
(0.268057 0.0493716 0)
(0.275365 0.0641662 0)
(0.283632 0.0792729 0)
(0.292863 0.0947589 0)
(0.303053 0.110618 0)
(0.314202 0.126846 0)
(0.326305 0.14344 0)
(0.339362 0.160395 0)
(0.353371 0.177696 0)
(0.368335 0.195325 0)
(0.384256 0.213257 0)
(0.40114 0.231458 0)
(0.418996 0.249889 0)
(0.437827 0.268502 0)
(0.45764 0.287235 0)
(0.478441 0.30602 0)
(0.500231 0.324778 0)
(0.523006 0.343419 0)
(0.546753 0.36184 0)
(0.571449 0.379929 0)
(0.597058 0.397568 0)
(0.623523 0.41463 0)
(0.650772 0.430988 0)
(0.67871 0.446516 0)
(0.707222 0.461098 0)
(0.736177 0.474631 -1.41418e-025)
(0.231564 0.0103471 0)
(0.235659 0.0203998 0)
(0.240688 0.0357734 0)
(0.246588 0.051001 0)
(0.253395 0.0662934 0)
(0.261134 0.081932 0)
(0.269817 0.097983 0)
(0.27945 0.114444 0)
(0.290037 0.131314 0)
(0.301583 0.148597 0)
(0.314094 0.16629 0)
(0.327579 0.184382 0)
(0.342048 0.202859 0)
(0.357515 0.221699 0)
(0.373996 0.240871 0)
(0.391513 0.260343 0)
(0.410087 0.280058 0)
(0.429735 0.299956 0)
(0.450483 0.319967 0)
(0.472351 0.340002 0)
(0.495352 0.35996 0)
(0.519492 0.379721 0)
(0.544764 0.399153 0)
(0.571145 0.418108 0)
(0.598586 0.43643 0)
(0.627016 0.453955 0)
(0.656331 0.470522 0)
(0.686399 0.485979 0)
(0.717063 0.500189 1.49362e-025)
(0.21201 0.0105919 0)
(0.215745 0.0210008 0)
(0.220365 0.036849 0)
(0.2258 0.0525187 0)
(0.232099 0.0682815 0)
(0.2393 0.0844275 0)
(0.247421 0.101022 0)
(0.256474 0.118065 0)
(0.266473 0.135562 0)
(0.277429 0.153522 0)
(0.289356 0.171944 0)
(0.30227 0.190826 0)
(0.316191 0.210157 0)
(0.33114 0.229919 0)
(0.347147 0.250089 0)
(0.364246 0.270633 0)
(0.382482 0.291504 0)
(0.401882 0.312646 0)
(0.422492 0.333977 0)
(0.444357 0.355408 0)
(0.467514 0.376823 0)
(0.491994 0.398088 0)
(0.517815 0.419044 0)
(0.544971 0.439512 0)
(0.573431 0.459294 0)
(0.603128 0.47818 0)
(0.633952 0.495959 0)
(0.665751 0.512427 0)
(0.698333 0.527401 0)
(0.193172 0.0108036 0)
(0.196553 0.021538 0)
(0.20077 0.0378251 0)
(0.20574 0.0538973 0)
(0.211528 0.0700957 0)
(0.21818 0.0867167 0)
(0.225724 0.103823 0)
(0.234179 0.12142 0)
(0.243564 0.139518 0)
(0.253899 0.15813 0)
(0.265203 0.177263 0)
(0.2775 0.196919 0)
(0.290817 0.217094 0)
(0.305186 0.237778 0)
(0.320645 0.258955 0)
(0.337241 0.280595 0)
(0.355035 0.302669 0)
(0.374087 0.325118 0)
(0.394456 0.34786 0)
(0.416214 0.370805 0)
(0.439431 0.393829 0)
(0.464171 0.416781 0)
(0.490485 0.439476 0)
(0.5184 0.461696 0)
(0.54791 0.483194 0)
(0.57896 0.503699 0)
(0.611441 0.522927 0)
(0.645177 0.540603 0)
(0.679932 0.556475 1.54398e-025)
(0.175104 0.0109825 0)
(0.178133 0.0219983 0)
(0.181951 0.0386831 0)
(0.186457 0.0551109 0)
(0.191729 0.0717015 0)
(0.197826 0.0887556 0)
(0.204781 0.106333 0)
(0.212621 0.124442 0)
(0.221371 0.143101 0)
(0.231057 0.162326 0)
(0.241704 0.182132 0)
(0.25334 0.202527 0)
(0.265999 0.223516 0)
(0.279721 0.2451 0)
(0.294553 0.267273 0)
(0.310556 0.290017 0)
(0.327799 0.31331 0)
(0.346382 0.337104 0)
(0.366382 0.361336 0)
(0.387902 0.385908 0)
(0.41105 0.410694 0)
(0.435934 0.435529 0)
(0.46265 0.460203 0)
(0.491273 0.484457 0)
(0.521835 0.507985 0)
(0.554314 0.530438 0)
(0.588608 0.551437 0)
(0.62452 0.570602 0)
(0.661761 0.587579 -5.50744e-027)
(0.157854 0.0111323 0)
(0.16053 0.0223705 0)
(0.163954 0.0394078 0)
(0.167996 0.0561356 0)
(0.172751 0.0730653 0)
(0.178288 0.0904988 0)
(0.184647 0.108491 0)
(0.19186 0.127056 0)
(0.19996 0.146217 0)
(0.208975 0.165996 0)
(0.218935 0.186415 0)
(0.229872 0.20749 0)
(0.241823 0.229238 0)
(0.254832 0.251672 0)
(0.268958 0.2748 0)
(0.28427 0.298621 0)
(0.300854 0.323122 0)
(0.318824 0.348283 0)
(0.338308 0.374052 0)
(0.359429 0.400337 0)
(0.382344 0.427019 0)
(0.407211 0.453926 0)
(0.434191 0.480827 0)
(0.46342 0.507424 0)
(0.494997 0.533345 0)
(0.52895 0.558148 0)