/*--------------------------------*- C++ -*----------------------------------*\
| =========                 |                                                 |
| \\      /  F ield         | OpenFOAM: The Open Source CFD Toolbox           |
|  \\    /   O peration     | Version:  5.x                                   |
|   \\  /    A nd           | Web:      www.OpenFOAM.org                      |
|    \\/     M anipulation  |                                                 |
\*---------------------------------------------------------------------------*/
/*   Windows 32 and 64 bit porting by blueCAPE: http://www.bluecape.com.pt   *\
|  Based on Windows porting (2.0.x v4) by Symscape: http://www.symscape.com   |
\*---------------------------------------------------------------------------*/
FoamFile
{
    version     2.0;
    format      ascii;
    class       volScalarField;
    location    "300";
    object      epsilon;
}
// * * * * * * * * * * * * * * * * * * * * * * * * * * * * * * * * * * * * * //

dimensions      [0 2 -3 0 0 0 0];

internalField   nonuniform List<scalar> 
43900
(
0.00152925
0.00151909
0.00151979
0.00151971
0.00151968
0.00151967
0.00151967
0.00151967
0.00151967
0.00151967
0.00151967
0.00151968
0.00151968
0.00151968
0.00151968
0.00151968
0.00151968
0.00151969
0.00151969
0.00151969
0.00151969
0.00151969
0.00151969
0.00151969
0.00151969
0.00151969
0.00151969
0.00151969
0.00151969
0.000413774
3.81877e-005
3.16664e-005
3.15208e-005
3.27305e-005
3.27939e-005
3.28066e-005
3.27922e-005
3.27923e-005
3.27957e-005
3.27937e-005
3.27969e-005
3.2801e-005
3.28046e-005
3.28059e-005
3.28048e-005
3.28085e-005
3.28117e-005
3.28108e-005
3.28122e-005
3.28116e-005
3.28116e-005
3.28149e-005
3.28147e-005
3.28148e-005
3.28163e-005
3.28149e-005
3.28154e-005
3.28179e-005
0.0508234
0.00574929
0.000289347
1.14701e-005
1.71021e-006
1.32777e-006
1.32675e-006
1.40983e-006
1.4188e-006
1.41755e-006
1.41639e-006
1.4165e-006
1.41708e-006
1.41764e-006
1.41783e-006
1.41811e-006
1.41861e-006
1.41875e-006
1.41892e-006
1.41917e-006
1.41925e-006
1.4195e-006
1.41974e-006
1.41976e-006
1.41994e-006
1.42004e-006
1.42004e-006
1.42025e-006
1.42038e-006
0.146386
0.0437062
0.00965227
0.00131494
8.30847e-005
3.39177e-006
3.40577e-007
1.22373e-007
1.08347e-007
1.1559e-007
1.19888e-007
1.20157e-007
1.19596e-007
1.19479e-007
1.19604e-007
1.19667e-007
1.19671e-007
1.19692e-007
1.19738e-007
1.19764e-007
1.19784e-007
1.19819e-007
1.19841e-007
1.19855e-007
1.19882e-007
1.199e-007
1.1992e-007
1.19943e-007
1.19951e-007
0.197778
0.0845305
0.0338641
0.0112488
0.00264645
0.000356573
2.24046e-005
9.6264e-007
8.41533e-008
2.22484e-008
1.64979e-008
1.71685e-008
1.84409e-008
1.86174e-008
1.8433e-008
1.84198e-008
1.84868e-008
1.84859e-008
1.84753e-008
1.84808e-008
1.84855e-008
1.84889e-008
1.84935e-008
1.84993e-008
1.85042e-008
1.85065e-008
1.85084e-008
1.85123e-008
1.85161e-008
0.222744
0.109123
0.0532948
0.0250985
0.0104962
0.003315
0.000705615
7.72592e-005
4.27734e-006
2.02549e-007
1.91272e-008
5.53908e-009
4.10428e-009
4.44348e-009
4.7376e-009
4.71517e-009
4.63145e-009
4.64976e-009
4.6716e-009
4.67041e-009
4.67336e-009
4.67793e-009
4.67761e-009
4.67744e-009
4.6784e-009
4.67933e-009
4.68098e-009
4.6823e-009
4.68283e-009
0.234367
0.123752
0.0661815
0.0353444
0.0183984
0.00892892
0.00356963
0.000976235
0.000153259
1.16902e-005
6.01254e-007
3.29057e-008
4.34811e-009
1.72908e-009
1.52894e-009
1.67455e-009
1.75176e-009
1.71417e-009
1.7016e-009
1.70671e-009
1.70419e-009
1.70302e-009
1.70565e-009
1.70763e-009
1.70756e-009
1.70747e-009
1.70784e-009
1.70809e-009
1.70831e-009
0.237461
0.131293
0.0739301
0.0420513
0.0238614
0.0132445
0.00693493
0.00316232
0.00103131
0.000214077
2.23644e-005
1.36116e-006
7.53961e-008
5.33956e-009
1.2035e-009
7.31599e-010
7.53349e-010
8.16879e-010
8.12032e-010
8.01564e-010
8.063e-010
8.06293e-010
8.03182e-010
8.03421e-010
8.04738e-010
8.05283e-010
8.05489e-010
8.05744e-010
8.05886e-010
0.236798
0.135491
0.0791328
0.0469147
0.028012
0.0166611
0.00970698
0.00538298
0.00268442
0.00101947
0.000246263
3.14412e-005
2.23884e-006
1.35197e-007
8.78943e-009
1.08546e-009
4.73394e-010
4.0561e-010
4.48216e-010
4.60466e-010
4.52945e-010
4.53737e-010
4.56078e-010
4.54919e-010
4.53553e-010
4.53899e-010
4.54276e-010
4.5446e-010
4.54564e-010
0.232554
0.136138
0.0815548
0.0497538
0.0307351
0.019086
0.0117951
0.00714551
0.00413724
0.0021774
0.000916792
0.000244083
3.55279e-005
2.88058e-006
1.91667e-007
1.30512e-008
1.21528e-009
3.79678e-010
2.62754e-010
2.77223e-010
2.91146e-010
2.8726e-010
2.88075e-010
2.90415e-010
2.9026e-010
2.89387e-010
2.89302e-010
2.89529e-010
2.89606e-010
0.225476
0.134429
0.0819664
0.0510056
0.0322395
0.0205894
0.0131948
0.00840481
0.00524589
0.00313312
0.00171151
0.000769036
0.000217437
3.43665e-005
3.09151e-006
2.27175e-007
1.67536e-008
1.47179e-009
3.15945e-010
1.93283e-010
1.89216e-010
1.99952e-010
1.97918e-010
1.96812e-010
1.98454e-010
1.99813e-010
1.99552e-010
1.99305e-010
1.99386e-010
0.217539
0.131645
0.0815279
0.0515399
0.03315
0.0216013
0.0141888
0.00933297
0.00609129
0.00389069
0.00237756
0.00133246
0.000621823
0.000181967
3.04793e-005
2.99386e-006
2.42369e-007
1.95074e-008
1.7423e-009
2.92001e-010
1.55864e-010
1.34653e-010
1.45707e-010
1.45421e-010
1.43322e-010
1.44117e-010
1.45331e-010
1.4566e-010
1.45492e-010
0.208665
0.127926
0.0802692
0.0514142
0.0335457
0.0222127
0.0148668
0.0100078
0.00673177
0.00448385
0.00291744
0.00181357
0.00103365
0.000491848
0.000145805
2.51805e-005
2.64975e-006
2.34458e-007
2.05615e-008
1.93286e-009
2.87097e-010
1.34299e-010
1.06665e-010
1.12263e-010
1.13532e-010
1.11525e-010
1.10904e-010
1.11403e-010
1.11869e-010
0.199056
0.123412
0.0783165
0.0507736
0.0335148
0.0224915
0.0152842
0.0104757
0.00720582
0.00494198
0.00334863
0.00221133
0.00139175
0.000800875
0.000383136
0.0001126
1.94317e-005
2.16379e-006
2.09549e-007
2.0144e-008
2.03338e-009
2.90649e-010
1.14983e-010
8.84764e-011
9.02973e-011
9.34334e-011
9.18919e-011
9.087e-011
9.1041e-011
0.188936
0.118303
0.0758315
0.0496717
0.0331688
0.0225009
0.0154898
0.0107759
0.0075454
0.00529105
0.003691
0.00253778
0.00169597
0.00107663
0.000621702
0.000295012
8.49435e-005
1.46345e-005
1.73446e-006
1.84343e-007
1.94602e-008
2.13322e-009
3.03557e-010
1.03585e-010
7.63711e-011
7.58953e-011
7.91699e-011
7.87278e-011
7.76923e-011
0.178472
0.112772
0.0729439
0.0482307
0.0325225
0.0223134
0.0155245
0.0109384
0.00777341
0.00554893
0.00395832
0.00280257
0.00195073
0.00131573
0.000839483
0.000483822
0.000225175
6.31964e-005
1.0927e-005
1.37987e-006
1.60134e-007
1.84788e-008
2.19853e-009
3.18392e-010
9.69872e-011
6.83604e-011
6.32965e-011
6.70242e-011
6.81925e-011
0.167846
0.106968
0.0697798
0.0465384
0.0316674
0.0219349
0.0154286
0.0109884
0.0079085
0.00572977
0.00416146
0.00301383
0.00216125
0.00151946
0.00103156
0.000659145
0.000376977
0.000169918
4.63978e-005
8.09329e-006
1.09167e-006
1.38109e-007
1.73729e-008
2.23648e-009
3.35163e-010
9.40335e-011
6.21435e-011
5.37143e-011
5.62573e-011
0.15718
0.100995
0.0664226
0.0446666
0.0306521
0.0214234
0.0152155
0.0109522
0.00797266
0.00585143
0.00431469
0.00318282
0.00233611
0.00169371
0.00120047
0.000818612
0.000522467
0.000295257
0.000127385
3.39439e-005
6.04755e-006
8.77244e-007
1.20893e-007
1.65469e-008
2.30433e-009
3.61251e-010
9.46418e-011
5.57474e-011
4.65421e-011
0.146556
0.0949271
0.0629308
0.0426606
0.0295176
0.020807
0.0149118
0.0108414
0.0079717
0.00592078
0.00442522
0.00331641
0.00248133
0.00184318
0.00134914
0.000962634
0.000658287
0.000418806
0.000233071
9.53548e-005
2.49738e-005
4.59372e-006
7.16992e-007
1.07395e-007
1.59693e-008
2.403e-009
3.95132e-010
9.73234e-011
5.0586e-011
0.136057
0.0888291
0.0593536
0.0405567
0.0282902
0.0201089
0.0145379
0.0106675
0.00792769
0.00594933
0.00449999
0.00341921
0.0026003
0.00197048
0.00147938
0.00109188
0.000783319
0.00053647
0.000339632
0.000185541
7.10711e-005
1.84899e-005
3.54453e-006
5.97129e-007
9.72324e-008
1.57116e-008
2.55467e-009
4.4262e-010
1.02473e-010
0.125752
0.0827558
0.0557321
0.0383849
0.0269916
0.0193446
0.0141047
0.0104428
0.00783409
0.00593977
0.0045435
0.00349575
0.00269694
0.00207873
0.00159352
0.00120786
0.000898042
0.000647245
0.00044368
0.000279453
0.000150142
5.43759e-005
1.40979e-005
2.83477e-006
5.14441e-007
9.05192e-008
1.57452e-008
2.74408e-009
4.91156e-010
0.115704
0.0767551
0.0521017
0.0361712
0.0256407
0.0185279
0.0136237
0.0101751
0.00770382
0.00590076
0.00455925
0.00354829
0.00277301
0.00216939
0.00169269
0.00131127
0.00100253
0.000750282
0.000542934
0.000372388
0.000233354
0.000123216
4.32914e-005
1.11787e-005
2.35142e-006
4.5609e-007
8.59248e-008
1.59853e-008
2.90947e-009
0.105975
0.0708734
0.0484962
0.0339397
0.0242547
0.017671
0.0131029
0.00987055
0.00754007
0.00582872
0.00454985
0.00357922
0.00283036
0.00224383
0.00177784
0.00140268
0.00109696
0.000845234
0.000636288
0.000462077
0.000316998
0.000197496
0.000101788
3.526e-005
9.21514e-006
2.03094e-006
4.18433e-007
8.40673e-008
1.63342e-008
0.0966182
0.0651524
0.0449464
0.0317131
0.02285
0.0167859
0.0125515
0.0095364
0.00734903
0.00573341
0.00451959
0.00359035
0.00287042
0.00230327
0.00185003
0.00148293
0.00118191
0.000932337
0.000723502
0.000547582
0.000398944
0.000273703
0.000169502
8.52988e-005
2.9444e-005
7.86677e-006
1.8166e-006
3.95781e-007
8.24678e-008
0.0876823
0.0596291
0.0414802
0.0295118
0.0214417
0.0158837
0.0119774
0.00917812
0.00713452
0.00561576
0.00446723
0.00358409
0.00289508
0.00234905
0.00191016
0.00155261
0.00125767
0.0010116
0.000804262
0.000628145
0.000477738
0.000349084
0.000239523
0.000147519
7.25578e-005
2.51181e-005
6.89811e-006
1.66957e-006
3.75118e-007
0.0792067
0.0543358
0.0381225
0.0273545
0.0200437
0.0149746
0.0113883
0.00880172
0.00690131
0.00548012
0.00439909
0.0035635
0.0029059
0.00238239
0.00195922
0.00161253
0.00132489
0.00108348
0.000878761
0.000703628
0.000552777
0.000422308
0.00030945
0.000212395
0.000130209
6.26278e-005
2.1851e-005
6.19031e-006
1.53117e-006
0.0712217
0.0492984
0.0348939
0.0252574
0.0186683
0.0140679
0.0107913
0.00841229
0.00665303
0.00532896
0.00431548
0.00352686
0.00290331
0.00240397
0.00199787
0.00166321
0.00138396
0.00114823
0.000947127
0.000773971
0.000623729
0.000492633
0.000377922
0.000277667
0.000190675
0.000116422
5.48443e-005
1.93584e-005
5.51914e-006
0.0637486
0.044537
0.0318115
0.0232339
0.017326
0.013172
0.0101927
0.00801492
0.00639382
0.00516586
0.00422004
0.00347977
0.00289162
0.00241644
0.0020279
0.00170595
0.00143583
0.00120655
0.00100983
0.000839428
0.000690607
0.000559775
0.000444245
0.000342066
0.000251916
0.000173052
0.000105261
4.86965e-005
1.6996e-005
0.056799
0.0400656
0.0288879
0.0212949
0.0160257
0.0122936
0.00959794
0.00761384
0.0061269
0.00499311
0.00411416
0.00342188
0.00286816
0.00241825
0.00204889
0.00174091
0.00148093
0.00125893
0.00106735
0.000900405
0.000753691
0.000623832
0.000508265
0.000405079
0.000312914
0.000230899
0.000158583
9.64e-005
4.28489e-005
0.0503763
0.035892
0.026132
0.0194484
0.0147741
0.0114386
0.00901168
0.00721277
0.00585533
0.00481336
0.00400032
0.00335587
0.00283725
0.0024139
0.00206339
0.00176959
0.00152022
0.00130609
0.00112025
0.000957371
0.000813362
0.000685081
0.000570114
0.000466631
0.000373288
0.000289159
0.000213693
0.000146994
8.8013e-005
0.0444762
0.0320194
0.0235491
0.0177001
0.0135766
0.0106113
0.00843765
0.00681478
0.0055816
0.00462857
0.00388004
0.00328294
0.00279953
0.00240267
0.00207175
0.0017927
0.00155449
0.00134877
0.0011692
0.0010109
0.000870105
0.000743913
0.00063007
0.000526852
0.000432964
0.00034748
0.000269802
0.000199719
0.000137303
0.039088
0.0284463
0.0211416
0.0160537
0.0124369
0.00981523
0.00787876
0.00642231
0.0053077
0.00444038
0.0037546
0.00320399
0.00275536
0.00238454
0.00207363
0.00181026
0.00158397
0.00138733
0.00121463
0.00106145
0.000924383
0.000800755
0.000688497
0.00058601
0.000492075
0.000405797
0.000326569
0.000254061
0.000188391
0.0341959
0.0251675
0.0189092
0.0145108
0.0113573
0.0090528
0.00733726
0.00603729
0.00503526
0.00425013
0.00362518
0.00312014
0.00270601
0.00236161
0.00207131
0.00182356
0.00160949
0.00142238
0.00125705
0.00110951
0.000976649
0.000856046
0.00074581
0.000644471
0.000550905
0.000464273
0.000383985
0.000309684
0.000241326
0.0297796
0.0221749
0.0168496
0.0130718
0.0103394
0.00832575
0.00681484
0.00566123
0.00476556
0.00405888
0.00349262
0.00303205
0.00265202
0.00233409
0.00206465
0.00183288
0.00163146
0.00145435
0.0012969
0.0011555
0.00102734
0.000910229
0.000802448
0.000702662
0.000609846
0.000523232
0.000442271
0.000366614
0.000296124
0.0258162
0.0194583
0.0149588
0.0117359
0.00938353
0.0076352
0.00631274
0.00529528
0.00449959
0.00386745
0.00335756
0.00294018
0.00259366
0.00230198
0.00205318
0.00183812
0.00164998
0.00148346
0.00133447
0.00119977
0.00107685
0.000963727
0.000858862
0.000761049
0.000669364
0.000583116
0.000501812
0.000425135
0.000352924
0.02228
0.0170056
0.0132316
0.0105013
0.00848984
0.00698186
0.0058319
0.00494038
0.00423816
0.00367648
0.00322049
0.00284492
0.00253121
0.00226558
0.00203757
0.0018392
0.00166499
0.00150975
0.00136988
0.00124253
0.00112546
0.00101691
0.000915491
0.000820119
0.000729976
0.000644452
0.000563118
0.000485703
0.00041207
0.0191439
0.0148034
0.011662
0.00936566
0.00765782
0.00636612
0.00537303
0.00459729
0.00398194
0.0034865
0.0030818
0.0027465
0.00246485
0.00222503
0.00201805
0.0018371
0.00167695
0.00153344
0.0014033
0.00128397
0.00117345
0.00107012
0.000972753
0.000880373
0.000792251
0.000707854
0.00062682
0.000548934
0.000474107
0.01638
0.0128375
0.010243
0.00832617
0.00688661
0.00578814
0.00493672
0.00426668
0.00373156
0.00329801
0.00294182
0.00264513
0.00239462
0.00218026
0.00199438
0.00183118
0.0016856
0.00155441
0.0014347
0.00132416
0.00122095
0.00112363
0.00103105
0.000942336
0.000856822
0.00077404
0.000693691
0.00061562
0.0005398
0.0139595
0.0110928
0.00896731
0.00737946
0.0061751
0.00524788
0.00452342
0.00394918
0.0034876
0.00311149
0.00280087
0.00254091
0.00232047
0.00213105
0.00196611
0.00182054
0.00169023
0.00157219
0.00146377
0.00136292
0.00126798
0.00117761
0.00109074
0.00100654
0.000924386
0.000843855
0.000764685
0.00068678
0.000610178
0.0118535
0.00955399
0.00782686
0.00652176
0.00552183
0.00474514
0.00413352
0.00364539
0.00325068
0.00292741
0.00265926
0.00243401
0.00224238
0.00207722
0.00193298
0.00180521
0.00169023
0.00158619
0.00149
0.00139988
0.00131431
0.00123204
0.00115203
0.00107345
0.000995681
0.000918272
0.000840975
0.000763723
0.000686616
0.0100332
0.008205
0.00681321
0.00574892
0.0049251
0.00427954
0.00376732
0.0033559
0.00302146
0.00274638
0.00251745
0.00232467
0.00216038
0.00201863
0.00189473
0.00178496
0.00168636
0.00159629
0.00151294
0.0014345
0.00135949
0.00128666
0.00121492
0.0011434
0.00107137
0.000998323
0.000923925
0.000848081
0.000770915
0.00847019
0.00702975
0.00591754
0.00505641
0.00438291
0.00385054
0.00342509
0.00308138
0.00280074
0.00256917
0.00237609
0.00221338
0.00207476
0.00195531
0.00185113
0.0017591
0.0016767
0.0016012
0.00153154
0.00146584
0.00140268
0.00134077
0.00127899
0.00121631
0.00115185
0.00108489
0.00101493
0.000941705
0.000865281
0.00713664
0.00601211
0.00513076
0.00443946
0.00389309
0.00345756
0.00310717
0.00282269
0.00258964
0.00239701
0.00223637
0.0021012
0.00198639
0.00188792
0.00180255
0.00172766
0.00166102
0.0016005
0.00154517
0.00149308
0.00144293
0.00139347
0.00134345
0.00129168
0.00123703
0.00117845
0.00111509
0.00104637
0.00097208
0.00600605
0.00513634
0.00444382
0.0038932
0.00345346
0.00310011
0.00281417
0.00258115
0.0023899
0.00223185
0.00210035
0.00199018
0.00189724
0.00181824
0.00175056
0.00169204
0.00164088
0.00159561
0.00155428
0.00151612
0.0014798
0.00144402
0.00140746
0.00136873
0.00132637
0.00127892
0.00122499
0.0011634
0.00109342
0.0050536
0.0043874
0.00384797
0.00341298
0.00306205
0.00277806
0.00254723
0.00235875
0.00220416
0.00207679
0.00197142
0.00188389
0.00181092
0.00174987
0.00169863
0.00165545
0.00161891
0.00158772
0.0015605
0.00153631
0.00151413
0.00149279
0.00147096
0.0014471
0.00141945
0.00138602
0.00134476
0.00129361
0.00123087
0.00425661
0.0037514
0.00333512
0.0029946
0.00271737
0.00249184
0.0023082
0.00215848
0.00203625
0.00193635
0.00185464
0.00178781
0.00173321
0.00168873
0.00165269
0.00162377
0.00160085
0.00158302
0.00156875
0.00155768
0.00154919
0.00154235
0.00153583
0.00152804
0.001517
0.00150014
0.00147486
0.00143788
0.00138586
0.00359479
0.00321582
0.00289799
0.00263444
0.00241846
0.00224252
0.00209976
0.00198431
0.00189128
0.0018166
0.00175692
0.00170952
0.00167225
0.0016434
0.00162161
0.00160601
0.00159572
0.00158914
0.00158643
0.00158745
0.00159155
0.00159863
0.00160718
0.00161582
0.00162246
0.00162347
0.00161747
0.00159878
0.00156081
0.00305035
0.00276955
0.00253018
0.0023295
0.00216488
0.00203168
0.00192518
0.00184104
0.00177542
0.00172497
0.00168685
0.00165871
0.00163869
0.00162539
0.00161745
0.0016135
0.00161335
0.0016168
0.00162494
0.00163713
0.00165298
0.00167247
0.00169496
0.0017194
0.00174396
0.00176534
0.00177973
0.00177864
0.00175984
0.00260771
0.00240275
0.00222591
0.00207705
0.00195629
0.00186101
0.00178798
0.00173387
0.00169555
0.00167004
0.00165468
0.00164726
0.00164522
0.00164672
0.00165151
0.00165978
0.00167105
0.00168529
0.00170334
0.00172542
0.00175131
0.00178157
0.00181631
0.00185509
0.00189667
0.00193814
0.00197516
0.00199707
0.00199287
0.00225309
0.00210644
0.00197974
0.00187433
0.00179212
0.00173188
0.00169141
0.00166799
0.001659
0.00166143
0.00167102
0.00168622
0.00170521
0.00172662
0.00174912
0.00177256
0.00179693
0.0018227
0.0018508
0.00188169
0.0019163
0.00195575
0.00200091
0.00205212
0.00210907
0.00216941
0.00222963
0.00227664
0.00229138
0.001974
0.00187213
0.00178613
0.0017181
0.00167112
0.00164494
0.00163819
0.00164837
0.00167259
0.00170724
0.00174982
0.00179747
0.00184725
0.001897
0.00194492
0.00199032
0.00203325
0.00207429
0.0021147
0.00215603
0.00220007
0.0022487
0.00230365
0.00236606
0.00243683
0.00251433
0.00259735
0.00266952
0.002708
0.00175893
0.00169158
0.00163929
0.00160454
0.00159123
0.00159994
0.00162987
0.00167878
0.00174441
0.00182412
0.0019138
0.00200924
0.00210608
0.00220069
0.00229027
0.00237314
0.00244876
0.00251762
0.00258119
0.00264175
0.00270246
0.00276613
0.0028356
0.00291259
0.00299921
0.00309475
0.00320074
0.0032992
0.00336434
0.00159722
0.00155677
0.00153317
0.00152922
0.00154932
0.00159569
0.00166751
0.00176512
0.00188662
0.00202857
0.00218645
0.002355
0.00252822
0.00270025
0.00286598
0.00302158
0.00316486
0.00329521
0.0034136
0.00352267
0.00362824
0.00373282
0.00383989
0.00395267
0.00407366
0.00420528
0.00434605
0.00449368
0.00459372
0.00147915
0.00146002
0.00146167
0.00148703
0.00154232
0.00163002
0.00175298
0.00191233
0.00210761
0.00233688
0.00259613
0.00287946
0.00317933
0.0034874
0.0037955
0.0040966
0.00438555
0.00465936
0.00491734
0.00516138
0.00539757
0.00563006
0.00586329
0.00610134
0.00634183
0.00660194
0.00683226
0.00716066
0.0072816
0.00139608
0.00139426
0.00141868
0.00147349
0.00156585
0.0017014
0.00188538
0.00212232
0.00241559
0.00276664
0.00317424
0.00363418
0.00413936
0.00468052
0.00524759
0.00583104
0.00642335
0.00701986
0.00761928
0.00822252
0.00883553
0.00947069
0.0101369
0.0108431
0.011576
0.012412
0.0130686
0.0143862
0.0144109
0.00134051
0.00135298
0.00139895
0.00148346
0.00161605
0.00180568
0.00206209
0.00239553
0.00281591
0.00333173
0.00394884
0.00466956
0.00549239
0.00641261
0.00742379
0.00851988
0.00969753
0.0109583
0.0123103
0.0137689
0.0153552
0.0171019
0.0190707
0.0213097
0.0238698
0.0269875
0.0299294
0.0360977
0.0363601
0.00130607
0.00133061
0.00139737
0.00151211
0.00168791
0.00193804
0.00227883
0.00272892
0.00330864
0.00403869
0.00493863
0.00602547
0.00731309
0.00881267
0.0105346
0.0124916
0.0147028
0.0171986
0.0200262
0.0232543
0.0269831
0.031343
0.0365423
0.0428183
0.0506946
0.0606557
0.0728523
0.0950715
0.102834
0.00128763
0.00132239
0.00140941
0.00155492
0.00177643
0.00209299
0.00252944
0.00311599
0.00388806
0.00488523
0.00614988
0.00772589
0.00965806
0.0119931
0.0147824
0.0180875
0.0219877
0.0265898
0.0320427
0.0385524
0.0464181
0.0560358
0.0680785
0.0832506
0.103511
0.129673
0.168809
0.22623
0.274057
0.00128176
0.00132505
0.00143219
0.00160855
0.00187788
0.00226585
0.00280802
0.00354956
0.00454631
0.00586479
0.00758201
0.00978527
0.0125731
0.0160579
0.0203722
0.0256783
0.0321829
0.0401582
0.0499734
0.0621328
0.0773668
0.096653
0.121686
0.154278
0.199844
0.259731
0.359703
0.48353
0.663456
0.00151969
0.00151969
0.0015197
0.0015197
0.00151969
0.00151969
0.0015197
0.0015197
0.0015197
0.00151969
0.00151969
0.0015197
0.00151971
0.00151971
0.0015197
0.00151969
0.00151969
0.00151969
0.00151969
0.00151969
0.00151968
0.00151968
0.00151969
0.00151969
0.00151969
0.0015197
0.0015197
0.00151969
0.00151968
0.00151968
0.00151969
0.0015197
0.0015197
0.0015197
0.0015197
0.0015197
0.0015197
0.0015197
0.0015197
0.0015197
0.0015197
0.0015197
0.0015197
0.0015197
0.0015197
0.0015197
0.0015197
0.0015197
0.0015197
0.0015197
0.0015197
0.0015197
0.0015197
0.0015197
0.0015197
0.0015197
0.0015197
0.0015197
0.0015197
0.0015197
0.0015197
0.0015197
0.0015197
0.0015197
0.0015197
0.0015197
0.0015197
0.0015197
0.00151971
0.00151971
0.00151971
0.00151971
0.00151971
0.00151971
0.00151971
0.00151971
0.00151971
0.00151971
0.00151971
0.0015197
0.00151971
0.0015197
0.00151971
0.00151971
0.00151971
0.00151971
0.00151971
0.00151971
0.00151971
0.00151971
0.00151971
0.00151971
0.00151971
0.00151971
0.00151971
0.00151971
0.00151971
0.00151971
0.00151971
0.00151971
0.00151971
0.00151971
0.00151971
0.00151971
0.00151971
0.00151971
0.00151971
0.00151971
0.00151971
0.00151971
0.00151971
0.00151971
0.00151971
0.00151971
0.00151971
0.00151971
0.00151971
0.00151971
0.00151971
0.00151971
0.00151971
0.00151971
0.00151971
0.00151971
0.00151971
0.00151971
0.00151971
0.00151971
0.00151971
0.00151971
0.00151971
0.00151971
0.00151971
0.00151972
0.00151972
0.00151972
0.00151972
0.00151973
0.00154198
3.28173e-005
3.28193e-005
3.2823e-005
3.28211e-005
3.28149e-005
3.28154e-005
3.28243e-005
3.28313e-005
3.2829e-005
3.28191e-005
3.28151e-005
3.28231e-005
3.28348e-005
3.2835e-005
3.28231e-005
3.28133e-005
3.2814e-005
3.28203e-005
3.28197e-005
3.28142e-005
3.28102e-005
3.28121e-005
3.28181e-005
3.2821e-005
3.28224e-005
3.28246e-005
3.28247e-005
3.2817e-005
3.28116e-005
3.28116e-005
3.28166e-005
3.28256e-005
3.2826e-005
3.28257e-005
3.28256e-005
3.28256e-005
3.28256e-005
3.28256e-005
3.28257e-005
3.28259e-005
3.28262e-005
3.28265e-005
3.28264e-005
3.2826e-005
3.28258e-005
3.28262e-005
3.28265e-005
3.28272e-005
3.28275e-005
3.28278e-005
3.28281e-005
3.28284e-005
3.28288e-005
3.28291e-005
3.28295e-005
3.283e-005
3.28303e-005
3.28309e-005
3.28312e-005
3.28318e-005
3.28322e-005
3.28325e-005
3.28332e-005
3.28333e-005
3.2834e-005
3.28341e-005
3.28349e-005
3.28346e-005
3.28359e-005
3.28356e-005
3.28356e-005
3.28371e-005
3.28356e-005
3.2837e-005
3.28363e-005
3.28374e-005
3.28361e-005
3.28356e-005
3.28362e-005
3.28338e-005
3.28361e-005
3.28348e-005
3.28363e-005
3.28389e-005
3.28396e-005
3.28386e-005
3.2836e-005
3.28376e-005
3.28374e-005
3.28394e-005
3.28408e-005
3.28415e-005
3.28417e-005
3.28418e-005
3.28417e-005
3.28417e-005
3.28415e-005
3.28416e-005
3.28415e-005
3.28414e-005
3.28413e-005
3.28412e-005
3.28412e-005
3.2841e-005
3.28409e-005
3.28408e-005
3.28407e-005
3.28406e-005
3.28404e-005
3.28402e-005
3.284e-005
3.28398e-005
3.28396e-005
3.28393e-005
3.28389e-005
3.28385e-005
3.28381e-005
3.28379e-005
3.28379e-005
3.28379e-005
3.28381e-005
3.28382e-005
3.28384e-005
3.28388e-005
3.28391e-005
3.28393e-005
3.28399e-005
3.28404e-005
3.28407e-005
3.28419e-005
3.28426e-005
3.28443e-005
3.28443e-005
3.28495e-005
3.28466e-005
3.28525e-005
3.28554e-005
3.28666e-005
3.48307e-005
1.42041e-006
1.42067e-006
1.42069e-006
1.42037e-006
1.42038e-006
1.42098e-006
1.42148e-006
1.42124e-006
1.42063e-006
1.42036e-006
1.42089e-006
1.42162e-006
1.42161e-006
1.42095e-006
1.42039e-006
1.42065e-006
1.42132e-006
1.42168e-006
1.42168e-006
1.42177e-006
1.42211e-006
1.42237e-006
1.42238e-006
1.42228e-006
1.42233e-006
1.42238e-006
1.42234e-006
1.42222e-006
1.42222e-006
1.42233e-006
1.42265e-006
1.42268e-006
1.42264e-006
1.4227e-006
1.42279e-006
1.42284e-006
1.42289e-006
1.42293e-006
1.42298e-006
1.42303e-006
1.42307e-006
1.42309e-006
1.42306e-006
1.42305e-006
1.42308e-006
1.42315e-006
1.42322e-006
1.42332e-006
1.42337e-006
1.42345e-006
1.4235e-006
1.42356e-006
1.42362e-006
1.42367e-006
1.42372e-006
1.42378e-006
1.42381e-006
1.42387e-006
1.4239e-006
1.42396e-006
1.424e-006
1.42403e-006
1.42409e-006
1.42411e-006
1.42417e-006
1.42419e-006
1.42424e-006
1.42425e-006
1.42432e-006
1.42432e-006
1.42435e-006
1.42442e-006
1.42434e-006
1.42446e-006
1.42442e-006
1.42447e-006
1.42449e-006
1.42447e-006
1.42455e-006
1.42452e-006
1.42459e-006
1.42454e-006
1.42465e-006
1.42473e-006
1.42477e-006
1.42482e-006
1.42485e-006
1.42493e-006
1.42492e-006
1.42499e-006
1.42501e-006
1.42507e-006
1.42513e-006
1.42516e-006
1.42516e-006
1.4252e-006
1.42516e-006
1.42521e-006
1.42519e-006
1.4252e-006
1.42519e-006
1.42518e-006
1.42517e-006
1.42515e-006
1.42515e-006
1.42511e-006
1.42511e-006
1.42506e-006
1.42504e-006
1.425e-006
1.42497e-006
1.42491e-006
1.42488e-006
1.42481e-006
1.42477e-006
1.4247e-006
1.42465e-006
1.4246e-006
1.42458e-006
1.42456e-006
1.42454e-006
1.4245e-006
1.42449e-006
1.42447e-006
1.42444e-006
1.42442e-006
1.42442e-006
1.42433e-006
1.42434e-006
1.42445e-006
1.42425e-006
1.4245e-006
1.42442e-006
1.42485e-006
1.42438e-006
1.42784e-006
1.39155e-006
1.33405e-006
3.41386e-006
1.19972e-007
1.19997e-007
1.19999e-007
1.2001e-007
1.20054e-007
1.20089e-007
1.20081e-007
1.20048e-007
1.20054e-007
1.20104e-007
1.20152e-007
1.20155e-007
1.20118e-007
1.20103e-007
1.20116e-007
1.20156e-007
1.2021e-007
1.20245e-007
1.20274e-007
1.20289e-007
1.20279e-007
1.20276e-007
1.20284e-007
1.20326e-007
1.20352e-007
1.20362e-007
1.20354e-007
1.20337e-007
1.20325e-007
1.20327e-007
1.20347e-007
1.20382e-007
1.20417e-007
1.2043e-007
1.20444e-007
1.20454e-007
1.20465e-007
1.20475e-007
1.20485e-007
1.20495e-007
1.20503e-007
1.20508e-007
1.20513e-007
1.20523e-007
1.20536e-007
1.20549e-007
1.20563e-007
1.20577e-007
1.20589e-007
1.20602e-007
1.20614e-007
1.20626e-007
1.20638e-007
1.20649e-007
1.2066e-007
1.20671e-007
1.20681e-007
1.20692e-007
1.20701e-007
1.20711e-007
1.20721e-007
1.20731e-007
1.20741e-007
1.2075e-007
1.2076e-007
1.20769e-007
1.20777e-007
1.20788e-007
1.20796e-007
1.20804e-007
1.20813e-007
1.20823e-007
1.20831e-007
1.20845e-007
1.20848e-007
1.20856e-007
1.20862e-007
1.20871e-007
1.2088e-007
1.20884e-007
1.20901e-007
1.20905e-007
1.20916e-007
1.2092e-007
1.20928e-007
1.20933e-007
1.20937e-007
1.20945e-007
1.20951e-007
1.20958e-007
1.20965e-007
1.20971e-007
1.20977e-007
1.20983e-007
1.20988e-007
1.20995e-007
1.20995e-007
1.21002e-007
1.21002e-007
1.21005e-007
1.21007e-007
1.21008e-007
1.21008e-007
1.21007e-007
1.21007e-007
1.21003e-007
1.21003e-007
1.20997e-007
1.20994e-007
1.20987e-007
1.20983e-007
1.20972e-007
1.20967e-007
1.20958e-007
1.20951e-007
1.2094e-007
1.20931e-007
1.2092e-007
1.20911e-007
1.20901e-007
1.20891e-007
1.20878e-007
1.20866e-007
1.20854e-007
1.2084e-007
1.20823e-007
1.20812e-007
1.20794e-007
1.20772e-007
1.20758e-007
1.20808e-007
1.20707e-007
1.20685e-007
1.21887e-007
1.21095e-007
1.09398e-007
1.97831e-007
1.37816e-005
0.00187608
1.85211e-008
1.85258e-008
1.85287e-008
1.85317e-008
1.85339e-008
1.85359e-008
1.85402e-008
1.85456e-008
1.85508e-008
1.85518e-008
1.8551e-008
1.8554e-008
1.85577e-008
1.85607e-008
1.8564e-008
1.857e-008
1.85795e-008
1.85858e-008
1.85865e-008
1.85881e-008
1.85924e-008
1.85996e-008
1.86079e-008
1.86111e-008
1.86121e-008
1.86132e-008
1.86122e-008
1.8611e-008
1.86141e-008
1.86193e-008
1.86267e-008
1.86351e-008
1.86358e-008
1.86395e-008
1.86442e-008
1.86483e-008
1.86522e-008
1.86559e-008
1.86595e-008
1.8663e-008
1.86663e-008
1.86694e-008
1.86729e-008
1.86766e-008
1.86804e-008
1.86842e-008
1.86879e-008
1.86916e-008
1.86952e-008
1.86988e-008
1.87023e-008
1.87058e-008
1.87093e-008
1.87127e-008
1.87161e-008
1.87194e-008
1.87226e-008
1.8726e-008
1.87291e-008
1.87324e-008
1.87355e-008
1.87387e-008
1.87419e-008
1.87449e-008
1.87481e-008
1.87511e-008
1.87542e-008
1.87569e-008
1.87602e-008
1.87629e-008
1.87657e-008
1.87695e-008
1.87714e-008
1.87757e-008
1.87766e-008
1.87799e-008
1.87808e-008
1.87827e-008
1.87853e-008
1.87878e-008
1.87907e-008
1.87918e-008
1.87942e-008
1.87969e-008
1.88002e-008
1.88002e-008
1.88025e-008
1.88052e-008
1.88058e-008
1.88082e-008
1.88099e-008
1.88119e-008
1.88133e-008
1.88147e-008
1.88159e-008
1.88171e-008
1.88179e-008
1.8819e-008
1.88196e-008
1.88203e-008
1.88207e-008
1.88211e-008
1.88213e-008
1.88212e-008
1.88211e-008
1.88205e-008
1.88202e-008
1.88189e-008
1.88181e-008
1.88164e-008
1.88149e-008
1.88126e-008
1.88107e-008
1.88082e-008
1.88059e-008
1.88032e-008
1.88003e-008
1.8797e-008
1.8794e-008
1.87908e-008
1.87874e-008
1.87837e-008
1.87799e-008
1.87759e-008
1.87714e-008
1.87662e-008
1.87629e-008
1.87534e-008
1.87241e-008
1.87837e-008
1.86337e-008
1.87709e-008
1.89602e-008
1.66807e-008
1.72665e-008
9.11578e-008
7.77494e-006
0.000756149
0.0172295
4.68381e-009
4.68541e-009
4.68587e-009
4.68629e-009
4.68796e-009
4.69047e-009
4.69241e-009
4.69243e-009
4.69192e-009
4.69261e-009
4.69528e-009
4.69768e-009
4.69832e-009
4.69824e-009
4.69885e-009
4.70093e-009
4.70374e-009
4.70575e-009
4.70773e-009
4.70966e-009
4.71215e-009
4.71291e-009
4.71411e-009
4.71501e-009
4.7165e-009
4.71724e-009
4.71822e-009
4.7201e-009
4.72168e-009
4.72227e-009
4.72398e-009
4.72517e-009
4.72672e-009
4.72851e-009
4.73017e-009
4.73178e-009
4.73336e-009
4.73495e-009
4.73651e-009
4.73806e-009
4.73958e-009
4.74108e-009
4.74256e-009
4.74402e-009
4.74549e-009
4.74704e-009
4.74858e-009
4.75015e-009
4.75165e-009
4.75317e-009
4.75464e-009
4.75612e-009
4.75757e-009
4.75901e-009
4.76044e-009
4.76187e-009
4.76322e-009
4.76463e-009
4.76597e-009
4.76736e-009
4.7687e-009
4.77002e-009
4.77137e-009
4.77262e-009
4.77393e-009
4.77514e-009
4.77643e-009
4.77751e-009
4.77885e-009
4.77988e-009
4.781e-009
4.78239e-009
4.78333e-009
4.7847e-009
4.78525e-009
4.78643e-009
4.78696e-009
4.78793e-009
4.78889e-009