/*--------------------------------*- C++ -*----------------------------------*\
| =========                 |                                                 |
| \\      /  F ield         | OpenFOAM: The Open Source CFD Toolbox           |
|  \\    /   O peration     | Version:  5.x                                   |
|   \\  /    A nd           | Web:      www.OpenFOAM.org                      |
|    \\/     M anipulation  |                                                 |
\*---------------------------------------------------------------------------*/
/*   Windows 32 and 64 bit porting by blueCAPE: http://www.bluecape.com.pt   *\
|  Based on Windows porting (2.0.x v4) by Symscape: http://www.symscape.com   |
\*---------------------------------------------------------------------------*/
FoamFile
{
    version     2.0;
    format      ascii;
    class       volScalarField;
    location    "300";
    object      k;
}
// * * * * * * * * * * * * * * * * * * * * * * * * * * * * * * * * * * * * * //

dimensions      [0 2 -2 0 0 0 0];

internalField   nonuniform List<scalar> 
43900
(
0.000985517
0.000989436
0.000990249
0.000990178
0.000990128
0.000990116
0.000990121
0.000990122
0.000990122
0.000990125
0.000990123
0.000990125
0.000990129
0.000990131
0.000990132
0.000990131
0.000990134
0.000990137
0.000990136
0.000990137
0.000990136
0.000990136
0.000990139
0.000990139
0.000990139
0.00099014
0.000990139
0.000990139
0.000990141
0.0016488
5.60021e-005
3.89325e-005
3.81754e-005
4.08118e-005
4.09677e-005
4.09896e-005
4.09575e-005
4.09569e-005
4.09612e-005
4.09591e-005
4.0963e-005
4.09682e-005
4.09728e-005
4.09745e-005
4.09733e-005
4.09781e-005
4.09819e-005
4.0981e-005
4.09829e-005
4.0982e-005
4.09822e-005
4.09863e-005
4.0986e-005
4.09863e-005
4.09882e-005
4.09864e-005
4.09872e-005
4.09902e-005
0.294351
0.0539746
0.0040967
0.000117598
4.99833e-006
3.08364e-006
2.97847e-006
3.34489e-006
3.3811e-006
3.37566e-006
3.37027e-006
3.37028e-006
3.37195e-006
3.37338e-006
3.37378e-006
3.37446e-006
3.37564e-006
3.37594e-006
3.37638e-006
3.37696e-006
3.37715e-006
3.37776e-006
3.3783e-006
3.37834e-006
3.37878e-006
3.37902e-006
3.37905e-006
3.37956e-006
3.37981e-006
0.879631
0.37631
0.11983
0.0237531
0.00206793
8.20694e-005
3.98874e-006
5.89696e-007
4.57759e-007
4.98916e-007
5.338e-007
5.36181e-007
5.31383e-007
5.30243e-007
5.31142e-007
5.31484e-007
5.31375e-007
5.31468e-007
5.31702e-007
5.31805e-007
5.31895e-007
5.32046e-007
5.32136e-007
5.32207e-007
5.32322e-007
5.32399e-007
5.32481e-007
5.32577e-007
5.32611e-007
1.28978
0.739111
0.394738
0.176449
0.0560607
0.0102942
0.000822006
3.75042e-005
1.7021e-006
2.3007e-007
1.28812e-007
1.26958e-007
1.44969e-007
1.48065e-007
1.45267e-007
1.4503e-007
1.45997e-007
1.45944e-007
1.45745e-007
1.45797e-007
1.45835e-007
1.45848e-007
1.45883e-007
1.4593e-007
1.45966e-007
1.45981e-007
1.45999e-007
1.4603e-007
1.46057e-007
1.54676
0.984025
0.616722
0.369847
0.198718
0.0831879
0.0231554
0.00328028
0.000212405
1.0346e-005
5.50665e-007
9.70903e-008
5.39634e-008
5.50417e-008
6.18864e-008
6.16225e-008
5.94995e-008
5.99514e-008
6.04828e-008
6.04348e-008
6.04941e-008
6.05838e-008
6.05625e-008
6.0546e-008
6.05603e-008
6.05766e-008
6.05978e-008
6.06117e-008
6.06155e-008
1.71267
1.15135
0.774504
0.514928
0.331429
0.198768
0.100562
0.0350582
0.00707014
0.000651093
3.65075e-005
1.95036e-006
1.37023e-007
3.96302e-008
2.89046e-008
3.16311e-008
3.49425e-008
3.35483e-008
3.29496e-008
3.31407e-008
3.30298e-008
3.29739e-008
3.30748e-008
3.31341e-008
3.31198e-008
3.31091e-008
3.31129e-008
3.31178e-008
3.31236e-008
1.8106
1.25794
0.879748
0.614934
0.425067
0.285766
0.181371
0.102207
0.0430718
0.0112302
0.00142976
9.62316e-005
5.55788e-006
3.43422e-007
4.20624e-008
2.13365e-008
1.89115e-008
2.1606e-008
2.18979e-008
2.13833e-008
2.16199e-008
2.16245e-008
2.1453e-008
2.1455e-008
2.15223e-008
2.15468e-008
2.15509e-008
2.15569e-008
2.15597e-008
1.87727
1.33576
0.959356
0.692173
0.498376
0.354801
0.246251
0.162705
0.0975769
0.0466426
0.0140254
0.00218474
0.000173617
1.10608e-005
7.13596e-007
6.1196e-008
1.9564e-008
1.44422e-008
1.51751e-008
1.62396e-008
1.57103e-008
1.57175e-008
1.5872e-008
1.57993e-008
1.5693e-008
1.57162e-008
1.57366e-008
1.57412e-008
1.57442e-008
1.90353
1.3773
1.00797
0.743422
0.549979
0.405622
0.295725
0.210451
0.143137
0.0893141
0.0462674
0.0151845
0.00268197
0.000243
1.70549e-005
1.18758e-006
9.57773e-008
1.85304e-008
1.20216e-008
1.13345e-008
1.23909e-008
1.22753e-008
1.22762e-008
1.24235e-008
1.24388e-008
1.23598e-008
1.2343e-008
1.2358e-008
1.23624e-008
1.90348
1.3939
1.03353
0.773832
0.582948
0.439887
0.330575
0.245441
0.177917
0.123487
0.0791278
0.0430722
0.0148752
0.0028279
0.000282905
2.1849e-005
1.66108e-006
1.36851e-007
2.01464e-008
1.10204e-008
9.33189e-009
9.918e-009
9.96428e-009
9.88779e-009
9.98772e-009
1.01192e-008
1.00914e-008
1.00547e-008
1.00602e-008
1.8945
1.40131
1.05001
0.795228
0.607
0.465375
0.35686
0.272186
0.204916
0.150555
0.105977
0.0690865
0.0386783
0.0138399
0.00275533
0.00029826
2.52346e-005
2.09131e-006
1.82135e-007
2.37341e-008
9.93315e-009
8.15572e-009
8.36045e-009
8.40622e-009
8.24605e-009
8.28869e-009
8.4066e-009
8.44963e-009
8.42723e-009
1.87253
1.39717
1.05618
0.807585
0.623055
0.483651
0.3765
0.2927
0.226021
0.172061
0.127703
0.0907589
0.0597588
0.033846
0.0122828
0.00248858
0.000285201
2.62115e-005
2.35921e-006
2.20289e-007
2.72706e-008
9.35895e-009
7.38501e-009
7.28744e-009
7.47032e-009
7.32223e-009
7.18096e-009
7.22463e-009
7.29221e-009
1.83995
1.38351
1.05394
0.812373
0.632359
0.495894
0.390674
0.308185
0.242429
0.189142
0.145268
0.10862
0.0776534
0.0513293
0.029057
0.0102864
0.00205741
0.000246675
2.47279e-005
2.43769e-006
2.46784e-007
3.07699e-008
9.19793e-009
6.90887e-009
6.52734e-009
6.81516e-009
6.74396e-009
6.61356e-009
6.58865e-009
1.79907
1.36172
1.04481
0.811114
0.636236
0.503248
0.40044
0.319642
0.255108
0.202729
0.159544
0.123405
0.0927615
0.0665159
0.043938
0.0246717
0.00841916
0.00165571
0.000208962
2.2916e-005
2.47786e-006
2.73641e-007
3.54056e-008
9.44271e-009
6.65252e-009
6.05998e-009
6.3142e-009
6.34955e-009
6.30078e-009
1.75163
1.33381
1.02969
0.804913
0.635698
0.506639
0.406585
0.327785
0.26472
0.213449
0.171115
0.135635
0.105485
0.079558
0.0570733
0.0375279
0.0206994
0.00680638
0.00132051
0.000175698
2.09628e-005
2.47276e-006
2.96817e-007
4.01944e-008
1.00281e-008
6.3227e-009
5.60865e-009
5.82073e-009
5.99273e-009
1.69917
1.30116
1.01023
0.794379
0.631662
0.506748
0.409744
0.333161
0.271761
0.221759
0.180413
0.145711
0.116171
0.0907022
0.0685104
0.0490411
0.0319515
0.0171184
0.00541177
0.0010413
0.000146626
1.90045e-005
2.43797e-006
3.16734e-007
4.5393e-008
1.06656e-008
6.0002e-009
5.17294e-009
5.25735e-009
1.64281
1.26477
0.987323
0.780731
0.624467
0.504445
0.410641
0.336455
0.276839
0.228203
0.187926
0.154077
0.125223
0.100301
0.0785207
0.0593115
0.0422795
0.0271963
0.0140107
0.00426418
0.000824291
0.000123857
1.74331e-005
2.42818e-006
3.41438e-007
5.19737e-008
1.15723e-008
5.76445e-009
4.81728e-009
1.58327
1.22533
0.961592
0.764514
0.614953
0.499726
0.409566
0.337958
0.280295
0.233157
0.194041
0.161109
0.132993
0.108666
0.0873606
0.0685059
0.0516898
0.0366362
0.0232014
0.0113956
0.00335899
0.000660446
0.000106112
1.61899e-005
2.44502e-006
3.71598e-007
5.97761e-008
1.28329e-008
5.67231e-009
1.52123
1.18341
0.933517
0.746136
0.603468
0.493214
0.406744
0.337813
0.282219
0.236676
0.198822
0.1669
0.139601
0.11594
0.0951748
0.0767476
0.0602442
0.0453693
0.0319341
0.0198597
0.00920435
0.00265096
0.000535954
9.24249e-005
1.52856e-005
2.5033e-006
4.10683e-007
7.00011e-008
1.4576e-008
1.45725
1.13947
0.903494
0.725938
0.590311
0.485179
0.402496
0.336529
0.283031
0.239138
0.202581
0.171697
0.145244
0.122281
0.102096
0.084147
0.0680255
0.0534299
0.0401502
0.0280644
0.0171574
0.00744325
0.00210839
0.000443013
8.20614e-005
1.46476e-005
2.57984e-006
4.53524e-007
8.03487e-008
1.39179
1.0939
0.871848
0.704184
0.575692
0.475779
0.396967
0.333904
0.282682
0.240537
0.205358
0.175583
0.150031
0.127811
0.108243
0.0908082
0.0751106
0.0608518
0.0478136
0.0358506
0.0248922
0.0149857
0.00605183
0.00169723
0.000372003
7.37251e-005
1.41097e-005
2.66049e-006
4.88985e-007
1.32535
1.04712
0.838903
0.681137
0.559829
0.465206
0.390346
0.330283
0.281419
0.241016
0.207252
0.178615
0.153994
0.132548
0.113631
0.0967459
0.081512
0.0676372
0.0549027
0.0431516
0.0322855
0.022273
0.0131764
0.00509119
0.00142826
0.000326252
6.85934e-005
1.39953e-005
2.75511e-006
1.25841
0.999495
0.804964
0.657045
0.542925
0.453623
0.382754
0.325724
0.279186
0.240674
0.208376
0.180921
0.157269
0.136626
0.118382
0.102068
0.0873202
0.0738569
0.0614634
0.0499795
0.0392937
0.0293429
0.0201216
0.0116536
0.00441616
0.00125136
0.000297745
6.60357e-005
1.39512e-005
1.19142
0.951394
0.770327
0.632148
0.525176
0.441192
0.374336
0.320376
0.276226
0.239613
0.208768
0.182517
0.159855
0.140037
0.12249
0.106771
0.0925337
0.0795092
0.0674891
0.0563145
0.0458689
0.0360746
0.0268936
0.0183226
0.0103803
0.00390152
0.00112626
0.000279608
6.38037e-005
1.12481
0.903168
0.735277
0.606678
0.506772
0.42807
0.365216
0.31433
0.272569
0.23783
0.208533
0.183512
0.161861
0.142887
0.126053
0.110941
0.0972277
0.0846562
0.0730276
0.0621871
0.0520178
0.0424354
0.033387
0.0248489
0.0168255
0.00933109
0.00350263
0.00103582
0.00026193
1.05898
0.855141
0.700076
0.580849
0.487888
0.414404
0.355522
0.3077
0.268337
0.235505
0.207763
0.183959
0.163327
0.145207
0.129096
0.114606
0.101429
0.0893249
0.0781037
0.0676168
0.0577493
0.0484151
0.0395544
0.0311318
0.023136
0.0155782
0.0084665
0.00319023
0.000944654
0.994299
0.807608
0.664965
0.55486
0.46869
0.40033
0.345367
0.30058
0.263599
0.232656
0.206422
0.183877
0.16429
0.14704
0.131667
0.11781
0.105182
0.0935563
0.0827544
0.0726345
0.0630856
0.0540226
0.045383
0.0371252
0.0292275
0.0216894
0.0145283
0.00774969
0.00287112
0.931073
0.760824
0.630154
0.528883
0.449322
0.385973
0.334859
0.293068
0.25845
0.229398
0.204702
0.183444
0.164881
0.148497
0.133863
0.120639
0.108561
0.0974166
0.0870382
0.0772915
0.0680704
0.0592919
0.0508935
0.0428301
0.0350743
0.0276158
0.0204601
0.0136751
0.0069912
0.869567
0.715006
0.595824
0.50307
0.42991
0.371437
0.324087
0.285239
0.252951
0.225766
0.202584
0.182563
0.165038
0.149545
0.135668
0.123096
0.111583
0.100934
0.0909905
0.0816273
0.0727442
0.064262
0.0561194
0.0482708
0.0406856
0.0333474
0.0262553
0.0194405
0.0128571
0.809996
0.670337
0.562124
0.477543
0.410557
0.356812
0.313127
0.27716
0.247165
0.221829
0.200156
0.181382
0.164914
0.1503
0.137176
0.125256
0.114312
0.104163
0.0946606
0.0856882
0.0771512
0.0689743
0.0610985
0.0534789
0.0460837
0.038893
0.0319004
0.0251157
0.0185811
0.752532
0.626959
0.529175
0.452405
0.391349
0.342167
0.302041
0.268886
0.241141
0.21763
0.197456
0.179931
0.164525
0.150792
0.138426
0.127164
0.116796
0.107152
0.0980976
0.0895225
0.0813383
0.0734739
0.0658732
0.0584927
0.0513002
0.0442745
0.0374053
0.0306944
0.0241677
0.697309
0.584989
0.497074
0.427734
0.372351
0.327559
0.290875
0.260454
0.234911
0.213194
0.1945
0.17821
0.163839
0.151004
0.139416
0.128829
0.119051
0.109927
0.101333
0.0931669
0.0853457
0.0778032
0.0704863
0.0633535
0.0563735
0.0495246
0.0427945
0.0361808
0.0296935
0.644427
0.544514
0.465895
0.403595
0.353615
0.313029
0.279663
0.251894
0.228498
0.208543
0.191313
0.176252
0.162924
0.150982
0.14018
0.13028
0.121106
0.112518
0.104399
0.0966551
0.0892101
0.0820015
0.0749793
0.0681041
0.0613459
0.0546833
0.0481033
0.041601
0.0351801
0.59396
0.505604
0.4357
0.380036
0.335183
0.29861
0.26843
0.243225
0.22192
0.203693
0.187908
0.174073
0.161799
0.150781
0.14076
0.131551
0.122993
0.114953
0.107325
0.10002
0.092967
0.0861071
0.0793932
0.0727878
0.0662621
0.0597956
0.0533748
0.046994
0.0406544
0.545963
0.468314
0.406537
0.3571
0.317086
0.284327
0.257195
0.23446
0.215182
0.198643
0.184283
0.171664
0.16044
0.150339
0.141125
0.132632
0.124712
0.117244
0.110129
0.103285
0.0966459
0.0901549
0.0837676
0.0774481
0.0711688
0.0649096
0.0586576
0.0524066
0.0461572
0.500476
0.432691
0.378451
0.334826
0.299357
0.270204
0.245973
0.225605
0.208287
0.193393
0.180431
0.169016
0.15884
0.149655
0.141258
0.133508
0.126255
0.119388
0.112817
0.106465
0.100268
0.0941733
0.088138
0.082127
0.0761133
0.0700772
0.064006
0.0578936
0.0517406
0.457531
0.398778
0.351485
0.313251
0.282026
0.256262
0.234777
0.216668
0.201235
0.187935
0.176342
0.166116
0.156987
0.148734
0.141176
0.134182
0.127618
0.121382
0.115388
0.109563
0.103846
0.0981845
0.0925359
0.0868651
0.0811445
0.0753541
0.0694807
0.0635185
0.0574686
0.417156
0.366614
0.325683
0.292416
0.265127
0.242529
0.223628
0.207659
0.194027
0.182265
0.172003
0.162947
0.154859
0.147547
0.140854
0.134628
0.128778
0.123206
0.117828
0.112574
0.107382
0.102201
0.0969857
0.091699
0.0863112
0.0807999
0.0751505
0.0693565
0.0634194
0.379373
0.336243
0.301094
0.27237
0.248705
0.22904
0.212551
0.198596
0.186671
0.176379
0.167404
0.159489
0.152427
0.146048
0.140208
0.134773
0.12968
0.124815
0.1201
0.115468
0.110859
0.106218
0.101498
0.0966558
0.0916576
0.0864759
0.0810917
0.0754956
0.0696886
0.344199
0.307706
0.277769
0.253167
0.232811
0.215843
0.201586
0.189509
0.179189
0.17029
0.162544
0.155731
0.149671
0.144214
0.139234
0.134619
0.130291
0.12616
0.122151
0.118196
0.114234
0.110206
0.106058
0.101741
0.097212
0.092434
0.0873795
0.082032
0.0763882
0.311646
0.281044
0.255766
0.234871
0.217509
0.202999
0.19079
0.180447
0.17162
0.164029
0.157445
0.151682
0.146587
0.14203
0.137902
0.134114
0.130544
0.127176
0.123913
0.120687
0.117437
0.1141
0.110615
0.106923
0.102968
0.0986971
0.0940689
0.0890522
0.0836329
0.281718
0.256297
0.235146
0.217555
0.202882
0.190591
0.180244
0.171488
0.164037
0.157656
0.152157
0.147382
0.1432
0.139502
0.136193
0.133191
0.13041
0.12781
0.125313
0.122856
0.120374
0.117804
0.115076
0.112119
0.108862
0.105232
0.101163
0.0965993
0.0915059
0.254412
0.233504
0.215976
0.201306
0.189025
0.178724
0.170057
0.162742
0.156546
0.151276
0.146775
0.142913
0.13958
0.136684
0.134148
0.131904
0.129894
0.128019
0.12629
0.124617
0.12294
0.121194
0.119305
0.117192
0.114764
0.111926
0.108579
0.104633
0.100013
0.229716
0.212703
0.198328
0.186221
0.176057
0.16753
0.160372
0.154358
0.149299
0.145038
0.141445
0.138412
0.135851
0.133685
0.131854
0.130302
0.12898
0.127834
0.126827
0.125917
0.125045
0.124147
0.123149
0.121964
0.120484
0.118589
0.116141
0.113004
0.109045
0.207614
0.19393
0.18228
0.172411
0.164113
0.157165
0.15136
0.146519
0.142488
0.139138
0.136362
0.134071
0.132194
0.130672
0.129459
0.128515
0.127805
0.127303
0.126941
0.126743
0.126635
0.126565
0.126465
0.12625
0.125803
0.124972
0.12359
0.121469
0.118385
0.18808
0.177216
0.167909
0.159988
0.153338
0.147801
0.143216
0.139438
0.136339
0.133811
0.131764
0.130126
0.12884
0.127865
0.127169
0.126728
0.126522
0.126546
0.126755
0.12716
0.127724
0.12841
0.129161
0.129901
0.130512
0.130808
0.130619
0.129734
0.127743
0.171075
0.162583
0.155281
0.149061
0.143875
0.13961
0.136138
0.133336
0.131092
0.129311
0.127915
0.126845
0.126058
0.125527
0.125239
0.125186
0.125351
0.125764
0.126412
0.127292
0.128399
0.129718
0.131217
0.132835
0.134473
0.135962
0.137076
0.137412
0.136697
0.156535
0.150025
0.14444
0.139713
0.135843
0.132746
0.130309
0.128423
0.12698
0.125893
0.125089
0.124518
0.124149
0.123965
0.123979
0.124174
0.124594
0.125256
0.126175
0.127369
0.128848
0.130635
0.132721
0.135078
0.137636
0.140253
0.142703
0.144527
0.145103
0.144365
0.139499
0.135389
0.131986
0.129322
0.127321
0.125878
0.124883
0.124225
0.123814
0.123578
0.12347
0.123463
0.123551
0.12376
0.124109
0.124638
0.125387
0.126399
0.127721
0.129398
0.131454
0.133925
0.136819
0.140115
0.143713
0.147446
0.150798
0.153099
0.134419
0.130913
0.128077
0.125871
0.124337
0.123401
0.122951
0.12287
0.123029
0.123336
0.123693
0.124037
0.124363
0.124676
0.125011
0.125411
0.125936
0.126652
0.127624
0.128919
0.130607
0.132731
0.135347
0.138526
0.142301
0.146639
0.151493
0.156315
0.160651
0.126507
0.124124
0.122402
0.1213
0.12086
0.121002
0.121592
0.122508
0.123574
0.124677
0.125725
0.126658
0.127438
0.128066
0.12858
0.129037
0.129517
0.130111
0.130911
0.132014
0.133511
0.135487
0.138028
0.141212
0.145138
0.149866
0.155546
0.161604
0.168237
0.120399
0.118945
0.118216
0.118164
0.118815
0.120093
0.121833
0.123865
0.12604
0.12821
0.130238
0.132032
0.133532
0.134723
0.135633
0.136323
0.136881
0.137419
0.138057
0.138916
0.140118
0.14178
0.144023
0.146973
0.150761
0.155534
0.161583
0.168395
0.177516
0.115844
0.115166
0.115341
0.116309
0.118105
0.120608
0.12365
0.127072
0.130673
0.134264
0.137682
0.140797
0.143515
0.145793
0.147633
0.149085
0.150233
0.151182
0.152055
0.153006
0.15419
0.15574
0.157797
0.160541
0.164033
0.168676
0.17467
0.182063
0.193288
0.112588
0.112565
0.113583
0.115587
0.118586
0.122457
0.127044
0.132145
0.137552
0.143051
0.148445
0.153566
0.158283
0.162515
0.166236
0.169473
0.1723
0.174825
0.177185
0.17952
0.181976
0.184735
0.187956
0.191871
0.196234
0.202146
0.208287
0.218343
0.228222
0.110387
0.110925
0.112761
0.115818
0.12011
0.125524
0.131891
0.139017
0.146686
0.154673
0.162762
0.170758
0.178503
0.185889
0.192871
0.199468
0.205762
0.211888
0.218023
0.224377
0.23119
0.238736
0.247126
0.256888
0.267411
0.281462
0.293447
0.319969
0.319838
0.10902
0.110043
0.112686
0.116827
0.122515
0.129632
0.138032
0.147536
0.15794
0.169031
0.180594
0.192433
0.204388
0.216354
0.228297
0.240266
0.252394
0.264897
0.278077
0.292311
0.308065
0.325914
0.346494
0.370933
0.399353
0.436309
0.473329
0.549323
0.545746
0.108297
0.109743
0.11319
0.118452
0.125619
0.134592
0.145255
0.157463
0.171047
0.185831
0.201634
0.218296
0.235694
0.253771
0.272555
0.292183
0.312907
0.335112
0.359328
0.386244
0.416767
0.452032
0.493615
0.543673
0.604831
0.683597
0.780041
0.935931
0.980479
0.108093
0.109901
0.114166
0.120567
0.12929
0.140246
0.153368
0.16856
0.185716
0.204727
0.225486
0.247915
0.271986
0.297752
0.325378
0.355169
0.387597
0.423332
0.463281
0.50863
0.561007
0.622436
0.696099
0.785665
0.898567
1.04233
1.23928
1.49796
1.69347
0.00099014
0.000990142
0.000990145
0.000990144
0.000990138
0.000990138
0.000990146
0.000990152
0.000990151
0.000990142
0.000990138
0.000990145
0.000990155
0.000990156
0.000990146
0.000990137
0.000990137
0.000990142
0.000990142
0.000990137
0.000990133
0.000990134
0.000990139
0.000990142
0.000990143
0.000990145
0.000990146
0.000990139
0.000990134
0.000990134
0.000990138
0.000990146
0.000990146
0.000990146
0.000990146
0.000990146
0.000990146
0.000990146
0.000990146
0.000990146
0.000990146
0.000990146
0.000990147
0.000990146
0.000990146
0.000990146
0.000990147
0.000990147
0.000990147
0.000990148
0.000990148
0.000990148
0.000990148
0.000990148
0.000990149
0.000990149
0.000990149
0.00099015
0.00099015
0.000990151
0.000990151
0.000990151
0.000990152
0.000990152
0.000990152
0.000990153
0.000990153
0.000990153
0.000990154
0.000990154
0.000990154
0.000990155
0.000990154
0.000990155
0.000990154
0.000990155
0.000990154
0.000990154
0.000990154
0.000990152
0.000990154
0.000990153
0.000990154
0.000990156
0.000990157
0.000990156
0.000990154
0.000990155
0.000990155
0.000990157
0.000990158
0.000990158
0.000990159
0.000990159
0.000990159
0.000990159
0.000990158
0.000990158
0.000990158
0.000990158
0.000990158
0.000990158
0.000990158
0.000990158
0.000990158
0.000990158
0.000990158
0.000990158
0.000990158
0.000990157
0.000990157
0.000990157
0.000990157
0.000990157
0.000990156
0.000990156
0.000990156
0.000990156
0.000990156
0.000990156
0.000990156
0.000990156
0.000990156
0.000990156
0.000990157
0.000990157
0.000990158
0.000990158
0.000990158
0.000990159
0.00099016
0.000990161
0.000990161
0.000990165
0.000990164
0.000990168
0.000990166
0.000990176
0.00100817
4.09896e-005
4.09921e-005
4.09966e-005
4.09939e-005
4.09865e-005
4.09877e-005
4.09989e-005
4.10068e-005
4.10033e-005
4.09913e-005
4.09871e-005
4.09974e-005
4.10114e-005
4.10107e-005
4.0996e-005
4.09847e-005
4.09862e-005
4.0994e-005
4.09932e-005
4.09867e-005
4.09823e-005
4.09849e-005
4.09919e-005
4.09952e-005
4.09969e-005
4.09996e-005
4.09995e-005
4.09903e-005
4.09839e-005
4.0984e-005
4.09903e-005
4.10008e-005
4.10013e-005
4.1001e-005
4.10009e-005
4.10009e-005
4.10009e-005
4.10011e-005
4.10012e-005
4.10014e-005
4.10018e-005
4.10021e-005
4.1002e-005
4.10014e-005
4.10012e-005
4.10016e-005
4.10021e-005
4.10029e-005
4.10033e-005
4.10039e-005
4.10042e-005
4.10046e-005
4.10051e-005
4.10055e-005
4.1006e-005
4.10066e-005
4.1007e-005
4.10077e-005
4.10081e-005
4.10088e-005
4.10093e-005
4.10098e-005
4.10106e-005
4.10108e-005
4.10116e-005
4.10117e-005
4.10128e-005
4.10124e-005
4.10139e-005
4.10135e-005
4.10136e-005
4.10155e-005
4.10135e-005
4.10153e-005
4.10144e-005
4.10157e-005
4.10141e-005
4.10135e-005
4.10143e-005
4.10114e-005
4.10142e-005
4.10125e-005
4.10145e-005
4.10176e-005
4.10186e-005
4.10173e-005
4.10143e-005
4.10163e-005
4.1016e-005
4.10184e-005
4.10201e-005
4.10209e-005
4.10213e-005
4.10214e-005
4.10213e-005
4.10214e-005
4.1021e-005
4.10212e-005
4.1021e-005
4.1021e-005
4.10209e-005
4.10207e-005
4.10206e-005
4.10205e-005
4.10204e-005
4.10202e-005
4.102e-005
4.10198e-005
4.10196e-005
4.10194e-005
4.10192e-005
4.10189e-005
4.10185e-005
4.10182e-005
4.10177e-005
4.10172e-005
4.10167e-005
4.10163e-005
4.10163e-005
4.10164e-005
4.10166e-005
4.10167e-005
4.1017e-005
4.10174e-005
4.10178e-005
4.1018e-005
4.10187e-005
4.10193e-005
4.10197e-005
4.10212e-005
4.1022e-005
4.10242e-005
4.10242e-005
4.10309e-005
4.1027e-005
4.10342e-005
4.10437e-005
4.10628e-005
4.39023e-005
3.37993e-006
3.38052e-006
3.38052e-006
3.37981e-006
3.37996e-006
3.38139e-006
3.38242e-006
3.38173e-006
3.38036e-006
3.37992e-006
3.38124e-006
3.38284e-006
3.38263e-006
3.38108e-006
3.37994e-006
3.38064e-006
3.38227e-006
3.38307e-006
3.38313e-006
3.38341e-006
3.38417e-006
3.38471e-006
3.38466e-006
3.38449e-006
3.38464e-006
3.38475e-006
3.38464e-006
3.38438e-006
3.38438e-006
3.38461e-006
3.38531e-006
3.38536e-006
3.38535e-006
3.38551e-006
3.38572e-006
3.38584e-006
3.38594e-006
3.38604e-006
3.38615e-006
3.38627e-006
3.38636e-006
3.3864e-006
3.38632e-006
3.38629e-006
3.38637e-006
3.38655e-006
3.38673e-006
3.38695e-006
3.3871e-006
3.38727e-006
3.38741e-006
3.38756e-006
3.38768e-006
3.3878e-006
3.38794e-006
3.38808e-006
3.38815e-006
3.38829e-006
3.38836e-006
3.38849e-006
3.38858e-006
3.38867e-006
3.3888e-006
3.38885e-006
3.38898e-006
3.38904e-006
3.38916e-006
3.38918e-006
3.38933e-006
3.38934e-006
3.38941e-006
3.38959e-006
3.3894e-006
3.3897e-006
3.38961e-006
3.38973e-006
3.38979e-006
3.38975e-006
3.38995e-006
3.38988e-006
3.39006e-006
3.38995e-006
3.39022e-006
3.39039e-006
3.39046e-006
3.39059e-006
3.39068e-006
3.39086e-006
3.39083e-006
3.39099e-006
3.39103e-006
3.39116e-006
3.3913e-006
3.39136e-006
3.39139e-006
3.39148e-006
3.39139e-006
3.39151e-006
3.39146e-006
3.39148e-006
3.39148e-006
3.39145e-006
3.39144e-006
3.39139e-006
3.39137e-006
3.39129e-006
3.39129e-006
3.39117e-006
3.39113e-006
3.39102e-006
3.39095e-006
3.3908e-006
3.39074e-006
3.39057e-006
3.39049e-006
3.39031e-006
3.39021e-006
3.39007e-006
3.39002e-006
3.38997e-006
3.38992e-006
3.38983e-006
3.38978e-006
3.38975e-006
3.38967e-006
3.3896e-006
3.3896e-006
3.38938e-006
3.38939e-006
3.38966e-006
3.38915e-006
3.38978e-006
3.38964e-006
3.38993e-006
3.38941e-006
3.40258e-006
3.24344e-006
3.08992e-006
1.22275e-005
5.32711e-007
5.32812e-007
5.3282e-007
5.32879e-007
5.33069e-007
5.33196e-007
5.33143e-007
5.33025e-007
5.33074e-007
5.33302e-007
5.33477e-007
5.33469e-007
5.33311e-007
5.33265e-007
5.33352e-007
5.33529e-007
5.33766e-007
5.33912e-007
5.34023e-007
5.34082e-007
5.34042e-007
5.34043e-007
5.34093e-007
5.34268e-007
5.34366e-007
5.34399e-007
5.34356e-007
5.3428e-007
5.34239e-007
5.34258e-007
5.34346e-007
5.34504e-007
5.34639e-007
5.34698e-007
5.34758e-007
5.34807e-007
5.34853e-007
5.34899e-007
5.34943e-007
5.34984e-007
5.35017e-007
5.35041e-007
5.35067e-007
5.35112e-007
5.3517e-007
5.3523e-007
5.35289e-007
5.35348e-007
5.35402e-007
5.35457e-007
5.35509e-007
5.35561e-007
5.35611e-007
5.3566e-007
5.3571e-007
5.35757e-007
5.358e-007
5.35845e-007
5.35887e-007
5.35931e-007
5.35973e-007
5.36016e-007
5.36059e-007
5.361e-007
5.36142e-007
5.36184e-007
5.36221e-007
5.36266e-007
5.36302e-007
5.3634e-007
5.36381e-007
5.36424e-007
5.36461e-007
5.36522e-007
5.36537e-007
5.36571e-007
5.36598e-007
5.36639e-007
5.36676e-007
5.36699e-007
5.36768e-007
5.36787e-007
5.36832e-007
5.36854e-007
5.36889e-007
5.36906e-007
5.36926e-007
5.36964e-007
5.36985e-007
5.37017e-007
5.37049e-007
5.37069e-007
5.37095e-007
5.37119e-007
5.37139e-007
5.37166e-007
5.3717e-007
5.37197e-007
5.37201e-007
5.37214e-007
5.37221e-007
5.37225e-007
5.37226e-007
5.37222e-007
5.37221e-007
5.37206e-007
5.37206e-007
5.37178e-007
5.37167e-007
5.37136e-007
5.37116e-007
5.37073e-007
5.3705e-007
5.37008e-007
5.36977e-007
5.3693e-007
5.36889e-007
5.3684e-007
5.36799e-007
5.36757e-007
5.3671e-007
5.36655e-007
5.36603e-007
5.36552e-007
5.3649e-007
5.36417e-007
5.36363e-007
5.36291e-007
5.36249e-007
5.36043e-007
5.36613e-007
5.35775e-007
5.35481e-007
5.45165e-007
5.38432e-007
4.64209e-007
1.36754e-006
0.00016173
0.0145451
1.46091e-007
1.46124e-007
1.46145e-007
1.46166e-007
1.46184e-007
1.46203e-007
1.46236e-007
1.46275e-007
1.46305e-007
1.46312e-007
1.4631e-007
1.46335e-007
1.46364e-007
1.46382e-007
1.4641e-007
1.46457e-007
1.46524e-007
1.46566e-007
1.46574e-007
1.46591e-007
1.46632e-007
1.46679e-007
1.46736e-007
1.46752e-007
1.46761e-007
1.46767e-007
1.4676e-007
1.4676e-007
1.46788e-007
1.46822e-007
1.46874e-007
1.46924e-007
1.4693e-007
1.46959e-007
1.46994e-007
1.47024e-007
1.47054e-007
1.47082e-007
1.47109e-007
1.47135e-007
1.4716e-007
1.47184e-007
1.47211e-007
1.47239e-007
1.47267e-007
1.47295e-007
1.47322e-007
1.4735e-007
1.47376e-007
1.47403e-007
1.47429e-007
1.47455e-007
1.4748e-007
1.47506e-007
1.47531e-007
1.47556e-007
1.4758e-007
1.47604e-007
1.47628e-007
1.47652e-007
1.47676e-007
1.47699e-007
1.47724e-007
1.47746e-007
1.4777e-007
1.47792e-007
1.47816e-007
1.47835e-007
1.47861e-007
1.4788e-007
1.47901e-007
1.4793e-007
1.47943e-007
1.47975e-007
1.47981e-007
1.48006e-007
1.48014e-007
1.48027e-007
1.48048e-007
1.48068e-007
1.48088e-007
1.48096e-007
1.48114e-007
1.48133e-007
1.48157e-007
1.48159e-007
1.48176e-007
1.48194e-007
1.482e-007
1.48216e-007
1.48227e-007
1.48242e-007
1.48253e-007
1.48264e-007
1.48272e-007
1.4828e-007
1.48286e-007
1.48293e-007
1.48297e-007
1.48303e-007
1.48306e-007
1.48308e-007
1.48309e-007
1.48309e-007
1.48307e-007
1.48304e-007
1.483e-007
1.48292e-007
1.48286e-007
1.48274e-007
1.48264e-007
1.48248e-007
1.48233e-007
1.48215e-007
1.48198e-007
1.48178e-007
1.48156e-007
1.48132e-007
1.48109e-007
1.48085e-007
1.4806e-007
1.48032e-007
1.48004e-007
1.47974e-007
1.4794e-007
1.47902e-007
1.47894e-007
1.47792e-007
1.47426e-007
1.48348e-007
1.46114e-007
1.48284e-007
1.50535e-007
1.19098e-007
1.37279e-007
1.24394e-006
0.000139071
0.00950437
0.13375
6.0628e-008
6.06476e-008
6.06524e-008
6.06589e-008
6.06818e-008
6.07107e-008
6.07275e-008
6.07241e-008
6.072e-008
6.07338e-008
6.07673e-008
6.07898e-008
6.07932e-008
6.07918e-008
6.08002e-008
6.08273e-008
6.08583e-008
6.08831e-008
6.09075e-008
6.09311e-008
6.09568e-008
6.09645e-008
6.0976e-008
6.09869e-008
6.10014e-008
6.10101e-008
6.10242e-008
6.10471e-008
6.10615e-008
6.10688e-008
6.10889e-008
6.11017e-008
6.11213e-008
6.11402e-008
6.11585e-008
6.11767e-008
6.11949e-008
6.12131e-008
6.1231e-008
6.1249e-008
6.12666e-008
6.1284e-008
6.13009e-008
6.13173e-008
6.1334e-008
6.13518e-008
6.13695e-008
6.13875e-008
6.14048e-008
6.14222e-008
6.14392e-008
6.14562e-008
6.14728e-008
6.14893e-008
6.15057e-008
6.15221e-008
6.15377e-008
6.15539e-008
6.15692e-008
6.15851e-008
6.16005e-008
6.16155e-008
6.1631e-008
6.16452e-008
6.16602e-008
6.1674e-008
6.16887e-008
6.17011e-008
6.17162e-008
6.17279e-008
6.17408e-008
6.17559e-008
6.17679e-008
6.17823e-008
6.17899e-008
6.18018e-008
6.18094e-008
6.18205e-008
6.18305e-008
6.18445e-008
6.18587e-008
6.18665e-008
6.18773e-008
6.18863e-008
6.18994e-008
6.19047e-008
6.1914e-008
6.19231e-008
6.19322e-008
6.19385e-008
6.19438e-008
6.19563e-008
6.19663e-008
6.19732e-008
6.19777e-008
6.19824e-008
6.19855e-008
6.19896e-008
6.19923e-008
6.1995e-008
6.19969e-008
6.19983e-008
6.1999e-008
6.19991e-008
6.19987e-008
6.19973e-008
6.19963e-008
6.19936e-008
6.19909e-008
6.19868e-008
6.19824e-008
6.19764e-008
6.19697e-008
6.1961e-008
6.19524e-008
6.19418e-008
6.19303e-008
6.19169e-008
6.19038e-008
6.189e-008
6.1875e-008
6.18581e-008
6.18406e-008
6.18201e-008
6.18e-008
6.17695e-008
6.16404e-008
6.18005e-008
6.22617e-008
6.03367e-008
6.42358e-008
6.10111e-008
5.43309e-008
1.37947e-007
4.0389e-006
0.000270979
0.0100422
0.107685
0.480497
3.31405e-008
3.31489e-008
3.31539e-008
3.31657e-008
3.31795e-008
3.31867e-008
3.3189e-008
3.31932e-008
3.32067e-008
3.3224e-008
3.32366e-008
3.32399e-008
3.32413e-008
3.32484e-008
3.32655e-008
3.32857e-008
3.32983e-008
3.33142e-008
3.33299e-008
3.3346e-008
3.3358e-008
3.33645e-008
3.33701e-008
3.33816e-008
3.33915e-008
3.34031e-008
3.34176e-008
3.34306e-008
3.34398e-008
3.3451e-008
3.3462e-008
3.3475e-008
3.34915e-008
3.35047e-008
3.35184e-008
3.35318e-008
3.35446e-008
3.35574e-008
3.35702e-008
3.35829e-008
3.35957e-008
3.36083e-008
3.36206e-008
3.36332e-008
3.36461e-008
3.36584e-008
3.36706e-008
3.36836e-008
3.36965e-008
3.37094e-008
3.37219e-008
3.37343e-008
3.37466e-008
3.37587e-008
3.37708e-008
3.37828e-008
3.37945e-008
3.38061e-008
3.38175e-008
3.38289e-008
3.384e-008
3.38511e-008
3.38618e-008
3.38725e-008
3.38828e-008
3.38933e-008
3.39029e-008
3.39136e-008
3.39225e-008
3.39325e-008
3.3942e-008
3.39513e-008
3.3962e-008
3.39718e-008
3.39795e-008
3.39879e-008
3.3996e-008
3.4004e-008
3.4012e-008
3.40215e-008
3.40298e-008
3.40373e-008
3.40429e-008
3.40489e-008
3.4056e-008
3.40621e-008
3.407e-008
3.40753e-008
3.40803e-008
3.40863e-008
3.40936e-008
3.40999e-008
3.4104e-008
3.41077e-008
3.41119e-008
3.41164e-008
3.41198e-008
3.41233e-008
3.41257e-008
3.41281e-008
3.41298e-008
3.41311e-008
3.41319e-008
3.41322e-008
3.41321e-008
3.41313e-008
3.41307e-008
3.41294e-008
3.41279e-008
3.41257e-008
3.41233e-008
3.412e-008
3.41164e-008
3.41114e-008