/*--------------------------------*- C++ -*----------------------------------*\
| =========                 |                                                 |
| \\      /  F ield         | OpenFOAM: The Open Source CFD Toolbox           |
|  \\    /   O peration     | Version:  5.x                                   |
|   \\  /    A nd           | Web:      www.OpenFOAM.org                      |
|    \\/     M anipulation  |                                                 |
\*---------------------------------------------------------------------------*/
/*   Windows 32 and 64 bit porting by blueCAPE: http://www.bluecape.com.pt   *\
|  Based on Windows porting (2.0.x v4) by Symscape: http://www.symscape.com   |
\*---------------------------------------------------------------------------*/
FoamFile
{
    version     2.0;
    format      ascii;
    class       volScalarField;
    location    "300";
    object      nut;
}
// * * * * * * * * * * * * * * * * * * * * * * * * * * * * * * * * * * * * * //

dimensions      [0 2 -1 0 0 0 0];

internalField   nonuniform List<scalar> 
43900
(
5.71599e-005
5.80008e-005
5.80695e-005
5.80643e-005
5.80596e-005
5.80586e-005
5.8059e-005
5.8059e-005
5.80591e-005
5.80593e-005
5.80591e-005
5.80593e-005
5.80596e-005
5.80598e-005
5.80599e-005
5.80598e-005
5.806e-005
5.80602e-005
5.80601e-005
5.80602e-005
5.80602e-005
5.80601e-005
5.80604e-005
5.80603e-005
5.80603e-005
5.80604e-005
5.80603e-005
5.80604e-005
5.80605e-005
0.000591313
7.39142e-006
4.30793e-006
4.16114e-006
4.57996e-006
4.6061e-006
4.60922e-006
4.60404e-006
4.60389e-006
4.60438e-006
4.60418e-006
4.60461e-006
4.6052e-006
4.60573e-006
4.60592e-006
4.60582e-006
4.60638e-006
4.6068e-006
4.60671e-006
4.60693e-006
4.60683e-006
4.60687e-006
4.60733e-006
4.6073e-006
4.60735e-006
4.60755e-006
4.60735e-006
4.60745e-006
4.60779e-006
0.15343
0.0456045
0.00522026
0.000108512
1.31475e-006
6.44538e-007
6.01779e-007
7.14233e-007
7.25164e-007
7.23472e-007
7.21751e-007
7.21703e-007
7.22124e-007
7.22449e-007
7.22524e-007
7.22674e-007
7.22922e-007
7.22978e-007
7.23079e-007
7.23201e-007
7.23244e-007
7.23376e-007
7.23485e-007
7.23495e-007
7.2359e-007
7.2364e-007
7.23654e-007
7.23765e-007
7.2381e-007
0.47571
0.291603
0.133889
0.0386167
0.00463226
0.000178722
4.20434e-006
2.55748e-007
1.74061e-007
1.93811e-007
2.13906e-007
2.15336e-007
2.12492e-007
2.11788e-007
2.12285e-007
2.12446e-007
2.12352e-007
2.12389e-007
2.12494e-007
2.12531e-007
2.12566e-007
2.12625e-007
2.12658e-007
2.1269e-007
2.12735e-007
2.12763e-007
2.12794e-007
2.12829e-007
2.12843e-007
0.756994
0.581632
0.414115
0.249101
0.10688
0.0267471
0.00271429
0.000131504
3.09844e-006
2.14124e-007
9.05167e-008
8.44943e-008
1.02567e-007
1.05982e-007
1.03034e-007
1.02771e-007
1.03769e-007
1.03698e-007
1.03476e-007
1.03519e-007
1.03547e-007
1.03546e-007
1.03571e-007
1.03604e-007
1.03628e-007
1.03636e-007
1.03651e-007
1.03674e-007
1.0369e-007
0.966682
0.798615
0.642297
0.4905
0.338599
0.187879
0.068388
0.0125347
0.00094929
4.75618e-005
1.42681e-006
1.53164e-007
6.38563e-008
6.13624e-008
7.27569e-008
7.2481e-008
6.87944e-008
6.95683e-008
7.04758e-008
7.03821e-008
7.04757e-008
7.06158e-008
7.05709e-008
7.0535e-008
7.05539e-008
7.05778e-008
7.06025e-008
7.0615e-008
7.06157e-008
1.12641
0.964066
0.815743
0.675173
0.537332
0.398231
0.254968
0.11331
0.0293543
0.00326367
0.000199503
1.0404e-005
3.88623e-007
8.17482e-008
4.91798e-008
5.37741e-008
6.273e-008
5.90924e-008
5.74227e-008
5.79172e-008
5.76152e-008
5.74597e-008
5.77229e-008
5.78629e-008
5.78152e-008
5.7781e-008
5.77816e-008
5.77904e-008
5.7803e-008
1.24251
1.08473
0.942188
0.809321
0.681493
0.554917
0.426909
0.297302
0.161897
0.0530211
0.00822643
0.000612307
3.68733e-005
1.9879e-006
1.32308e-007
5.60036e-008
4.27266e-008
5.14321e-008
5.31464e-008
5.13397e-008
5.2174e-008
5.21966e-008
5.15711e-008
5.15652e-008
5.18041e-008
5.18869e-008
5.18938e-008
5.1906e-008
5.19102e-008
1.33943
1.18519
1.04676
0.9191
0.798015
0.679998
0.562232
0.442609
0.319217
0.192058
0.0718909
0.0136629
0.00121173
8.14427e-005
5.21419e-006
3.10508e-007
7.2767e-008
4.62806e-008
4.62398e-008
5.15463e-008
4.90415e-008
4.9001e-008
4.97129e-008
4.9384e-008
4.88682e-008
4.89754e-008
4.90619e-008
4.90704e-008
4.90781e-008
1.40229
1.25407
1.1212
0.99974
0.885726
0.775836
0.667294
0.557841
0.445693
0.32972
0.210147
0.0850175
0.0182213
0.00184492
0.000136583
9.72558e-006
6.79347e-007
8.13945e-008
4.95016e-008
4.17077e-008
4.74612e-008
4.72099e-008
4.70831e-008
4.78311e-008
4.79743e-008
4.75103e-008
4.73948e-008
4.74731e-008
4.74942e-008
1.44624
1.30081
1.17287
1.05662
0.948667
0.845826
0.745384
0.645073
0.543071
0.438035
0.329246
0.217115
0.0915877
0.0209429
0.00232998
0.000189124
1.48223e-005
1.14523e-006
1.15618e-007
5.65517e-008
4.14212e-008
4.42757e-008
4.5149e-008
4.47085e-008
4.52393e-008
4.61221e-008
4.5929e-008
4.56519e-008
4.56839e-008
1.48489
1.34248
1.21709
1.10429
1.00031
0.90234
0.807781
0.71442
0.620419
0.524331
0.425145
0.322386
0.216526
0.0947361
0.0224174
0.00267425
0.000236461
2.01782e-005
1.71358e-006
1.73621e-007
5.69734e-008
4.4458e-008
4.31738e-008
4.37337e-008
4.26993e-008
4.29042e-008
4.37647e-008
4.41142e-008
4.39311e-008
1.51233
1.37336
1.25075
1.14166
1.0415
0.947775
0.858132
0.770464
0.682985
0.594233
0.503085
0.408777
0.310937
0.209617
0.0931243
0.0221351
0.00276273
0.00026373
2.43625e-005
2.25958e-006
2.33132e-007
5.86981e-008
4.60174e-008
4.2575e-008
4.42385e-008
4.3267e-008
4.18466e-008
4.21673e-008
4.27811e-008
1.53066
1.39587
1.27649
1.16981
1.07382
0.984012
0.898733
0.815987
0.734057
0.651505
0.567172
0.480185
0.389943
0.29608
0.198331
0.0845724
0.0196052
0.00253091
0.000262621
2.65492e-005
2.69562e-006
2.93175e-007
6.62199e-008
4.85545e-008
4.24659e-008
4.47396e-008
4.45446e-008
4.33204e-008
4.29139e-008
1.5418
1.41065
1.29559
1.19206
1.09837
1.01299
0.931688
0.853326
0.77626
0.699091
0.620667
0.540072
0.456625
0.369851
0.279474
0.185696
0.0751017
0.0168589
0.00226575
0.000256385
2.83956e-005
3.15916e-006
3.7166e-007
7.74707e-008
5.21537e-008
4.35482e-008
4.53231e-008
4.60894e-008
4.59889e-008
1.54724
1.41981
1.30817
1.20897
1.11831
1.03532
0.95836
0.884028
0.811344
0.73896
0.665746
0.590784
0.513363
0.432957
0.349218
0.261978
0.171254
0.0659754
0.0143624
0.00201345
0.000246978
2.97805e-005
3.60653e-006
4.5668e-007
9.33185e-008
5.26312e-008
4.47281e-008
4.54952e-008
4.73975e-008
1.54813
1.42447
1.31629
1.22035
1.13396
1.05363
0.979358
0.909112
0.840467
0.772444
0.703935
0.634029
0.561998
0.487291
0.409508
0.328384
0.24373
0.155212
0.0568099
0.0120579
0.00177243
0.00023536
3.07911e-005
4.03707e-006
5.53306e-007
1.08877e-007
5.21408e-008
4.4836e-008
4.42178e-008
1.54532
1.42551
1.32082
1.22818
1.14499
1.06901
0.997426
0.930241
0.865155
0.800983
0.73666
0.671283
0.604115
0.534577
0.462232
0.386761
0.307924
0.225455
0.138689
0.0482117
0.0101117
0.00157386
0.000226252
3.20691e-005
4.55323e-006
6.72976e-007
1.27351e-007
5.36455e-008
4.48746e-008
1.53939
1.42351
1.32239
1.23307
1.15304
1.08018
1.01242
0.948164
0.886998
0.826341
0.765761
0.704395
0.64153
0.576587
0.509115
0.43877
0.365289
0.288437
0.207865
0.122568
0.0406609
0.00854582
0.00141338
0.000219658
3.36916e-005
5.17172e-006
8.13872e-007
1.52291e-007
5.72444e-008
1.53078
1.41892
1.32142
1.23542
1.15855
1.08874
1.0242
0.962794
0.904209
0.847386
0.790604
0.733214
0.674521
0.613956
0.551069
0.485507
0.416998
0.34532
0.270236
0.191315
0.107284
0.0342069
0.00729355
0.00128751
0.00021627
3.58962e-005
5.94184e-006
9.96372e-007
1.86598e-007
1.51982
1.41204
1.31822
1.23561
1.16192
1.09519
1.03372
0.976044
0.920286
0.866502
0.812919
0.758977
0.703989
0.647388
0.588713
0.527598
0.463755
0.396956
0.327
0.253655
0.176458
0.0916982
0.0283785
0.00623101
0.00117811
0.000213322
3.80435e-005
6.746e-006
1.18299e-006
1.50674
1.40312
1.31302
1.23382
1.1633
1.09958
1.04101
0.986156
0.93354
0.882465
0.832478
0.78197
0.730559
0.677705
0.622964
0.565979
0.506461
0.444185
0.378965
0.310628
0.238975
0.164034
0.0761403
0.0231917
0.00529668
0.00107256
0.000208524
3.98514e-005
7.39639e-006
1.49177
1.39236
1.30605
1.23028
1.16294
1.10223
1.04659
0.994659
0.945308
0.896938
0.849658
0.802212
0.75407
0.704695
0.653644
0.600551
0.545123
0.487122
0.426359
0.362678
0.295938
0.226071
0.153512
0.0661604
0.019923
0.00471685
0.001012
0.00020969
4.18237e-005
1.47512
1.37998
1.29748
1.22516
1.16101
1.10328
1.05048
1.00128
0.954555
0.90926
0.864648
0.820507
0.775505
0.729398
0.681768
0.632269
0.580613
0.526565
0.469932
0.41056
0.348319
0.28312
0.214977
0.143292
0.0596122
0.0179149
0.00439211
0.000991621
0.000212413
1.45699
1.36617
1.28751
1.21867
1.15769
1.10293
1.05294
1.00649
0.962512
0.920139
0.878076
0.83651
0.794391
0.751336
0.706931
0.660828
0.61274
0.562428
0.509697
0.454385
0.396361
0.335518
0.271765
0.204818
0.133654
0.0545411
0.0165496
0.00421441
0.000976711
1.43759
1.35112
1.27633
1.21096
1.15316
1.10133
1.0541
1.01029
0.968866
0.928934
0.889668
0.850543
0.811421
0.771282
0.729897
0.686947
0.642161
0.595307
0.546192
0.494652
0.44055
0.383769
0.324194
0.261645
0.195675
0.125124
0.0505312
0.0155991
0.00403266
1.41712
1.33501
1.2641
1.20221
1.14757
1.09865
1.05415
1.01294
0.974057
0.936702
0.900219
0.863569
0.826927
0.789383
0.750762
0.710734
0.669025
0.625402
0.579666
0.531652
0.481215
0.428233
0.372589
0.314141
0.252652
0.187603
0.11763
0.047317
0.0145518
1.39575
1.31802
1.251
1.19258
1.14108
1.09504
1.05321
1.01453
0.978067
0.943036
0.908733
0.874476
0.840082
0.805258
0.769401
0.732219
0.693458
0.652897
0.610348
0.565646
0.518646
0.469223
0.41726
0.362635
0.305191
0.244658
0.18047
0.110998
0.0436516
1.37363
1.30029
1.23714
1.18219
1.13381
1.09063
1.05145
1.01526
0.981193
0.948526
0.916652
0.88509
0.853065
0.82069
0.787124
0.752389
0.716233
0.678431
0.638787
0.597129
0.553306
0.507185
0.458645
0.407569
0.353831
0.297259
0.237574
0.174594
0.102661
1.3509
1.28193
1.22266
1.17116
1.12589
1.08553
1.04896
1.01521
0.983473
0.953043
0.923336
0.893849
0.863996
0.833809
0.80281
0.770652
0.737118
0.702009
0.665148
0.626373
0.585539
0.542512
0.497172
0.449405
0.399098
0.346122
0.290326
0.231398
0.169037
1.32764
1.26303
1.20763
1.15956
1.11737
1.07982
1.04584
1.0145
0.985051
0.956828
0.929277
0.901919
0.874322
0.846188
0.817449
0.787647
0.756558
0.723985
0.689752
0.653699
0.615681
0.575565
0.53323
0.488562
0.441453
0.391792
0.339461
0.284258
0.226311
1.30391
1.24364
1.19207
1.14742
1.1083
1.07354
1.04212
1.01318
0.986002
0.959972
0.934583
0.909416
0.884151
0.858207
0.831661
0.803956
0.775084
0.744841
0.713043
0.679525
0.64414
0.60675
0.567229
0.525461
0.481336
0.434751
0.385597
0.333751
0.279031
1.27974
1.22376
1.17601
1.13475
1.09868
1.06669
1.03782
1.01126
0.986337
0.962473
0.939189
0.91608
0.892792
0.868982
0.84454
0.819119
0.792532
0.764607
0.735181
0.7041
0.671223
0.636414
0.599548
0.560506
0.519177
0.475457
0.429244
0.380434
0.328823
1.25508
1.20337
1.15939
1.1215
1.08846
1.05922
1.0329
1.00872
0.986041
0.964338
0.943152
0.922096
0.900818
0.87897
0.856586
0.833417
0.809093
0.783457
0.756358
0.727652
0.697199
0.664868
0.630534
0.594076
0.555383
0.514349
0.470873
0.424855
0.376152
1.22989
1.18238
1.14214
1.10759
1.07756
1.05107
1.02728
1.00547
0.985061
0.965535
0.946477
0.927532
0.908404
0.888861
0.868512
0.847345
0.825134
0.80169
0.776845
0.750446
0.722348
0.692416
0.66052
0.626537
0.590352
0.551856
0.510944
0.46752
0.42148
1.20408
1.16072
1.12416
1.0929
1.06586
1.0421
1.02084
1.00142
0.983285
0.965959
0.949055
0.932244
0.915251
0.897856
0.879709
0.860822
0.840716
0.819443
0.796827
0.772705
0.746925
0.719345
0.689828
0.658244
0.624472
0.588396
0.54991
0.508914
0.465319
1.17755
1.13825
1.10533
1.07731
1.05321
1.03217
1.01344
0.996408
0.980559
0.965458
0.950737
0.936086
0.921232
0.905925
0.889894
0.873228
0.855499
0.836565
0.816283
0.794505
0.771084
0.745873
0.718731
0.689521
0.658114
0.624385
0.588222
0.549519
0.508194
1.15019
1.11487
1.0855
1.06067
1.03947
1.02111
1.00489
0.990243
0.976696
0.963843
0.951342
0.938901
0.92626
0.913177
0.8994
0.884912
0.869588
0.853074
0.835224
0.81589
0.794918
0.772156
0.747451
0.720655
0.691625
0.660226
0.626332
0.589834
0.550644
1.12194
1.09048
1.06456
1.04285
1.02449
1.00875
0.995012
0.982738
0.971492
0.960902
0.950652
0.940471
0.930124
0.919409
0.908179
0.89601
0.883043
0.868966
0.853625
0.836846
0.818453
0.798274
0.776136
0.75187
0.72531
0.696301
0.664698
0.630375
0.593239
1.09277
1.06504
1.04246
1.02376
1.00816
0.994985
0.983671
0.973733
0.964767
0.956434
0.948442
0.940544
0.932517
0.924164
0.915299
0.905567
0.895458
0.883932
0.871242
0.857184
0.841557
0.824164
0.804804
0.783276
0.759381
0.732928
0.703739
0.67166
0.636578
1.06272
1.03857
1.0192
1.00339
0.990451
0.979762
0.970806
0.963146
0.956416
0.950306
0.944552
0.938926
0.933223
0.927258
0.920843
0.913755
0.90598
0.897369
0.887594
0.876497
0.863885
0.849547
0.833257
0.814774
0.793855
0.770256
0.743747
0.714121
0.681222
1.03198
1.01124
0.99492
0.981881
0.971485
0.963181
0.956498
0.951039
0.946473
0.942519
0.938939
0.935527
0.932103
0.928503
0.92458
0.920234
0.914743
0.909091
0.902284
0.894291
0.884906
0.873896
0.861002
0.845941
0.82841
0.808098
0.784694
0.75791
0.727511
1.00087
0.98334
0.969922
0.959516
0.951553
0.945532
0.941024
0.937666
0.935158
0.933246
0.931716
0.930387
0.929103
0.927723
0.926118
0.924138
0.921495
0.918572
0.914654
0.909809
0.903786
0.896325
0.887134
0.875884
0.86221
0.845714
0.825983
0.802612
0.775244
0.9699
0.955386
0.944707
0.936806
0.931165
0.927321
0.924875
0.923489
0.922881
0.922821
0.923118
0.92362
0.924202
0.924759
0.925199
0.925436
0.925425
0.924409
0.923532
0.921858
0.919242
0.915447
0.910175
0.903067
0.893696
0.881577
0.866172
0.846928
0.823316
0.939776
0.928074
0.919982
0.914467
0.911039
0.909255
0.908722
0.909111
0.910147
0.911616
0.913355
0.915245
0.917207
0.919188
0.92115
0.923052
0.924841
0.926325
0.927691
0.92882
0.929417
0.929213
0.927907
0.925133
0.920418
0.913183
0.90276
0.888439
0.869451
0.911367
0.902272
0.896621
0.893371
0.892032
0.892142
0.893288
0.895121
0.897364
0.899812
0.90234
0.904884
0.907433
0.910013
0.91267
0.915429
0.918313
0.921369
0.924473
0.928144
0.931634
0.934735
0.93722
0.938792
0.938944
0.936989
0.932092
0.923526
0.910155
0.885634
0.87894
0.87557
0.874434
0.874994
0.87672
0.879136
0.881849
0.884561
0.887094
0.88938
0.891447
0.893395
0.895363
0.897547
0.899996
0.902847
0.906936
0.911491
0.91673
0.922502
0.928303
0.934209
0.939888
0.944859
0.948571
0.949332
0.947468
0.940958
0.863503
0.85898
0.857687
0.858431
0.860561
0.863421
0.866424
0.869104
0.871146
0.872424
0.872986
0.873004
0.872741
0.872486
0.872753
0.874146
0.876544
0.880433
0.885077
0.890767
0.897637
0.905497
0.914241
0.923615
0.933205
0.942425
0.950189
0.95544
0.955623
0.845685
0.843063
0.843551
0.845796
0.848958
0.852186
0.854734
0.85607
0.855864
0.854124
0.851078
0.847124
0.843148
0.839894
0.837638
0.836098
0.836083
0.837845
0.841176
0.846201
0.853174
0.862101
0.872839
0.88521
0.898905
0.913441
0.92791
0.941335
0.950861
0.832504
0.831448
0.833295
0.836476
0.839882
0.842411
0.84313
0.8415
0.837165
0.830431
0.822512
0.813672
0.804526
0.795679
0.788109
0.782077
0.778062
0.776299
0.77691
0.780225
0.786378
0.795198
0.806746
0.820979
0.837757
0.856833
0.877562
0.898953
0.920637
0.823788
0.823895
0.826551
0.829929
0.83259
0.833166
0.830506
0.824295
0.814453
0.801914
0.786936
0.770343
0.753523
0.737465
0.723171
0.711203
0.702023
0.695983
0.693196
0.693783
0.69781
0.705107
0.715687
0.729925
0.747883
0.769693
0.795242
0.823783
0.85775
0.818883
0.819706
0.822548
0.825306
0.826179
0.823618
0.81639
0.804588
0.787858
0.766937
0.743343
0.718585
0.694007
0.670738
0.649681
0.631464
0.616523
0.60517
0.597553
0.59373
0.593635
0.597261
0.604689
0.616175
0.632121
0.653163
0.680313
0.712423
0.757158
0.816816
0.817925
0.820353
0.821751
0.820061
0.813452
0.801135
0.782293
0.757842
0.729282
0.698199
0.666206
0.634739
0.604953
0.577698
0.553535
0.532813
0.515765
0.502512
0.493032
0.487005
0.484655
0.486167
0.491841
0.50215
0.517725
0.540679
0.567935
0.617383
0.816544
0.817583
0.819139
0.818753
0.813969
0.803156
0.78497
0.759937
0.729164
0.694268
0.657163
0.619609
0.583045
0.548544
0.516824
0.488303
0.463181
0.441485
0.423168
0.408219
0.396421
0.387728
0.382209
0.380181
0.381849
0.387863
0.401897
0.416613
0.461771
0.817179
0.817916
0.818441
0.816042
0.808272
0.793233
0.77046
0.740517
0.704942
0.66569
0.624793
0.58402
0.544727
0.50785
0.473949
0.443298
0.415959
0.391853
0.370836
0.352749
0.337318
0.324308
0.313653
0.305568
0.299387
0.296299
0.298771
0.298248
0.325287
0.81811
0.818476
0.818004
0.813805
0.803428
0.785331
0.759222
0.726072
0.687702
0.646253
0.603783
0.561993
0.522122
0.484969
0.450972
0.420297
0.392928
0.368733
0.347521
0.329079
0.313275
0.299938
0.288212
0.27871
0.26962
0.264191
0.258944
0.255257
0.253207
0.81901
0.819064
0.817838
0.812362
0.800334
0.780374
0.752477
0.717872
0.678545
0.636698
0.594351
0.55311
0.514106
0.478041
0.445273
0.41592
0.389942
0.367201
0.347517
0.330696
0.316545
0.305006
0.295691
0.289204
0.283135
0.282461
0.276774
0.285659
0.260667
0.819765
0.819664
0.818127
0.812114
0.799472
0.778957
0.750729
0.716145
0.67724
0.636201
0.594984
0.555118
0.517665
0.483275
0.45228
0.424788
0.400768
0.380108
0.362658
0.348268
0.336777
0.328183
0.322114
0.319544
0.318071
0.324335
0.324401
0.348482
0.315703
0.820414
0.82037
0.819061
0.81333
0.801135
0.781258
0.753896
0.720401
0.682785
0.64319
0.603529
0.565296
0.529535
0.496893
0.467714
0.442126
0.420126
0.401633
0.386538
0.374736
0.366121
0.360759
0.35838
0.360091
0.363623
0.376469
0.384269
0.417656
0.389034
5.80605e-005
5.80606e-005
5.80609e-005
5.80608e-005
5.80603e-005
5.80603e-005
5.80609e-005
5.80614e-005
5.80613e-005
5.80606e-005
5.80603e-005
5.80608e-005
5.80616e-005
5.80617e-005
5.80609e-005
5.80602e-005
5.80602e-005
5.80606e-005
5.80606e-005
5.80602e-005
5.80599e-005
5.806e-005
5.80604e-005
5.80606e-005
5.80607e-005
5.80609e-005
5.80609e-005
5.80604e-005
5.806e-005
5.806e-005
5.80603e-005
5.80609e-005
5.80609e-005
5.80609e-005
5.80609e-005
5.80609e-005
5.80609e-005
5.80609e-005
5.80609e-005
5.80609e-005
5.80609e-005
5.8061e-005
5.8061e-005
5.80609e-005
5.80609e-005
5.80609e-005
5.8061e-005
5.8061e-005
5.8061e-005
5.8061e-005
5.8061e-005
5.80611e-005
5.80611e-005
5.80611e-005
5.80611e-005
5.80612e-005
5.80612e-005
5.80612e-005
5.80612e-005
5.80613e-005
5.80613e-005
5.80613e-005
5.80614e-005
5.80614e-005
5.80614e-005
5.80614e-005
5.80615e-005
5.80615e-005
5.80615e-005
5.80615e-005
5.80615e-005
5.80616e-005
5.80615e-005
5.80616e-005
5.80616e-005
5.80616e-005
5.80615e-005
5.80615e-005
5.80615e-005
5.80614e-005
5.80615e-005
5.80614e-005
5.80615e-005
5.80617e-005
5.80618e-005
5.80617e-005
5.80615e-005
5.80616e-005
5.80616e-005
5.80617e-005
5.80618e-005
5.80619e-005
5.80619e-005
5.80619e-005
5.80619e-005
5.80619e-005
5.80619e-005
5.80619e-005
5.80619e-005
5.80619e-005
5.80619e-005
5.80619e-005
5.80618e-005
5.80618e-005
5.80618e-005
5.80618e-005
5.80618e-005
5.80618e-005
5.80618e-005
5.80618e-005
5.80618e-005
5.80618e-005
5.80618e-005
5.80617e-005
5.80617e-005
5.80617e-005
5.80617e-005
5.80617e-005
5.80617e-005
5.80617e-005
5.80617e-005
5.80617e-005
5.80617e-005
5.80617e-005
5.80617e-005
5.80618e-005
5.80618e-005
5.80618e-005
5.80619e-005
5.80619e-005
5.8062e-005
5.80621e-005
5.80621e-005
5.80624e-005
5.80623e-005
5.80626e-005
5.80624e-005
5.80633e-005
5.93237e-005
4.60772e-006
4.60802e-006
4.60849e-006
4.60815e-006
4.60736e-006
4.60758e-006
4.60883e-006
4.60964e-006
4.60918e-006
4.60785e-006
4.60748e-006
4.60868e-006
4.61016e-006
4.60999e-006
4.60835e-006
4.60717e-006
4.60744e-006
4.6083e-006
4.60821e-006
4.60752e-006
4.6071e-006
4.6074e-006
4.60814e-006
4.60846e-006
4.60865e-006
4.60894e-006
4.60893e-006
4.60792e-006
4.60725e-006
4.60727e-006
4.60798e-006
4.60909e-006
4.60913e-006
4.60911e-006
4.60911e-006
4.60912e-006
4.60912e-006
4.60914e-006
4.60916e-006
4.60918e-006
4.60923e-006
4.60926e-006
4.60924e-006
4.60916e-006
4.60914e-006
4.60919e-006
4.60925e-006
4.60934e-006
4.60939e-006
4.60945e-006
4.60949e-006
4.60955e-006
4.6096e-006
4.60964e-006
4.6097e-006
4.60978e-006
4.60981e-006
4.6099e-006
4.60994e-006
4.61002e-006
4.61008e-006
4.61013e-006
4.61023e-006
4.61024e-006
4.61033e-006
4.61035e-006
4.61046e-006
4.61042e-006
4.61059e-006
4.61054e-006
4.61055e-006
4.61076e-006
4.61053e-006
4.61074e-006
4.61063e-006
4.61078e-006
4.61061e-006
4.61054e-006
4.61064e-006
4.61032e-006
4.61062e-006
4.61044e-006
4.61065e-006
4.611e-006
4.6111e-006
4.61098e-006
4.61066e-006
4.61087e-006
4.61084e-006
4.61111e-006
4.61129e-006
4.61138e-006
4.61143e-006
4.61144e-006
4.61143e-006
4.61144e-006
4.6114e-006
4.61142e-006
4.6114e-006
4.6114e-006
4.61139e-006
4.61137e-006
4.61136e-006
4.61134e-006
4.61132e-006
4.6113e-006
4.61129e-006
4.61126e-006
4.61124e-006
4.61121e-006
4.61118e-006
4.61114e-006
4.61111e-006
4.61106e-006
4.61101e-006
4.61095e-006
4.61089e-006
4.61085e-006
4.61085e-006
4.61086e-006
4.61088e-006
4.61088e-006
4.61092e-006
4.61096e-006
4.61101e-006
4.61104e-006
4.61111e-006
4.61117e-006
4.61122e-006
4.61139e-006
4.61147e-006
4.61172e-006
4.61171e-006
4.6125e-006
4.61202e-006
4.61281e-006
4.61455e-006
4.61727e-006
4.98029e-006
7.23839e-007
7.23964e-007
7.23953e-007
7.23813e-007
7.23874e-007
7.24178e-007
7.24363e-007
7.24193e-007
7.23914e-007
7.23867e-007
7.24162e-007
7.24475e-007
7.2439e-007
7.2406e-007
7.23856e-007
7.24024e-007
7.2438e-007
7.24542e-007
7.24568e-007
7.24638e-007
7.2479e-007
7.24891e-007
7.24867e-007
7.24844e-007
7.24882e-007
7.24903e-007
7.24876e-007
7.24826e-007
7.24825e-007
7.2487e-007
7.25006e-007
7.25011e-007
7.25026e-007
7.25062e-007
7.25107e-007
7.25132e-007
7.25154e-007
7.25176e-007
7.25199e-007
7.25223e-007
7.25242e-007
7.25245e-007
7.25229e-007
7.25225e-007
7.25245e-007
7.25283e-007
7.25322e-007
7.2537e-007
7.25402e-007
7.2544e-007
7.25469e-007
7.25501e-007
7.25529e-007
7.25555e-007
7.25583e-007
7.25613e-007
7.25628e-007
7.25657e-007
7.25672e-007
7.257e-007
7.25718e-007
7.25738e-007
7.25766e-007
7.25777e-007
7.25804e-007
7.25817e-007
7.25841e-007
7.25848e-007
7.25879e-007
7.25881e-007
7.25899e-007
7.25933e-007
7.259e-007
7.25962e-007
7.25945e-007
7.25968e-007
7.25985e-007
7.25982e-007
7.26022e-007
7.26013e-007
7.26049e-007
7.26032e-007
7.26086e-007
7.26117e-007
7.26133e-007
7.26162e-007
7.26182e-007
7.26219e-007
7.26216e-007
7.26246e-007
7.26254e-007
7.26277e-007
7.26306e-007
7.26321e-007
7.26327e-007
7.26348e-007
7.26329e-007
7.26356e-007
7.26347e-007
7.26351e-007
7.26351e-007
7.26347e-007
7.26344e-007
7.26333e-007
7.26331e-007
7.26313e-007
7.26314e-007
7.26288e-007
7.26279e-007
7.26255e-007
7.26241e-007
7.26208e-007
7.26195e-007
7.2616e-007
7.26142e-007
7.26104e-007
7.26081e-007
7.26053e-007
7.2604e-007
7.26029e-007
7.26017e-007
7.25997e-007
7.25986e-007
7.25978e-007
7.25961e-007
7.25944e-007
7.25943e-007
7.25896e-007
7.2589e-007
7.25954e-007
7.25831e-007
7.25979e-007
7.25957e-007
7.25863e-007
7.25882e-007
7.2976e-007
6.80386e-007
6.44118e-007
3.9416e-006
2.12884e-007
2.12922e-007
2.12925e-007
2.12952e-007
2.13026e-007
2.13066e-007
2.13038e-007
2.13002e-007
2.13031e-007
2.13124e-007
2.13179e-007
2.13166e-007
2.13106e-007
2.13095e-007
2.13142e-007
2.13213e-007
2.13307e-007
2.1336e-007
2.13398e-007
2.13419e-007
2.13405e-007
2.13411e-007
2.13437e-007
2.13502e-007
2.13534e-007
2.13543e-007
2.13522e-007
2.13492e-007
2.1348e-007
2.13493e-007
2.13528e-007
2.13592e-007
2.13637e-007
2.13661e-007
2.13685e-007
2.13704e-007
2.13723e-007
2.13741e-007
2.13758e-007
2.13774e-007
2.13786e-007
2.13795e-007
2.13807e-007
2.13827e-007
2.13851e-007
2.13874e-007
2.13897e-007
2.1392e-007
2.13941e-007
2.13962e-007
2.13982e-007
2.14003e-007
2.14022e-007
2.14041e-007
2.14061e-007
2.14079e-007
2.14096e-007
2.14113e-007
2.1413e-007
2.14147e-007
2.14163e-007
2.14181e-007
2.14197e-007
2.14214e-007
2.1423e-007
2.14247e-007
2.14261e-007
2.14279e-007
2.14294e-007
2.14309e-007
2.14326e-007
2.14343e-007
2.14358e-007
2.14382e-007
2.14389e-007
2.14403e-007
2.14413e-007
2.14429e-007
2.14443e-007
2.14454e-007
2.14479e-007
2.14488e-007
2.14505e-007
2.14514e-007
2.14528e-007
2.14533e-007
2.14543e-007
2.14557e-007
2.14565e-007
2.14577e-007
2.1459e-007
2.14597e-007
2.14605e-007
2.14614e-007
2.14622e-007
2.14631e-007
2.14634e-007
2.14644e-007
2.14646e-007
2.14651e-007
2.14653e-007
2.14655e-007
2.14656e-007
2.14654e-007
2.14654e-007
2.14648e-007
2.14648e-007
2.14637e-007
2.14633e-007
2.14621e-007
2.14613e-007
2.14596e-007
2.14587e-007
2.14571e-007
2.14558e-007
2.1454e-007
2.14523e-007
2.14503e-007
2.14487e-007
2.1447e-007
2.14452e-007
2.1443e-007
2.1441e-007
2.1439e-007
2.14366e-007
2.14338e-007
2.14314e-007
2.14289e-007
2.14294e-007
2.14155e-007
2.14521e-007
2.14029e-007
2.13834e-007
2.19454e-007
2.15466e-007
1.7728e-007
8.50802e-007
0.000170815
0.010149
1.0371e-007
1.03732e-007
1.03745e-007
1.03757e-007
1.0377e-007
1.03786e-007
1.0381e-007
1.03834e-007
1.03849e-007
1.03853e-007
1.03854e-007
1.03873e-007
1.03893e-007
1.03902e-007
1.03923e-007
1.03956e-007
1.03999e-007
1.04023e-007
1.04031e-007
1.04045e-007
1.04079e-007
1.04106e-007
1.0414e-007
1.04145e-007
1.04152e-007
1.04155e-007
1.0415e-007
1.04157e-007
1.0418e-007
1.04199e-007
1.0423e-007
1.04254e-007
1.04259e-007
1.0428e-007
1.04303e-007
1.04323e-007
1.04343e-007
1.04362e-007
1.04381e-007
1.04399e-007
1.04415e-007
1.04432e-007
1.04451e-007
1.0447e-007
1.04488e-007
1.04507e-007
1.04525e-007
1.04543e-007
1.0456e-007
1.04578e-007
1.04595e-007
1.04613e-007
1.04629e-007
1.04646e-007
1.04663e-007
1.0468e-007
1.04695e-007
1.04712e-007
1.04728e-007
1.04744e-007
1.0476e-007
1.04776e-007
1.04792e-007
1.04807e-007
1.04823e-007
1.04838e-007
1.04854e-007
1.04867e-007
1.04884e-007
1.04897e-007
1.0491e-007
1.0493e-007
1.04939e-007
1.04959e-007
1.04964e-007
1.0498e-007
1.04986e-007
1.04995e-007
1.0501e-007
1.05023e-007
1.05036e-007
1.05042e-007
1.05053e-007
1.05065e-007
1.05081e-007
1.05084e-007
1.05095e-007
1.05106e-007
1.0511e-007
1.0512e-007
1.05126e-007
1.05137e-007
1.05144e-007
1.05151e-007
1.05156e-007
1.05161e-007
1.05165e-007
1.05169e-007
1.05172e-007
1.05175e-007
1.05177e-007
1.05178e-007
1.05179e-007
1.05179e-007
1.05178e-007
1.05175e-007
1.05173e-007
1.05168e-007
1.05164e-007
1.05157e-007
1.0515e-007
1.0514e-007
1.05131e-007
1.05119e-007
1.05107e-007
1.05094e-007
1.05079e-007
1.05063e-007
1.05047e-007
1.05032e-007
1.05015e-007
1.04996e-007
1.04977e-007
1.04957e-007
1.04935e-007
1.04909e-007
1.04916e-007
1.04824e-007
1.0447e-007
1.05445e-007
1.03116e-007
1.05426e-007
1.07566e-007
7.65306e-008
9.82309e-008
1.52774e-006
0.000223882
0.0107518
0.0934459
7.063e-008
7.06517e-008
7.06558e-008
7.06647e-008
7.06928e-008
7.07223e-008
7.07321e-008
7.07239e-008
7.07223e-008
7.0744e-008
7.07816e-008
7.07978e-008
7.07963e-008
7.07941e-008
7.08044e-008
7.08364e-008
7.08663e-008
7.08938e-008
7.09207e-008
7.09464e-008
7.09688e-008
7.09753e-008
7.09841e-008
7.0996e-008
7.10073e-008
7.10164e-008
7.10344e-008
7.10594e-008
7.10691e-008
7.10772e-008
7.10983e-008
7.11102e-008
7.11324e-008
7.11495e-008
7.11671e-008
7.11854e-008
7.12038e-008
7.12223e-008
7.12406e-008
7.1259e-008
7.12771e-008
7.12952e-008
7.13122e-008
7.13284e-008
7.13451e-008
7.13631e-008
7.13811e-008
7.13996e-008
7.14171e-008
7.14349e-008
7.14522e-008
7.14695e-008
7.14864e-008
7.15032e-008
7.15198e-008
7.15366e-008
7.15524e-008
7.15688e-008
7.15843e-008
7.16004e-008
7.1616e-008
7.16313e-008
7.1647e-008
7.16613e-008
7.16765e-008
7.16904e-008
7.17051e-008
7.17178e-008
7.17328e-008
7.17445e-008
7.17577e-008
7.17718e-008
7.17856e-008
7.17986e-008
7.18079e-008
7.18178e-008
7.18278e-008
7.1839e-008
7.18479e-008
7.18622e-008
7.18765e-008
7.18861e-008
7.18966e-008
7.19059e-008
7.19169e-008
7.19247e-008
7.19344e-008
7.1944e-008
7.19543e-008
7.19599e-008
7.19658e-008
7.19784e-008
7.19881e-008
7.19942e-008
7.19981e-008
7.20026e-008
7.20052e-008
7.20092e-008
7.20116e-008
7.20139e-008
7.20155e-008
7.20165e-008
7.20169e-008
7.20166e-008
7.20158e-008
7.20141e-008
7.20127e-008
7.20099e-008
7.20069e-008
7.20027e-008
7.1998e-008
7.1992e-008
7.19849e-008
7.19758e-008
7.19665e-008
7.19554e-008
7.19432e-008
7.1929e-008
7.19153e-008
7.19009e-008
7.18854e-008
7.18679e-008
7.18501e-008
7.18289e-008
7.18093e-008
7.17731e-008
7.15652e-008
7.18718e-008
7.26946e-008
6.9377e-008
7.61778e-008
7.03883e-008
6.34553e-008
2.28817e-007
9.83942e-006
0.000588274
0.0163325
0.115664
0.334684
5.78295e-008
5.78378e-008
5.78469e-008
5.78681e-008
5.78858e-008
5.78914e-008
5.78933e-008
5.79053e-008
5.79301e-008
5.79541e-008
5.79667e-008
5.79686e-008
5.79715e-008
5.79858e-008
5.80158e-008
5.80458e-008
5.80606e-008
5.80811e-008
5.81005e-008
5.81262e-008
5.8141e-008
5.81491e-008
5.81531e-008
5.81676e-008
5.81827e-008
5.82014e-008
5.82219e-008
5.82385e-008
5.82545e-008
5.82711e-008
5.82819e-008
5.82993e-008
5.83209e-008
5.83409e-008
5.83608e-008
5.83798e-008
5.8398e-008
5.84161e-008
5.84341e-008
5.8452e-008
5.847e-008
5.84876e-008
5.85048e-008
5.85231e-008
5.85417e-008
5.85587e-008
5.85753e-008
5.8593e-008
5.86113e-008
5.86294e-008
5.8647e-008
5.86645e-008
5.86818e-008
5.86989e-008
5.8716e-008
5.87326e-008
5.87493e-008
5.87655e-008
5.87817e-008
5.87976e-008
5.88131e-008
5.88288e-008
5.88435e-008
5.88589e-008
5.8873e-008
5.88881e-008
5.89011e-008
5.89171e-008
5.89287e-008
5.89434e-008
5.89574e-008
5.8969e-008
5.89857e-008
5.89989e-008
5.90114e-008
5.90231e-008
5.90356e-008
5.90478e-008
5.90605e-008
5.90733e-008
5.90837e-008
5.90953e-008
5.91025e-008
5.91095e-008
5.9119e-008
5.91287e-008
5.91405e-008
5.91464e-008
5.91524e-008
5.91615e-008
5.9172e-008
5.91785e-008
5.91825e-008
5.91871e-008
5.91936e-008
5.92001e-008
5.92053e-008
5.921e-008
5.92135e-008
5.92166e-008
5.92189e-008
5.92205e-008
5.92213e-008
5.92214e-008
5.9221e-008
5.92195e-008
5.92182e-008
5.92159e-008
5.92132e-008
5.92095e-008
5.92054e-008
5.92002e-008
5.91946e-008
5.91869e-008
5.9179e-008
5.91692e-008
5.91587e-008
5.91467e-008
5.91346e-008
5.91221e-008
5.91085e-008
5.90932e-008
5.90774e-008
5.90588e-008
5.9038e-008
5.90907e-008
5.96659e-008
5.8634e-008
5.69839e-008
6.45705e-008
5.24779e-008
6.10053e-008
3.86431e-007
2.43897e-005
0.00122124
0.0257579
0.14835
0.38863
0.645519
5.19127e-008
5.19324e-008