/*--------------------------------*- C++ -*----------------------------------*\
| =========                 |                                                 |
| \\      /  F ield         | OpenFOAM: The Open Source CFD Toolbox           |
|  \\    /   O peration     | Version:  5.x                                   |
|   \\  /    A nd           | Web:      www.OpenFOAM.org                      |
|    \\/     M anipulation  |                                                 |
\*---------------------------------------------------------------------------*/
/*   Windows 32 and 64 bit porting by blueCAPE: http://www.bluecape.com.pt   *\
|  Based on Windows porting (2.0.x v4) by Symscape: http://www.symscape.com   |
\*---------------------------------------------------------------------------*/
FoamFile
{
    version     2.0;
    format      ascii;
    class       volScalarField;
    location    "300";
    object      p;
}
// * * * * * * * * * * * * * * * * * * * * * * * * * * * * * * * * * * * * * //

dimensions      [0 2 -2 0 0 0 0];

internalField   nonuniform List<scalar> 
43900
(
0.34144
0.341092
0.341051
0.340924
0.340722
0.340496
0.340294
0.339957
0.339715
0.33939
0.339066
0.338736
0.338389
0.338028
0.337658
0.337278
0.336889
0.33649
0.336083
0.335669
0.335248
0.334819
0.334384
0.333943
0.333497
0.333045
0.332587
0.332127
0.33166
0.339416
0.347497
0.341358
0.344647
0.342134
0.342885
0.341973
0.341798
0.341346
0.340912
0.340509
0.340074
0.33964
0.339211
0.338778
0.33834
0.3379
0.337455
0.337009
0.336558
0.336102
0.335643
0.335179
0.334712
0.334241
0.333764
0.333285
0.332801
0.332311
0.332605
0.354387
0.343295
0.349544
0.344458
0.347031
0.344641
0.34498
0.343892
0.343478
0.342889
0.342326
0.341791
0.341258
0.34073
0.340209
0.339693
0.339183
0.338674
0.338166
0.337664
0.337161
0.336658
0.336156
0.33565
0.335147
0.334641
0.33413
0.333622
0.327846
0.355502
0.348775
0.348577
0.348223
0.347801
0.346714
0.346674
0.34588
0.345506
0.344941
0.344424
0.343902
0.343379
0.342853
0.342327
0.341802
0.341273
0.340743
0.340216
0.339685
0.339153
0.338622
0.338087
0.337552
0.337016
0.336475
0.335936
0.335394
0.330399
0.354233
0.349224
0.348614
0.348591
0.348161
0.347966
0.347732
0.347202
0.346894
0.346458
0.346033
0.345605
0.345159
0.344702
0.344235
0.343756
0.343266
0.342771
0.342262
0.341745
0.341225
0.34069
0.34015
0.339608
0.339053
0.338495
0.337931
0.337356
0.335399
0.353505
0.350461
0.350154
0.350081
0.349673
0.349399
0.349149
0.348928
0.348656
0.348287
0.347941
0.347569
0.347181
0.346776
0.346359
0.345928
0.345484
0.345023
0.344554
0.344075
0.343572
0.343066
0.342552
0.342017
0.341478
0.340924
0.340361
0.339795
0.341673
0.355584
0.353776
0.353244
0.353197
0.353055
0.352723
0.35227
0.351949
0.351715
0.351382
0.351023
0.350657
0.350269
0.349864
0.349445
0.349014
0.348565
0.348105
0.347629
0.347134
0.346637
0.34612
0.345578
0.34503
0.344487
0.343924
0.34334
0.34274
0.348486
0.359731
0.358577
0.357965
0.357787
0.357648
0.357433
0.357082
0.356619
0.356174
0.35583
0.355459
0.355043
0.354612
0.354168
0.353711
0.353231
0.352739
0.352232
0.351706
0.351174
0.35061
0.350036
0.349468
0.34887
0.348229
0.34759
0.346942
0.346292
0.35634
0.365383
0.364676
0.364042
0.363763
0.363553
0.363301
0.362991
0.362596
0.362075
0.361554
0.361132
0.360689
0.360204
0.359704
0.359188
0.358656
0.358106
0.357538
0.356952
0.356339
0.355719
0.355086
0.354424
0.353743
0.353062
0.352376
0.351665
0.35092
0.365611
0.372444
0.372045
0.371405
0.371043
0.370762
0.370452
0.370099
0.369699
0.369231
0.368655
0.36804
0.367509
0.366976
0.36641
0.365826
0.365218
0.364589
0.363939
0.363264
0.362575
0.361867
0.361126
0.36038
0.359622
0.358824
0.357996
0.357155
0.356312
0.375024
0.380961
0.380668
0.38
0.379572
0.379227
0.378856
0.378439
0.377978
0.37747
0.376897
0.376229
0.375498
0.374843
0.37419
0.373515
0.372823
0.3721
0.371349
0.370583
0.369783
0.36896
0.368116
0.367242
0.366341
0.365421
0.364514
0.36357
0.362576
0.385152
0.390578
0.390335
0.389633
0.389147
0.388744
0.388314
0.387835
0.387307
0.386728
0.386093
0.385389
0.3846
0.383743
0.382938
0.382145
0.381338
0.380512
0.379649
0.378752
0.377842
0.376905
0.375931
0.374933
0.373915
0.372861
0.37178
0.37067
0.369581
0.396456
0.401175
0.400962
0.400238
0.3997
0.39924
0.398753
0.398214
0.397622
0.396972
0.39626
0.395483
0.394628
0.393682
0.392667
0.391687
0.390735
0.389755
0.388755
0.387725
0.386659
0.385575
0.384458
0.383315
0.382137
0.380925
0.379704
0.378455
0.377146
0.408555
0.412737
0.412529
0.411779
0.411189
0.410671
0.410124
0.409521
0.40886
0.408135
0.40734
0.406472
0.405525
0.404488
0.403349
0.402141
0.400971
0.399817
0.398626
0.397415
0.396175
0.394893
0.393574
0.392239
0.390869
0.389432
0.387982
0.386517
0.38503
0.421345
0.425154
0.42493
0.424146
0.423502
0.422924
0.422313
0.421641
0.420905
0.420098
0.419212
0.418243
0.417186
0.416037
0.414785
0.413423
0.411994
0.41059
0.409202
0.40778
0.406328
0.404834
0.403308
0.401755
0.400152
0.39852
0.396894
0.39521
0.393473
0.43479
0.438348
0.438102
0.437279
0.436582
0.435946
0.435273
0.434534
0.433724
0.432837
0.431864
0.430799
0.429637
0.428375
0.427009
0.425531
0.423937
0.42228
0.420647
0.419018
0.417356
0.415692
0.413957
0.412178
0.410398
0.408548
0.406637
0.404718
0.402795
0.448804
0.452202
0.451929
0.451066
0.450318
0.449625
0.448891
0.448087
0.447204
0.446237
0.445175
0.444014
0.442746
0.441367
0.439876
0.438268
0.436536
0.434686
0.432776
0.430876
0.428968
0.427016
0.425024
0.422997
0.420894
0.418767
0.416612
0.414359
0.412069
0.46326
0.466575
0.466274
0.465365
0.464563
0.463812
0.463014
0.462138
0.461176
0.46012
0.458961
0.45769
0.456301
0.454787
0.453147
0.451377
0.449472
0.447424
0.445248
0.443012
0.440767
0.438511
0.436213
0.433863
0.431502
0.429059
0.426561
0.424091
0.421546
0.478082
0.48137
0.481042
0.480084
0.479229
0.478419
0.477556
0.476608
0.475565
0.474419
0.473158
0.471776
0.470263
0.468613
0.466822
0.464888
0.462806
0.460572
0.45818
0.455657
0.453075
0.450491
0.447869
0.445244
0.442527
0.439764
0.437019
0.434088
0.431158
0.493165
0.496468
0.496114
0.495107
0.494199
0.493334
0.492407
0.491387
0.490263
0.489028
0.48767
0.486178
0.484543
0.48276
0.480822
0.478727
0.476471
0.474051
0.471463
0.468705
0.465816
0.462838
0.459861
0.456814
0.453725
0.450603
0.447351
0.444093
0.440784
0.508377
0.51173
0.51135
0.510293
0.509331
0.508409
0.507419
0.506327
0.505122
0.503794
0.502331
0.500723
0.49896
0.497034
0.49494
0.492673
0.490229
0.487606
0.484804
0.481813
0.478633
0.475296
0.471886
0.468443
0.464945
0.461419
0.457846
0.454201
0.450534
0.523619
0.527048
0.526646
0.525538
0.524524
0.523546
0.522492
0.521326
0.520037
0.518615
0.517048
0.515323
0.51343
0.511361
0.509109
0.506669
0.504037
0.501211
0.498191
0.494975
0.491559
0.487931
0.484153
0.480318
0.476415
0.472447
0.468444
0.464375
0.460208
0.538769
0.542299
0.541876
0.540718
0.539652
0.538618
0.5375
0.536262
0.534889
0.53337
0.531693
0.529845
0.527816
0.525598
0.523182
0.520562
0.517735
0.514698
0.511449
0.507989
0.504319
0.500432
0.496331
0.492063
0.487711
0.483255
0.478745
0.474164
0.469485
0.553722
0.557378
0.556935
0.555728
0.554611
0.553521
0.552338
0.551023
0.549561
0.547942
0.546152
0.544178
0.542007
0.53963
0.537039
0.534227
0.531191
0.527926
0.52443
0.520704
0.516749
0.512565
0.508148
0.503502
0.498681
0.493748
0.488752
0.483696
0.47856
0.568383
0.572189
0.57173
0.570473
0.569307
0.568162
0.566914
0.565521
0.563971
0.56225
0.560341
0.558232
0.555912
0.553369
0.550596
0.547584
0.54433
0.540829
0.537079
0.533079
0.528832
0.52434
0.519605
0.514622
0.509403
0.504003
0.498474
0.492818
0.48706
0.582665
0.586644
0.58617
0.584866
0.583651
0.582452
0.581138
0.579666
0.578022
0.576193
0.574161
0.571914
0.569439
0.566724
0.56376
0.560537
0.557053
0.553302
0.549282
0.544994
0.540437
0.535616
0.530533
0.52519
0.519585
0.513737
0.507674
0.501448
0.495087
0.596495
0.60067
0.600184
0.598833
0.597572
0.596319
0.594938
0.593386
0.591648
0.589709
0.587551
0.585159
0.582519
0.579619
0.57645
0.573003
0.569274
0.565257
0.56095
0.556352
0.551465
0.546291
0.540836
0.535105
0.5291
0.522828
0.516299
0.509548
0.502615
0.609811
0.614202
0.613707
0.61231
0.611004
0.609699
0.608252
0.606618
0.604782
0.602728
0.600436
0.597891
0.595079
0.591988
0.588606
0.584923
0.580933
0.576632
0.572017
0.567088
0.561847
0.556296
0.550442
0.544292
0.537854
0.531137
0.524145
0.516893
0.509414
0.62256
0.627188
0.626683
0.625243
0.623895
0.622538
0.621024
0.619307
0.617371
0.615199
0.612771
0.610069
0.607078
0.603783
0.600173
0.596237
0.591969
0.587364
0.582419
0.577134
0.571509
0.565549
0.559261
0.552654
0.545737
0.538524
0.531026
0.523238
0.515223
0.634704
0.639584
0.639072
0.637591
0.636203
0.634797
0.633218
0.631419
0.629382
0.62709
0.624521
0.621654
0.618474
0.614964
0.611114
0.606911
0.602348
0.597418
0.592118
0.586447
0.580407
0.574004
0.567244
0.560138
0.552699
0.544941
0.536884
0.528536
0.519923
0.646212
0.651357
0.650837
0.649317
0.647893
0.64644
0.644797
0.642915
0.640777
0.638362
0.635648
0.632612
0.629237
0.625507
0.621406
0.616922
0.612045
0.606768
0.601087
0.595002
0.588514
0.58163
0.574357
0.566707
0.558697
0.550345
0.541673
0.532703
0.523447
0.657065
0.662479
0.661951
0.660397
0.658941
0.657443
0.655738
0.653774
0.651535
0.648996
0.646134
0.642927
0.639352
0.635391
0.631028
0.626248
0.621039
0.615394
0.609307
0.602777
0.595806
0.5884
0.580568
0.572326
0.56369
0.554684
0.545332
0.535666
0.525707
0.667249
0.672934
0.672397
0.670813
0.669329
0.667791
0.666026
0.663984
0.661645
0.658984
0.655976
0.652593
0.648813
0.644614
0.639977
0.634886
0.629329
0.623294
0.616774
0.609768
0.602275
0.594304
0.585864
0.576972
0.567649
0.557921
0.547819
0.537378
0.526636
0.676762
0.682711
0.682164
0.680554
0.679048
0.677474
0.675653
0.673535
0.671098
0.668317
0.665161
0.661603
0.657615
0.653173
0.648256
0.642846
0.636923
0.630477
0.623497
0.61598
0.607927
0.599344
0.590242
0.58064
0.570562
0.560039
0.549108
0.53781
0.526193
0.685606
0.691808
0.691248
0.689618
0.688096
0.686489
0.684616
0.682426
0.679895
0.676995
0.673694
0.669959
0.665761
0.661074
0.655871
0.650129
0.643828
0.63695
0.629485
0.621426
0.612772
0.603529
0.593708
0.583331
0.572425
0.561027
0.549179
0.536933
0.524344
0.693792
0.700228
0.699652
0.698008
0.696476
0.694842
0.692922
0.690664
0.688044
0.68503
0.681585
0.677677
0.673271
0.668334
0.662838
0.656755
0.650061
0.642734
0.634759
0.626125
0.616829
0.606876
0.596277
0.585055
0.573241
0.560879
0.548019
0.534723
0.521059
0.701333
0.707982
0.707387
0.705737
0.704201
0.702545
0.700583
0.698262
0.695558
0.692434
0.688852
0.684773
0.68016
0.674975
0.669183
0.662752
0.655653
0.647859
0.639349
0.630107
0.620127
0.60941
0.597969
0.585826
0.573017
0.559592
0.545613
0.531154
0.5163
0.708251
0.715089
0.714469
0.712821
0.711289
0.709616
0.707616
0.705239
0.702456
0.699228
0.695512
0.691267
0.686448
0.681016
0.674928
0.668146
0.660634
0.652358
0.643289
0.633408
0.6227
0.611165
0.598812
0.585665
0.571764
0.557168
0.541949
0.526199
0.510022
0.714568
0.721569
0.720923
0.719284
0.717762
0.716079
0.714047
0.711619
0.708763
0.705436
0.701592
0.697185
0.692166
0.686489
0.680105
0.672968
0.665035
0.656265
0.646618
0.636066
0.624589
0.612178
0.59884
0.584599
0.569498
0.553605
0.537009
0.51982
0.502171
0.720307
0.727453
0.726775
0.725154
0.723651
0.721962
0.719905
0.717432
0.714509
0.71109
0.707125
0.702562
0.697349
0.691432
0.684755
0.677264
0.668907
0.65963
0.649386
0.638135
0.625845
0.6125
0.598098
0.582663
0.56624
0.548908
0.530773
0.511975
0.492677
0.725493
0.732773
0.732059
0.730464
0.728985
0.727297
0.725219
0.722708
0.719725
0.716221
0.712142
0.707432
0.702032
0.695882
0.68892
0.681081
0.672299
0.66251
0.651656
0.63968
0.626537
0.612197
0.596648
0.579908
0.562025
0.543087
0.523225
0.502612
0.481457
0.730147
0.737564
0.736808
0.735246
0.733799
0.732116
0.730024
0.72748
0.724445
0.720863
0.716678
0.711829
0.706252
0.69988
0.692643
0.684463
0.675264
0.664968
0.653499
0.64078
0.626749
0.611356
0.594574
0.57641
0.556911
0.536174
0.514359
0.491681
0.468413
0.734288
0.741863
0.741056
0.739534
0.738125
0.736451
0.73435
0.731781
0.728699
0.725048
0.720766
0.715789
0.710048
0.703468
0.695971
0.687467
0.67787
0.66708
0.654998
0.641531
0.626588
0.610093
0.591996
0.572284
0.550996
0.528239
0.5042
0.479153
0.453455
0.737934
0.745709
0.744837
0.743359
0.741991
0.740331
0.738226
0.735637
0.732517
0.728805
0.724437
0.719346
0.713457
0.706691
0.698958
0.690159
0.680188
0.668929
0.65626
0.642057
0.626196
0.608565
0.589079
0.567697
0.544439
0.519411
0.492831
0.465041
0.436516
0.741104
0.749134
0.748177
0.746747
0.745424
0.74378
0.741676
0.739074
0.735923
0.732161
0.727723
0.722536
0.716525
0.709601
0.701668
0.692614
0.682313
0.670632
0.657418
0.642512
0.62575
0.606974
0.58605
0.56289
0.537479
0.509909
0.480419
0.449435
0.417585
0.743818
0.752167
0.751099
0.74972
0.748444
0.74682
0.744723
0.742117
0.738947
0.735151
0.730662
0.725408
0.719309
0.712271
0.704189
0.694938
0.684372
0.672334
0.658642
0.643094
0.62548
0.605582
0.583203
0.558187
0.530455
0.500059
0.467248
0.432525
0.396726
0.746105
0.754829
0.75362
0.752297
0.751072
0.749473
0.747391
0.744793
0.741622
0.737817
0.73331
0.72803
0.721893
0.714802
0.70664
0.697265
0.686518
0.674214
0.660138
0.644044
0.625664
0.604715
0.580913
0.554006
0.523819
0.490313
0.453732
0.41463
0.374117
0.748004
0.757136
0.755755
0.7545
0.753329
0.751763
0.749712
0.747142
0.743999
0.740221
0.735745
0.730496
0.724386
0.717312
0.70915
0.699747
0.688924
0.676471
0.662136
0.645631
0.626625
0.60475
0.579622
0.550857
0.518142
0.481276
0.44045
0.39618
0.350023
0.74956
0.7591
0.757523
0.756354
0.755245
0.753725
0.751726
0.749216
0.74614
0.74244
0.738051
0.732899
0.726893
0.719927
0.711867
0.70255
0.691781
0.679323
0.664889
0.648145
0.628697
0.606083
0.579802
0.549299
0.51408
0.473678
0.428164
0.37778
0.324826
0.750824
0.760738
0.75895
0.757894
0.756857
0.755403
0.753486
0.751073
0.74811
0.744543
0.740309
0.735335
0.729529
0.722778
0.714941
0.705842
0.695268
0.682962
0.668605
0.651819
0.632147
0.609039
0.581863
0.549857
0.512306
0.468318
0.417792
0.360259
0.299094
0.751846
0.762074
0.760073
0.759161
0.758207
0.756842
0.755038
0.752761
0.749961
0.746588
0.742582
0.737869
0.732354
0.725918
0.718411
0.709646
0.699397
0.687391
0.673285
0.656666
0.637025
0.61372
0.586002
0.552866
0.513358
0.465955
0.410351
0.344609
0.273624
0.752672
0.763144
0.760935
0.760199
0.759337
0.758083
0.75642
0.754313
0.751718
0.748586
0.744857
0.740454
0.735276
0.729202
0.722079
0.713715
0.703879
0.692286
0.678583
0.66233
0.642981
0.619811
0.591974
0.558201
0.517325
0.466976
0.406651
0.331869
0.249382
0.753343
0.763996
0.76159
0.761055
0.760289
0.759161
0.757655
0.755736
0.75336
0.750477
0.747023
0.742918
0.738064
0.732337
0.725586
0.71762
0.708209
0.697067
0.683838
0.668067
0.649189
0.626413
0.598829
0.564905
0.523334
0.470731
0.406407
0.322334
0.226632
0.753895
0.764683
0.762091
0.761771
0.761096
0.760099
0.758748
0.757008
0.75483
0.752161
0.748937
0.745077
0.740483
0.735033
0.728577
0.72093
0.711868
0.701105
0.68829
0.672961
0.654544
0.632203
0.605003
0.571165
0.529332
0.47503
0.407344
0.314255
0.203187
0.754294
0.765197
0.762432
0.762324
0.761725
0.760844
0.759624
0.758026
0.755999
0.753487
0.750425
0.746731
0.742306
0.737029
0.730756
0.723303
0.714448
0.703911
0.69134
0.676266
0.65811
0.63599
0.608971
0.575032
0.532841
0.476742
0.405572
0.302625
0.172407
0.754366
0.765377
0.762443
0.762519
0.76196
0.761153
0.760009
0.758489
0.756542
0.754112
0.751131
0.747516
0.743168
0.737967
0.731766
0.724383
0.715595
0.705118
0.692595
0.677547
0.659379
0.637154
0.609926
0.575399
0.532338
0.473637
0.39828
0.281154
0.126312
0.754174
0.765244
0.76215
0.762355
0.761794
0.760999
0.759855
0.758329
0.756374
0.753934
0.750945
0.747323
0.742967
0.737756
0.731539
0.724131
0.715303
0.704764
0.692147
0.676951
0.658564
0.635977
0.608215
0.572681
0.528266
0.466231
0.38641
0.251294
0.0639168
0.755596
0.766625
0.763498
0.763804
0.763303
0.762583
0.761501
0.760015
0.758071
0.755611
0.75257
0.748872
0.744422
0.7391
0.732761
0.725219
0.716245
0.70554
0.692729
0.677292
0.658596
0.635578
0.607209
0.570671
0.524824
0.459899
0.376803
0.231187
0.0158488
0.763184
0.774382
0.771582
0.77215
0.772156
0.772072
0.771719
0.770972
0.769698
0.767784
0.765139
0.761682
0.757333
0.751994
0.745545
0.737822
0.728614
0.71764
0.704534
0.68879
0.669765
0.646443
0.617638
0.580948
0.533848
0.469552
0.383817
0.262174
0.151964
0.331105
0.33046
0.329806
0.329145
0.328479
0.327806
0.327125
0.326439
0.325747
0.325048
0.324345
0.323636
0.32292
0.3222
0.321474
0.320743
0.320009
0.319269
0.318525
0.317776
0.317026
0.316272
0.315516
0.314759
0.314004
0.31325
0.312488
0.311725
0.310965
0.310204
0.309442
0.308681
0.307921
0.30716
0.3064
0.305641
0.304883
0.304126
0.303371
0.302617
0.301864
0.301113
0.300365
0.299619
0.298876
0.298137
0.297402
0.29667
0.295943
0.29522
0.294502
0.293788
0.293079
0.292375
0.291677
0.290983
0.290295
0.289613
0.288937
0.288267
0.287603
0.286945
0.286294
0.28565
0.285012
0.284382
0.283758
0.283142
0.282533
0.281931
0.281338
0.280752
0.280175
0.279605
0.279043
0.278491
0.277947
0.277411
0.276886
0.276368
0.275861
0.275363
0.274875
0.274396
0.273927
0.273469
0.27302
0.272582
0.272155
0.271738
0.271332
0.270937
0.270553
0.27018
0.269817
0.269466
0.269126
0.268797
0.268478
0.268171
0.267876
0.267591
0.267318
0.267055
0.266804
0.266564
0.266335
0.266117
0.26591
0.265714
0.265529
0.265354
0.265189
0.265035
0.26489
0.264755
0.264631
0.264516
0.264411
0.264315
0.264229
0.264151
0.264082
0.264022
0.26397
0.263925
0.263888
0.26386
0.263835
0.263821
0.263812
0.263809
0.263816
0.263824
0.263854
0.263873
0.263938
0.263952
0.264108
0.331733
0.331058
0.330376
0.32969
0.328996
0.328296
0.327591
0.326881
0.326166
0.325445
0.324721
0.323992
0.323261
0.322526
0.321787
0.321046
0.320303
0.319556
0.318809
0.31806
0.317308
0.316553
0.315794
0.315031
0.314258
0.313477
0.312705
0.311934
0.311154
0.310372
0.309589
0.308803
0.308025
0.307258
0.306492
0.305726
0.304962
0.304198
0.303437
0.302679
0.301924
0.301172
0.300417
0.299653
0.29888
0.298108
0.297342
0.296584
0.295835
0.295093
0.294356
0.293624
0.292897
0.292174
0.291456
0.290743
0.290036
0.289334
0.288637
0.287947
0.287264
0.286587
0.285917
0.285255
0.284598
0.283949
0.283308
0.282672
0.282044
0.281424
0.280808
0.280204
0.279603
0.279006
0.278416
0.277836
0.277266
0.2767
0.276143
0.2756
0.275072
0.274553
0.274049
0.27355
0.27306
0.272578
0.272107
0.271657
0.271216
0.270787
0.270371
0.269966
0.269573
0.269189
0.268815
0.268452
0.268101
0.267761
0.267432
0.267115
0.266811
0.266518
0.266238
0.265971
0.265716
0.265473
0.265243
0.265024
0.264819
0.264625
0.264444
0.264274
0.264116
0.263969
0.263833
0.263708
0.263594
0.26349
0.263396
0.263313
0.26324
0.263176
0.263122
0.263077
0.263039
0.26301
0.262988
0.262971
0.262966
0.262953
0.26296
0.262948
0.262968
0.262939
0.262981
0.262939
0.26298
0.262919
0.262876
0.333017
0.332314
0.331611
0.330899
0.330183
0.329462
0.328736
0.328003
0.327265
0.326523
0.325775
0.325022
0.324263
0.323498
0.32273
0.321955
0.321175
0.320392
0.3196
0.318803
0.318002
0.3172
0.316395
0.315587
0.314791
0.314007
0.313216
0.312404
0.311585
0.310771
0.309957
0.309143
0.30832
0.307493
0.306666
0.305842
0.305019
0.304197
0.303374
0.302552
0.301729
0.300911
0.300101
0.299306
0.298521
0.29774
0.296959
0.296175
0.295389
0.294602
0.293816
0.293031
0.292248
0.291471
0.290699
0.289932
0.289171
0.288417
0.287669
0.286928
0.286192
0.285464
0.284742
0.284027
0.283321
0.282622
0.281932
0.281252
0.28058
0.279918
0.279266
0.278622
0.277992
0.277377
0.276775
0.27618
0.275598
0.275029
0.27447
0.27392
0.273372
0.272837
0.272309
0.271797
0.271297
0.27081
0.270335
0.269859
0.269395
0.268944
0.268503
0.268077
0.267667
0.267269
0.266886
0.266515
0.266158
0.265813
0.265482
0.265164
0.264858
0.264566
0.264287
0.26402
0.263766
0.263526
0.263298
0.263083
0.262882
0.262693
0.262518
0.262356
0.262207
0.262071
0.261949
0.26184
0.261744
0.261661
0.261591
0.261533
0.261489
0.261456
0.261435
0.261427
0.26143
0.261445
0.261472
0.261509
0.261559
0.261624
0.261709
0.261766
0.261858
0.261967
0.261974
0.262195
0.262014
0.26256
0.262012
0.334748
0.334006
0.333256
0.332497
0.331737
0.330967
0.33019
0.329407
0.328616
0.327816
0.32701
0.326199
0.325381
0.324555
0.323725
0.32289
0.322048
0.321201
0.320355
0.319506
0.318654
0.317789
0.316924
0.316055
0.315193
0.314345
0.313475
0.312594
0.311727
0.310855
0.309975
0.309097
0.308223
0.307346
0.306475
0.305603
0.304724
0.303843
0.30296
0.302076
0.301191
0.300308
0.299423
0.298544
0.297677
0.296819
0.295963
0.295109
0.294257
0.29341
0.292568
0.291733
0.290905
0.290083
0.289265
0.288452
0.287645
0.286845
0.286051
0.285263
0.284482
0.283709
0.282944
0.282187
0.281439
0.2807
0.27997
0.279252
0.278544
0.277847
0.277163
0.276488
0.275827
0.275181
0.274546
0.273921
0.273305
0.272703
0.272113
0.271522
0.27094
0.270376
0.26982
0.269273
0.268731
0.268202
0.267691
0.267199
0.266722
0.266252
0.265791
0.265342
0.26491
0.264494
0.264093
0.263707
0.263336
0.262979
0.262637
0.262308
0.261994
0.261695
0.261409
0.261137
0.26088
0.260637
0.260409
0.260194
0.259993
0.259806
0.259633
0.259472
0.259324
0.259191
0.259075
0.258977
0.258898
0.258838
0.258797
0.258775
0.258774
0.258793
0.258832
0.258892
0.258974
0.259079
0.259198
0.259339
0.259512
0.259673
0.259841
0.2602
0.260104
0.26095
0.260102
0.262177
0.259948
0.263731
0.259275
0.336678
0.335888
0.335086
0.33428
0.333465
0.332639
0.331807
0.330968
0.330123
0.329272
0.328414
0.327548
0.326678
0.325805
0.324921
0.32403
0.32314
0.322243
0.321334
0.320412
0.319486
0.318568
0.317643
0.31671
0.315747
0.314758
0.313779
0.312821
0.311856
0.310895
0.309963
0.309019
0.308046
0.307079
0.306116
0.305156
0.304199
0.303246
0.302298
0.301356
0.300418
0.299482
0.298547
0.297611
0.296672
0.295732
0.294796
0.293867
0.292945
0.292031
0.291124
0.290223
0.28933
0.288444
0.287565
0.286694
0.285833
0.284979
0.284133
0.283298
0.282471
0.281654
0.280846
0.280048
0.279259
0.27848
0.27771
0.27695
0.276198
0.275455
0.274723
0.273997
0.273282
0.272573
0.271873
0.271186
0.270506
0.269837
0.269178
0.268534
0.267909
0.267291
0.266695
0.266111
0.265543
0.264991
0.264442
0.263902
0.263374
0.262868
0.262378
0.261903
0.261436
0.260984
0.26055
0.260132
0.259728
0.25934
0.258967
0.25861
0.258269
0.257943
0.257633
0.257339
0.257063
0.256802
0.256559
0.256332
0.256124
0.255935
0.255765
0.255617
0.255491
0.255388
0.255307
0.255244
0.255202
0.25518
0.255179
0.255199
0.255241
0.255305
0.255392
0.255502
0.255635
0.255797
0.255999
0.256212
0.256465
0.256911
0.256889
0.258012
0.25708
0.26008
0.256818
0.263311
0.255455
0.268532
0.250081
0.339114
0.338304
0.337489
0.336658
0.335804
0.334938
0.334071
0.333184
0.332276
0.331355
0.330421
0.329477
0.328517
0.327546
0.326573
0.325591
0.324584
0.323569
0.322557
0.321564
0.320564
0.319534
0.31849
0.317452
0.316418
0.315383
0.314366
0.313374
0.312366
0.311319
0.310244
0.309176
0.308129
0.307072
0.306
0.30493
0.30387
0.302817
0.301769
0.300726
0.299687
0.298653
0.297625
0.2966
0.295578
0.294561
0.293552
0.292546
0.291545
0.290548
0.289558
0.288574
0.287599
0.286631
0.285671
0.284719
0.283777
0.282843
0.281918
0.281003
0.280097
0.279201
0.278314
0.277437
0.27657
0.275712
0.274864
0.274025
0.273196
0.272377
0.271565
0.270765
0.269972
0.269187
0.26841
0.267645
0.266897
0.266157
0.265433
0.264735
0.26406
0.263403
0.262756
0.262129
0.26153
0.260942
0.26037
0.259818
0.259284
0.258761
0.258254
0.257757
0.257275
0.256804
0.256343
0.255893
0.255456
0.255035
0.254629
0.25424
0.253867
0.253513
0.253176
0.252858
0.252559
0.252279
0.25202
0.251781
0.251565
0.251369
0.251195
0.251042
0.250911
0.250801
0.250713
0.250647
0.250603
0.250581
0.250584
0.25061
0.250663
0.250745
0.250856
0.251002
0.251182
0.251388
0.25164
0.252004
0.252093
0.252965
0.252469
0.254446
0.252718
0.256282
0.252795
0.258462
0.251368
0.26496
0.234193
0.342012
0.341165
0.340293
0.339386
0.338471
0.337541
0.336571
0.335588
0.334597
0.333609
0.332597
0.331572
0.330541
0.329483
0.328411
0.327336
0.326269
0.3252
0.324095
0.322967
0.321831
0.320706
0.31961
0.318493
0.317338
0.316198
0.315072
0.313913
0.312743
0.311574
0.3104
0.309227
0.308051
0.306886
0.305745
0.304615
0.303479
0.302334
0.301186
0.300036
0.298887
0.29774
0.296599
0.295465
0.29434
0.293219
0.292087
0.290953
0.289837
0.288738
0.287648
0.286567
0.285494
0.284428
0.28337
0.282321
0.28128
0.280248
0.279225
0.278211
0.277208
0.276214
0.275232
0.274262
0.273305
0.27236
0.271429
0.270511
0.269609
0.268723
0.26785
0.266998
0.266163
0.265347
0.26455
0.26377
0.263006
0.262254
0.261518
0.260785
0.260059
0.259348
0.258637
0.257939
0.257246
0.256565
0.255916
0.255278
0.254651
0.254045
0.253456
0.252885
0.252338
0.251814
0.25131
0.25083
0.250374
0.249938
0.249521
0.249122
0.248741
0.248376
0.24803
0.247701
0.247388
0.247094
0.246817
0.24656
0.246321
0.246103
0.245903
0.245725
0.245566
0.245429
0.245314
0.245222
0.245153
0.24511
0.245092
0.245102
0.245139
0.245205
0.245298
0.245417
0.24557
0.245746
0.245871
0.246247
0.246143
0.246876
0.246405
0.247527
0.246779
0.24802
0.247564
0.248249
0.247807
0.254651
0.222558
0.345521
0.344584
0.343614
0.34264
0.341652
0.340618
0.339575
0.338554
0.337498
0.336385
0.335268
0.334135
0.332983
0.331867
0.33074
0.329543
0.328326
0.327097
0.325863
0.324641
0.323411
0.322149
0.320859
0.319579
0.318324
0.317046
0.315724
0.314394
0.313092
0.31182
0.310547
0.309271
0.307993
0.306706
0.305418
0.30413
0.302843
0.301564
0.300292
0.299025
0.29776
0.296497
0.295234
0.293971
0.292708
0.291452
0.290207
0.288971
0.287738
0.286522
0.28533
0.284145
0.282968
0.2818
0.280641
0.279494
0.278356
0.27723
0.276116
0.275013
0.273924
0.272848
0.271787
0.27074
0.269708
0.268691
0.267687
0.266696
0.265719
0.264758
0.263811
0.26288
0.261962
0.261054
0.260158
0.25927
0.258384
0.257509
0.256654
0.255832
0.255034
0.254252
0.253504
0.252774
0.252064
0.251387
0.250718
0.250057
0.24942
0.248799
0.248186
0.247595
0.247016
0.246449
0.245901
0.245368
0.244851
0.24435
0.243868
0.243407
0.242966
0.242546
0.242148
0.241771
0.241416
0.241083
0.24077
0.240478
0.240207
0.239956
0.239725
0.239516
0.239327
0.23916
0.239014
0.23889
0.238788
0.238706
0.238646
0.238605
0.238584
0.238575
0.238582
0.238597
0.238625
0.238695
0.238655
0.238869
0.238724
0.239096
0.238869
0.239351
0.239139
0.239406
0.240052
0.239288
0.239328
0.246301
0.21696
0.350019
0.348967
0.347907
0.346806
0.345662
0.344524
0.343373
0.342137
0.340889
0.33964
0.338406
0.337158
0.335863
0.334499
0.333114
0.331772
0.330446
0.32912
0.327754
0.326344
0.324944
0.323552
0.322152
0.320748
0.319324
0.317885
0.316465
0.315075
0.313652
0.312186
0.310722
0.309269
0.307823
0.306377
0.304935
0.303493
0.302054
0.300621
0.299192
0.297771
0.296359
0.294957
0.293568
0.292193
0.290835
0.289469
0.288101
0.286748
0.285405
0.284055
0.282708
0.281386
0.280086
0.278802
0.277532
0.276275
0.275033
0.273805
0.272592
0.271393
0.270209
0.269039
0.267883
0.266739
0.265609
0.264491
0.263384
0.262295
0.261221
0.260157
0.259113
0.25808
0.257064
0.25607
0.2551
0.254152
0.253231
0.252349
0.251476
0.250604
0.249751
0.248917
0.248091
0.247272
0.246482
0.245708
0.244943
0.244217
0.243512
0.24282
0.242168
0.241532
0.240913
0.240322
0.239745
0.239187
0.238646
0.238123
0.237619
0.237132
0.236662
0.236212
0.235779
0.235364
0.234969
0.234593
0.234237
0.233901
0.233583
0.233288
0.233011
0.232755
0.232519
0.232303
0.232104
0.231925
0.231761
0.231613
0.23148
0.231358
0.231251
0.231156
0.23107
0.230994
0.230917
0.230899
0.23078
0.230863
0.230695
0.230889
0.230677
0.230944
0.230959
0.230651
0.231094
0.230177
0.22876
0.235628
0.209969
0.355308
0.354119
0.352862
0.351589
0.350319
0.348985
0.347608
0.34624
0.344862
0.343453
0.341982
0.340487
0.339001
0.337539
0.336112
0.334622
0.333053
0.331481
0.329915
0.328376
0.326827
0.325226
0.323604
0.321981
0.320368
0.318796
0.317223
0.31562
0.31401
0.312416
0.310825
0.309225
0.30763
0.306025
0.304413
0.302812
0.301221
0.299629
0.298041
0.29646
0.294885
0.293316
0.291751
0.290188
0.288635
0.287107
0.285599
0.284103
0.282624
0.281153
0.279691
0.278266
0.276866
0.275467
0.274077
0.272698
0.271333
0.269985
0.268651
0.267335
0.266033
0.264749
0.263478
0.262225
0.260981
0.259757
0.258552
0.257368
0.256209
0.255068
0.253947
0.252846
0.251756
0.250693
0.249654
0.248638
0.247652
0.246681
0.245727
0.244802
0.243906
0.243028
0.242171
0.241333
0.240496
0.239689
0.238914
0.238132
0.23737
0.236648
0.235922
0.235211
0.234531
0.233865
0.233217
0.232594
0.231993
0.231414
0.230858
0.230324
0.229811
0.229319
0.228845
0.228392
0.227956
0.227541
0.227142
0.226762
0.226401
0.226055
0.225728
0.225417
0.225123
0.224843
0.22458
0.22433
0.224096
0.223874
0.223667
0.223471
0.223289
0.223121
0.222967
0.222832
0.222686
0.222616
0.222447
0.222467
0.222275
0.222362
0.222219
0.222199
0.222515
0.222112
0.222075
0.221385
0.220068
0.226024
0.203708
0.361392
0.359998
0.358588
0.357153
0.355643
0.354155
0.352665
0.3511
0.349508
0.347895
0.346302
0.344694
0.343015
0.341304
0.339541
0.337758
0.336055
0.33434
0.332554
0.330753
0.328932
0.327156
0.325432
0.32363
0.321798
0.319987
0.318188
0.316379
0.314542
0.312687
0.310856
0.309038
0.307196
0.305385
0.303617
0.301862
0.300106
0.298352
0.296608
0.294871
0.293142
0.291426
0.289727
0.288034
0.286343
0.284653
0.28297
0.281309
0.279666
0.278053
0.276457
0.27487
0.273296
0.271746
0.270219
0.268713
0.267227
0.265759
0.264311
0.262881
0.261473
0.260084
0.25872
0.25738
0.256068
0.254778
0.25351
0.25226
0.251031
0.249823
0.248631
0.247467
0.246323
0.245198
0.244092
0.243
0.241926
0.240886
0.239864
0.238847
0.237854
0.236907
0.235973
0.235051
0.234172
0.233321
0.232481
0.231662
0.230869
0.230093
0.229337
0.228602
0.227879
0.227168
0.22648
0.225813
0.225158
0.224527
0.223914
0.223321
0.222748
0.222195
0.221662
0.221149
0.220658
0.220184
0.219733
0.219298
0.218881
0.218483
0.218099
0.217733
0.217381
0.217045
0.216722
0.216413
0.216119
0.215838
0.21557
0.215319
0.215079
0.214857
0.214648
0.214476
0.214278
0.214178
0.213993
0.21396
0.213812
0.21381
0.213735
0.213589
0.213668
0.213118
0.212724
0.212137
0.211118
0.216197
0.196648
0.3683
0.366718
0.365084
0.363447
0.361788
0.360048
0.358268
0.35648
0.354701
0.352852