/*--------------------------------*- C++ -*----------------------------------*\
| =========                 |                                                 |
| \\      /  F ield         | OpenFOAM: The Open Source CFD Toolbox           |
|  \\    /   O peration     | Version:  5.x                                   |
|   \\  /    A nd           | Web:      www.OpenFOAM.org                      |
|    \\/     M anipulation  |                                                 |
\*---------------------------------------------------------------------------*/
/*   Windows 32 and 64 bit porting by blueCAPE: http://www.bluecape.com.pt   *\
|  Based on Windows porting (2.0.x v4) by Symscape: http://www.symscape.com   |
\*---------------------------------------------------------------------------*/
FoamFile
{
    version     2.0;
    format      ascii;
    class       surfaceScalarField;
    location    "300";
    object      phi;
}
// * * * * * * * * * * * * * * * * * * * * * * * * * * * * * * * * * * * * * //

dimensions      [0 3 -1 0 0 0 0];

internalField   nonuniform List<scalar> 
87341
(
0.365216
39.5578
0.528532
39.7597
0.49464
39.9569
0.600084
39.8176
0.635203
39.8879
0.678497
39.8797
0.713552
39.888
0.749566
39.887
0.78529
39.8873
0.816908
39.8914
0.851478
39.8885
0.881935
39.8926
0.907578
39.8974
0.929298
39.9013
0.949424
39.9029
0.971391
39.9011
0.989468
39.905
1.00338
39.9091
1.0186
39.9078
1.03231
39.9093
1.04687
39.9085
1.06182
39.9081
1.07276
39.9121
1.08385
39.9119
1.09506
39.9118
1.10434
39.9138
1.11538
39.912
1.12625
39.9122
39.9153
1.13397
0.971021
38.5868
1.36351
39.3672
1.47545
39.845
1.61361
39.6794
1.65483
39.8467
1.81421
39.7204
1.91706
39.7851
2.04887
39.7552
2.14413
39.7921
2.24666
39.7889
2.33912
39.796
2.43299
39.7987
2.52406
39.8063
2.60828
39.8171
2.69002
39.8212
2.76114
39.83
2.82545
39.8406
2.89329
39.8413
2.95477
39.8463
3.01211
39.852
3.06591
39.8547
3.1123
39.8617
3.15904
39.8654
3.20512
39.8659
3.24632
39.8706
3.28837
39.8717
3.328
39.8724
3.36221
39.878
39.8792
3.39835
2.03746
36.5493
3.35624
38.0485
4.13769
39.0635
4.22379
39.5933
4.38505
39.6854
4.32329
39.7821
4.35919
39.7492
4.33897
39.7754
4.36518
39.7658
4.38511
39.769
4.40855
39.7726
4.43589
39.7714
4.47047
39.7717
4.51351
39.7741
4.55337
39.7813
4.59457
39.7888
4.64764
39.7876
4.69851
39.7904
4.7455
39.7993
4.79546
39.802
4.84304
39.8071
4.89248
39.8123
4.94438
39.8135
4.99401
39.8162
5.04466
39.82
5.092
39.8244
5.13202
39.8324
5.17463
39.8353
39.8339
5.21987
1.69835
34.851
3.50093
36.2459
4.95351
37.611
5.84203
38.7048
6.14369
39.3838
6.23229
39.6935
6.24831
39.7332
6.28002
39.7437
6.29887
39.747
6.31072
39.7571
6.31827
39.765
6.31912
39.7705
6.3196
39.7713
6.32172
39.7719
6.33474
39.7683
6.35558
39.7679
6.37095
39.7722
6.38541
39.776
6.41244
39.7723
6.44118
39.7733
6.47331
39.775
6.51133
39.7742
6.54696
39.7778
6.57541
39.7878
6.60363
39.7918
6.63615
39.7918
6.68226
39.7862
6.73266
39.7849
39.7924
6.77423
1.0904
33.7606
2.4595
34.8768
4.03491
36.0355
5.50239
37.2373
6.57574
38.3104
7.16679
39.1025
7.37855
39.5215
7.42702
39.6953
7.47408
39.6999
7.52439
39.7068
7.57149
39.7179
7.62157
39.7204
7.6714
39.7214
7.71772
39.7256
7.76071
39.7253
7.80219
39.7264
7.85354
39.7209
7.90837
39.7211
7.95087
39.7298
7.99449
39.7297
8.03917
39.7303
8.07613
39.7373
8.11648
39.7375
8.17103
39.7332
8.23596
39.7268
8.3032
39.7246
8.35508
39.7344
8.39529
39.7447
39.747
8.44063
0.858293
32.9023
1.87512
33.8599
3.04914
34.8615
4.38462
35.9019
5.74447
36.9506
6.8873
37.9596
7.6201
38.7887
7.97911
39.3362
8.11491
39.5641
8.20503
39.6167
8.30435
39.6186
8.40045
39.6243
8.48692
39.635
8.5758
39.6367
8.66498
39.6361
8.74711
39.6443
8.8248
39.6432
8.90521
39.6407
8.99342
39.6416
9.07879
39.6443
9.1561
39.653
9.24323
39.6501
9.33575
39.645
9.41824
39.6507
9.48589
39.6592
9.54848
39.662
9.61097
39.6719
9.69487
39.6608
39.6539
9.78802
0.752227
32.1501
1.60606
33.0061
2.56326
33.9043
3.62783
34.8373
4.78942
35.789
6.00861
36.7404
7.12642
37.6709
7.96032
38.5024
8.42355
39.1009
8.6279
39.4123
8.74937
39.4971
8.87684
39.4969
9.01137
39.5004
9.13375
39.5144
9.25443
39.5154
9.38386
39.5149
9.50244
39.5246
9.61168
39.5315
9.71932
39.534
9.83265
39.531
9.95621
39.5294
10.0718
39.5346
10.1724
39.5443
10.2654
39.5577
10.3652
39.5595
10.4742
39.5529
10.5987
39.5475
10.7061
39.5534
39.5612
10.7988
0.698481
31.4516
1.46647
32.2381
2.30753
33.0633
3.2239
33.9209
4.21306
34.7998
5.2661
35.6874
6.36809
36.5689
7.44703
37.4234
8.32527
38.2227
8.88714
38.8505
9.15738
39.2269
9.30745
39.3468
9.45917
39.3487
9.6173
39.3562
9.76467
39.3681
9.91003
39.3695
10.0689
39.3657
10.2265
39.3739
10.3757
39.3848
10.5188
39.3878
10.6517
39.3965
10.7851
39.4012
10.931
39.3984
11.0922
39.3966
11.2483
39.4033
11.3905
39.4107
11.5194
39.4186
11.6444
39.4283
39.4286
11.777
0.670706
30.7809
1.39182
31.517
2.16794
32.2872
3.00108
33.0878
3.89076
33.9102
4.83346
34.7447
5.82165
35.5807
6.83921
36.4059
7.85646
37.2054
8.74722
37.9597
9.37694
38.5972
9.70534
39.0184
9.88719
39.1669
10.0645
39.1789
10.2463
39.1863
10.4207
39.1952
10.5798
39.2065
10.7506
39.2031
10.9331
39.2023
11.111
39.2099
11.2874
39.2201
11.4654
39.2232
11.6304
39.2334
11.7885
39.2385
11.9388
39.253
12.0945
39.255
12.2448
39.2684
12.388
39.2851
39.2911
12.5255
0.653635
30.1272
1.35014
30.8205
2.0887
31.5486
2.87101
32.3055
3.69728
33.0839
4.56593
33.876
5.47311
34.6735
6.41167
35.4673
7.36968
36.2474
8.32776
37.0016
9.21299
37.7119
9.88773
38.3436
10.2721
38.7825
10.4888
38.9622
10.6921
38.9829
10.8933
38.994
11.1022
38.9976
11.2974
39.0079
11.4756
39.0241
11.6702
39.0153
11.8708
39.0196
12.0587
39.0353
12.2435
39.0486
12.4269
39.0551
12.6147
39.0652
12.7925
39.0772
12.9767
39.0843
13.1701
39.0916
39.1001
13.3612
0.650917
29.4763
1.33585
30.1356
2.05558
30.8289
2.81075
31.5503
3.60121
32.2935
4.42579
33.0514
5.28213
33.8171
6.16626
34.5832
7.07198
35.3417
7.98963
36.084
8.90253
36.799
9.77529
37.4709
10.4719
38.0859
10.8973
38.5369
11.1482
38.732
11.3804
38.7618
11.6107
38.7672
11.8499
38.7688
12.0779
38.7961
12.2832
38.81
12.481
38.8218
12.6977
38.8186
12.9244
38.8219
13.1415
38.838
13.3554
38.8513
13.5585
38.874
13.7516
38.8912
13.9268
38.9164
38.9194
14.1075
0.655609
28.8207
1.33966
29.4515
2.05377
30.1148
2.79815
30.8059
3.57247
31.5191
4.37563
32.2483
5.20572
32.9871
6.0599
33.729
6.93405
34.4675
7.82219
35.1958
8.71506
35.9062
9.59668
36.5893
10.4501
37.2324
11.1633
37.8237
11.6214
38.2739
11.9125
38.4708
12.1794
38.5003
12.4315
38.5166
12.7021
38.5254
12.9634
38.5488
13.2282
38.5569
13.4776
38.5692
13.7184
38.5811
13.956
38.6004
14.1855
38.6218
14.4194
38.6402
14.668
38.6426
14.9232
38.6612
38.6922
15.1504
0.661597
28.1591
1.34973
28.7634
2.06449
29.4
2.80581
30.0646
3.57324
30.7517
4.36589
31.4556
5.18213
32.1708
6.01968
32.8914
6.87545
33.6118
7.7453
34.326
8.62348
35.028
9.50169
35.711
10.3673
36.3668
11.207
36.984
11.9284
37.5524
12.4024
37.9968
12.7146
38.1881
13.0102
38.2211
13.2877
38.2479
13.593
38.2436
13.8845
38.2653
14.1587
38.2951
14.4179
38.3219
14.6763
38.342
14.9388
38.3593
15.178
38.401
15.3919
38.4288
15.5998
38.4533
38.4636
15.8283
0.671138
27.488
1.36642
28.0681
2.08604
28.6804
2.82984
29.3208
3.59702
29.9845
4.38664
30.666
5.19738
31.3601
6.02729
32.0615
6.87386
32.7652
7.73393
33.4659
8.60342
34.1585
9.47695
34.8375
10.347
35.4968
11.2024
36.1286
12.032
36.7228
12.7571
37.2718
13.2366
37.7086
13.5672
37.8904
13.8933
37.9219
14.1774
37.9595
14.4665
37.9762
14.7598
38.0018
15.0538
38.0278
15.3405
38.0553
15.6206
38.0792
15.9238
38.0978
16.242
38.1105
16.5355
38.1599
38.2121
16.787
0.68474
26.8032
1.39184
27.361
2.12143
27.9508
2.87351
28.5687
3.64744
29.2106
4.44202
29.8714
5.25603
30.5461
6.08792
31.2296
6.93562
31.9175
7.79658
32.6049
8.66768
33.2874
9.54498
33.9602
10.4233
34.6184
11.2956
35.2564
12.1513
35.8671
12.9819
36.4412
13.7162
36.9744
14.2091
37.3974
14.5676
37.5634
14.9154
37.6116
15.2369
37.6548
15.5558
37.6829
15.8874
37.6962
16.224
37.7187
16.5428
37.7604
16.8267
37.8138
17.0779
37.8593
17.3621
37.8758
37.8696
17.7045
0.699098
26.1041
1.4194
26.6407
2.16083
27.2093
2.92321
27.8063
3.70619
28.4276
4.50874
29.0689
5.32935
29.7255
6.16658
30.3924
7.01871
31.0653
7.88361
31.74
8.75869
32.4123
9.64084
33.0781
10.5261
33.7331
11.4095
34.373
12.2841
34.9925
13.1399
35.5854
13.9703
36.1439
14.703
36.6648
15.1947
37.0717
15.5684
37.2379
15.9296
37.2935
16.2922
37.3203
16.6277
37.3606
16.9495
37.3969
17.2719
37.4381
17.6164
37.4693
17.9543
37.5214
18.2392
37.5909
37.6466
18.4622
0.713057
25.3911
1.4465
25.9073
2.20008
26.4558
2.97338
27.033
3.76587
27.6351
4.57685
28.2579
5.40499
28.8973
6.2486
29.5488
7.10597
30.208
7.97512
30.8709
8.85376
31.5337
9.7392
32.1926
10.6283
32.8441
11.517
33.4842
12.4004
34.1091
13.2717
34.7141
14.1219
35.2937
14.9447
35.8419
15.6616
36.3548
16.1557
36.7439
16.5563
36.8929
16.9343
36.9423
17.3113
36.9837
17.6712
37.0369
18.0001
37.1092
18.3061
37.1633
18.6361
37.1914
19.0164
37.2106
37.2675
19.3955
0.728108
24.663
1.47593
25.1594
2.2432
25.6885
3.02942
26.2468
3.83388
26.8307
4.65577
27.436
5.49412
28.059
6.3474
28.6955
7.21391
29.3415
8.09186
29.9929
8.97914
30.6464
9.87337
31.2984
10.7719
31.9456
11.6715
32.5846
12.5684
33.2121
13.4581
33.8244
14.3345
34.4173
15.1904
34.9861
16.0192
35.5261
16.7326
36.0305
17.2383
36.3872
17.6467
36.5338
18.0131
36.6173
18.3987
36.6513
18.7865
36.7214
19.1854
36.7644
19.5247
36.8521
19.7983
36.937
36.9712
20.0946
0.743319
23.9197
1.50592
24.3968
2.28749
24.9069
3.08751
25.4468
3.90524
26.0129
4.73976
26.6015
5.59005
27.2087
6.45481
27.8308
7.33237
28.4639
8.22106
29.1042
9.11908
29.7484
10.0243
30.3931
10.9345
31.0354
11.8469
31.6722
12.7586
32.3005
13.6658
32.9171
14.5643
33.5189
15.4484
34.1019
16.312
34.6625
17.1441
35.1984
17.832
35.6993
18.3215
36.0444
18.732
36.2067
19.1025
36.2808
19.4746
36.3494
19.8292
36.4098
20.2298
36.4515
20.653
36.5137
36.6547
20.9695
0.757786
23.1619
1.53458
23.62
2.32998
24.1115
3.14342
24.6334
3.97415
25.1822
4.82123
25.7544
5.68358
26.3463
6.56001
26.9543
7.44895
27.575
8.34863
28.2046
9.25731
28.8397
10.173
29.4774
11.0937
30.1147
12.0171
30.7489
12.9404
31.3772
13.8606
31.9969
14.7742
32.6052
15.6769
33.1993
16.5634
33.776
17.4288
34.3329
18.2567
34.8714
18.9224
35.3787
19.4084
35.7208
19.8523
35.8369
20.2743
35.9273
20.6836
36.0004
21.0343
36.1008
21.388
36.16
36.2494
21.7933
0.771694
22.3902
1.56212
22.8296
2.3709
23.3028
3.19744
23.8068
4.04098
24.3387
4.90056
24.8948
5.77507
25.4718
6.66328
26.0661
7.56386
26.6744
8.47511
27.2933
9.39528
27.9195
10.3226
28.5501
11.2551
29.1822
12.1906
29.8133
13.127
30.4408
14.0615
31.0623
14.9915
31.6753
15.9136
32.2772
16.8241
32.8655
17.7194
33.4376
18.5993
33.9915
19.4462
34.5318
20.1159
35.0511
20.5896
35.3632
21.0153
35.5016
21.4186
35.5971
21.8257
35.6938
22.1934
35.7923
35.8993
22.5435
0.784122
21.6061
1.58684
22.0269
2.40771
22.4819
3.24613
22.9684
4.10134
23.4834
4.97239
24.0238
5.85816
24.5861
6.75739
25.1669
7.66875
25.763
8.59069
26.3714
9.52141
26.9888
10.4592
27.6123
11.4021
28.2393
12.3483
28.8671
13.2957
29.4935
14.2419
30.1161
15.1845
30.7327
16.1207
31.3409
17.0476
31.9387
17.9616
32.5236
18.8595
33.0936
19.7445
33.6468
20.5964
34.1992
21.2376
34.722
21.7036
35.0356
22.1134
35.1873
22.486
35.3212
22.8591
35.4192
35.5514
23.207
0.794932
20.8111
1.60831
21.2135
2.43968
21.6505
3.28844
22.1196
4.15383
22.6181
5.03489
23.1427
5.93051
23.6904
6.83941
24.258
7.76022
24.8422
8.6915
25.4401
9.63151
26.0488
10.5784
26.6654
11.5305
27.2872
12.4858
27.9119
13.4422
28.5371
14.3977
29.1606
15.35
29.7804
16.2966
30.3943
17.2349
31.0004
18.1619
31.5966
19.0744
32.1811
19.969
32.7523
20.8576
33.3105
21.7044
33.8752
22.3359
34.4041
22.7976
34.7256
23.2422
34.8766
23.6252
35.0362
35.1518
24.0248
0.803888
20.0072
1.62608
20.3913
2.46614
20.8105
3.32347
21.2623
4.19731
21.7442
5.08673
22.2533
5.99061
22.7866
6.90771
23.3409
7.83661
23.9133
8.77584
24.5009
9.72378
25.1009
10.6786
25.7106
11.6385
26.3273
12.6016
26.9487
13.5661
27.5726
14.5297
28.1969
15.4906
28.8196
16.4463
29.4386
17.3945
30.0522
18.3327
30.6584
19.2582
31.2556
20.1682
31.8422
21.0611
32.4177
21.9506
32.9856
22.7885
33.5662
23.3955
34.1186
23.8359
34.4363
24.2523
34.6197
34.7597
24.6445
0.810741
19.1965
1.63966
19.5624
2.48632
19.9638
3.35015
20.3985
4.23041
20.864
5.12618
21.3575
6.03637
21.8764
6.95972
22.4175
7.89485
22.9782
8.84027
23.5555
9.79441
24.1467
10.7555
24.7495
11.7216
25.3611
12.691
25.9793
13.6617
26.602
14.6316
27.227
15.5988
27.8524
16.5611
28.4764
17.5162
29.0971
18.4618
29.7128
19.3954
30.322
20.3144
30.9231
21.2167
31.5154
22.1025
32.0997
22.9869
32.6819
23.8154
33.2901
24.4129
33.8388
24.8602
34.1724
34.381
25.2389
0.815487
18.381
1.649
18.7289
2.50013
19.1127
3.36835
19.5303
4.25295
19.9794
5.15302
20.4575
6.06751
20.9619
6.99518
21.4899
7.93464
22.0387
8.88439
22.6057
9.84286
23.1883
10.8083
23.7841
11.7788
24.3906
12.7526
25.0056
13.7277
25.6269
14.7021
26.2526
15.6737
26.8807
16.6406
27.5095
17.6005
28.1372
18.5512
28.7621
19.4905
29.3827
20.4161
29.9975
21.3261
30.6055
22.2195
31.2063
23.0999
31.8015
23.988
32.4019
24.8022
33.0246
25.3918
33.5828
33.9588
25.814
0.818035
17.563
1.65394
17.893
2.50733
18.2593
3.37772
18.6599
4.26446
19.0926
5.16667
19.5552
6.08333
20.0452
7.01323
20.56
7.955
21.097
8.90712
21.6536
9.86799
22.2274
10.836
22.8161
11.8091
23.4174
12.7856
24.0291
13.7634
24.6491
14.7406
25.2754
15.7151
25.9062
16.6848
26.5398
17.6477
27.1743
18.6016
27.8082
19.5443
28.4399
20.4739
29.068
21.3883
29.6911
22.2862
30.3084
23.1679
30.9199
24.0414
31.5284
24.9204
32.1456
25.7135
32.7897
33.3979
26.2744
0.818451
16.7445
1.65457
17.0569
2.50805
17.4058
3.37845
17.7895
4.26516
18.2059
5.16738
18.653
6.08412
19.1285
7.01421
19.6299
7.9563
20.1549
8.90893
20.701
9.87047
21.2659
10.8393
21.8473
11.8135
22.4432
12.7911
23.0515
13.7701
23.67
14.7486
24.297
15.7243
24.9305
16.6951
25.5689
17.6591
26.2104
18.6139
26.8533
19.5576
27.4963
20.488
28.1376
21.403
28.776
22.3011
29.4103
23.1812
30.0398
24.0448
30.6648
24.901
31.2894
25.7677
31.923
32.6351
26.5305
0.816821
15.9277
1.65109
16.2226
2.50255
16.5543
3.37086
16.9212
4.25549
17.3213
5.1557
17.7528
6.07055
18.2136
6.99893
18.7015
7.93953
19.2143
8.89087
19.7496
9.85133
20.3054
10.8192
20.8795
11.7925
21.4698
12.7695
22.0745
13.7481
22.6914
14.7263
23.3189
15.7018
23.955
16.6725
24.5982
17.6362
25.2467
18.5907
25.8989
19.5337
26.5533
20.463
27.2083
21.3766
27.8624
22.2726
28.5144
23.1493
29.163
24.0062
29.8078
24.8458
30.4499
25.6795
31.0893
31.7704
26.5442
0.813174
15.1145
1.64353
15.3922
2.4909
15.707
3.35504
16.057
4.23549
16.4408
5.13161
16.8567
6.04253
17.3027
6.96719
17.7769
7.90433
18.2771
8.85254
18.8014
9.81024
19.3477
10.7757
19.914
11.7471
20.4984
12.7225
21.0992
13.6996
21.7143
14.6764
22.342
15.6507
22.9807
16.6203
23.6287
17.5827
24.2842
18.5357
24.9459
19.477
25.612
20.4043
26.281
21.3153
26.9514
22.2079
27.6218
23.0801
28.2908
23.9306
28.9574
24.7592
29.6212
25.5663
30.2823
30.9468
26.3899
0.807631
14.3069
1.63214
14.5677
2.47345
14.8656
3.33145
15.199
4.2058
15.5665
5.09594
15.9665
6.00109
16.3975
6.92028
16.8577
7.85231
17.3451
8.79583
17.8579
9.74928
18.3943
10.711
18.9523
11.679
19.5304
12.6515
20.1267
13.6262
20.7396
14.6009
21.3673
15.5732
22.0084
16.5409
22.661
17.5014
23.3237
18.4523
23.9949
19.3912
24.6731
20.3156
25.3566
21.2231
26.0439
22.1114
26.7335
22.9783
27.4239
23.8218
28.1139
24.6406
28.8024
25.4341
29.4888
30.1717
26.2091
0.800261
13.5066
1.61704
13.751
2.45041
14.0323
3.30037
14.3491
4.16674
14.7001
5.04905
15.0842
5.94666
15.4999
6.85867
15.9457
7.78398
16.4198
8.72129
16.9206
9.66909
17.4465
10.6257
17.9958
11.5891
18.5669
12.5575
19.1583
13.5287
19.7684
14.5003
20.3957
15.4701
21.0386
16.4354
21.6957
17.3936
22.3655
18.3422
23.0463
19.2785
23.7368
20.1999
24.4353
21.1036
25.1402
21.9872
25.8499
22.8481
26.563
23.6843
27.2778
24.4937
27.993
25.2751
28.7074
29.4195
26.0273
0.791117
12.7155
1.59835
12.9437
2.42192
13.2087
3.26199
13.509
4.11852
13.8436
4.99118
14.2116
5.87945
14.6117
6.78254
15.0426
7.69946
15.5029
8.62898
15.9911
9.56967
16.5058
10.5199
17.0455
11.4778
17.609
12.4413
18.1947
13.4083
18.8014
14.3764
19.4276
15.3431
20.0719
16.3057
20.7331
17.2616
21.4096
18.2078
22.1001
19.1416
22.8031
20.0599
23.5169
20.9599
24.2402
21.8387
24.9711
22.6937
25.708
23.5223
26.4492
24.3222
27.1931
25.0916
27.938
28.6824
25.8287
0.780256
11.9353
1.57619
12.1478
2.38816
12.3967
3.21655
12.6806
4.06145
12.9987
4.92272
13.3503
5.79994
13.7344
6.69248
14.15
7.59946
14.5959
8.51976
15.0708
9.45203
15.5735
10.3947
16.1029
11.346
16.6577
12.3039
17.2368
13.2662
17.8391
14.2304
18.4634
15.1938
19.1085
16.1537
19.7732
17.1072
20.4561
18.0513
21.156
18.9827
21.8716
19.8984
22.6013
20.7951
23.3435
21.6695
24.0966
22.5188
24.8588
23.3399
25.6281
24.1302
26.4028
24.8874
27.1807
27.9601
25.6098
0.767714
11.1675
1.55062
11.3649
2.34926
11.5981
3.16422
11.8656
3.99578
12.1671
4.84396
12.5021
5.70851
12.8699
6.58894
13.2696
7.4845
13.7003
8.39422
14.161
9.31685
14.6509
10.2509
15.1688
11.1946
15.714
12.1459
16.2855
13.1027
16.8823
14.0625
17.5037
15.0225
18.1485
15.9798
18.8158
16.9313
19.5046
17.8737
20.2137
18.8036
20.9417
19.7173
21.6875
20.6115
22.4494
21.4824
23.2257
22.3265
24.0146
23.1407
24.814
23.9217
25.6217
24.6669
26.4355
27.2529
25.3741
0.753501
10.414
1.52168
10.5967
2.30528
10.8145
3.1051
11.0658
3.92163
11.3506
4.75506
11.6687
5.6053
12.0197
6.47204
12.4029
7.3547
12.8177
8.25241
13.2633
9.16408
13.7392
10.0883
14.2446
11.0234
14.7789
11.9674
15.3414
12.9182
15.9316
13.8731
16.5487
14.8296
17.1921
15.7845
17.861
16.7344
18.5547
17.6759
19.2722
18.6051
20.0125
19.5181
20.7745
20.4109
21.5566
21.2794
22.3572
22.1196
23.1744
22.9276
24.0059
23.7
24.8494
24.4335
25.7021
26.561
25.1253
0.737597
9.67644
1.48935
9.84496
2.25622
10.0476
3.03922
10.2828
3.83905
10.5508
4.65608
10.8517
5.49042
11.1853
6.34191
11.5514
7.21015
11.9494
8.09443
12.379
8.99379
12.8398
9.90699
13.3314
10.8325
13.8534
11.7684
14.4055
12.7127
14.9874
13.6626
15.5987
14.6155
16.2392
15.5682
16.9083
16.5171
17.6057
17.4585
18.3308
18.3882
19.0829
19.3017
19.8609
20.1947
20.6636
21.0623
21.4895
21.9001
22.3366
22.7034
23.2026
23.468
24.0847
24.1902
24.9798
25.8844
24.8668
0.719958
8.95649
1.45358
9.11133
2.20201
9.29919
2.96652
9.51831
3.748
9.76929
4.54702
10.0526
5.36387
10.3685
6.19857
10.7167
7.0509
11.0971
7.92034
11.5096
8.80609
11.9541
9.70708
12.4304
10.6219
12.9386
11.5489
13.4785
12.4859
14.0503
13.4306
14.6541
14.3799
15.2898
15.3308
15.9575
16.2794
16.6571
17.2217
17.3885
18.1532
18.1514
19.0691
18.945
19.9641
19.7686
20.8329
20.6207
21.6701
21.4994
22.4704
22.4024
23.2287
23.3264
23.9405
24.268
25.223
24.6019
0.700521
8.25597
1.41428
8.39758
2.14258
8.57089
2.88693
8.77396
3.64842
9.0078
4.4278
9.27327
5.22555
9.57072
6.04188
9.90033
6.87676
10.2622
7.72986
10.6565
8.60059
11.0834
9.48806
11.543
10.3911
12.0356
11.308
12.5615
12.2371
13.1213
13.1758
13.7153
14.1215
14.3441
15.0708
15.0082
16.0199
15.708
16.9645
16.4439
17.8997
17.2162
18.82
18.0247
19.7196
18.869
20.5923
19.7481
21.4316
20.6601
22.2312
21.6027
22.9851
22.5726
23.6877
23.5654
24.5763
24.3344
0.679227
7.57674
1.37137
7.70544
2.07784
7.86441
2.80036
8.05144
3.54019
8.26797
4.29827
8.51519
5.07524
8.79374
5.87154
9.10404
6.68729
9.44646
7.52238
9.82141
8.37644
10.2293
9.2488
10.6706
10.1385
11.1459
11.0442
11.6559
11.9642
12.2012
12.8965
12.7831
13.8382
13.4024
14.7861
14.0602
15.7365
14.7576
16.6848
15.4956
17.6257
16.2753
18.5531
17.0973
19.4605
17.9617
20.3404
18.8681
21.1855
19.8151
21.9878
20.8004
22.7401
21.8203
23.4355
22.8701
23.9435
24.0683
0.656053
6.92069
1.32484
7.03665
2.00779
7.18146
2.70679
7.35245
3.42326
7.5515
4.1583
7.78016
4.91274
8.03931
5.68716
8.32961
6.48192
8.65171
7.29711
9.00623
8.13257
9.39384
8.98791
9.81527
9.86244
10.2714
10.7552
10.7631
11.6647
11.2917
12.5892
11.8585
13.5263
12.4653
14.4729
13.1136
15.4251
13.8053
16.3784
14.5423
17.3272
15.3266
18.2648
16.1597
19.1837
17.0428
20.0755
17.9763
20.931
18.9596
21.7408
19.9906
22.4956
21.0655
23.1868
22.1788
23.3229
23.8074
0.631046
6.28964
1.2748
6.3929
1.93256
6.52371
2.60632
6.67868
3.29767
6.86015
4.00782
7.07
4.73778
7.30935
5.4883
7.57909
6.25991
7.88009
7.05293
8.21321
7.86746
8.57931
8.7034
8.97933
9.56041
9.41437
10.4378
9.88569
11.3347
10.3948
12.2497
10.9436
13.1808
11.5342
14.1252
12.1693
15.0793
12.8512
16.0385
13.5831
16.9971
14.368
17.948
15.2087
18.8828
16.108
19.7917
17.0674
20.6638
18.0875
21.4873
19.167
22.2506
20.3023
22.9426
21.4868
22.7115
23.554
0.604349
5.68529
1.22147
5.77578
1.85237
5.89281
2.49916
6.03189
3.16351
6.1958
3.84678
6.38673
4.5501
6.60603
5.27439
6.85481
6.02034
7.13414
6.7885
7.44505
7.57924
7.78856
8.39279
8.16578
9.22921
8.57795
10.0883
9.02658
10.9697
9.51348
11.8724
10.0409
12.795
10.6115
13.7354
11.2289
14.6904
11.8963
15.6556
12.6179
16.6254
13.3982
17.5923
14.2418
18.5472
15.1531
19.4789
16.1357
20.3745
17.192
21.2196
18.3219
21.9992
19.5226
22.6989
20.7872
22.1044
23.306
0.576197
5.10909
1.16519
5.18678
1.76757
5.29043
2.38558
5.41389
3.02095
5.56042
3.67516
5.73253
4.34943
5.93175
5.04483
6.15941
5.76223
6.41674
6.50238
6.7049
7.26596
7.02498
8.05356
7.37817
8.8657
7.76582
9.70271
8.18956
10.5647
8.65146
11.4515
9.15411
12.3623
9.70073
13.2958
10.2953
14.2495
10.9427
15.2194
11.648
16.2002
12.4173
17.1846
13.2574
18.1627
14.1749
19.1224
15.1761
20.0486
16.2658
20.9239
17.4467
21.7291
18.7173
22.4453
20.071
21.4944
23.0553
0.546887
4.56221
1.10633
4.62734
1.67855
4.71821
2.26591
4.82652
2.87023
4.9561
3.49302
5.10974
4.13562
5.28915
4.79922
5.49581
5.48485
5.73111
6.19351
5.99624
6.9262
6.2923
7.6839
6.62047
8.4676
6.98211
9.27824
7.37893
10.1166
7.81311
10.9831
8.28758
11.8779
8.80598
12.8004
9.37284
13.7489
9.99411
14.7205
10.6764
15.7104
11.4274
16.7117
12.2562
17.7145
13.1721
18.7057
14.1848
19.6686
15.303
20.5823
16.5329
21.4231
17.8765
22.1658
19.3284
20.873
22.7871
0.516718
4.04549
1.04528
4.09877
1.58571
4.17778
2.14058
4.27165
2.71172
4.38496
3.3007
4.52076
3.90894
4.6809
4.53774
4.86702
5.18832
5.08053
5.86196
5.3226
6.55998
5.59428
7.28381
5.89665
8.03493
6.231
8.81484
6.59901
9.62498
7.00297
10.4666
7.44598
11.3405
7.93206
12.2471
8.46628
13.1857
9.0555
14.1542
9.70781
15.1491
10.4326
16.1642
11.241
17.1904
12.1459
18.2144
13.1609
19.2178
14.2995
20.1769
15.5739
21.0625
16.9908
21.8419
18.549
20.2314
22.4836
0.485927
3.55956
0.982375
3.60233
1.48953
3.67063
2.01022
3.75096
2.54622
3.84895
3.09915
3.96783
3.67051
4.10955
4.26174
4.27579
4.87429
4.46798
5.50972
4.68717
6.16975
4.93424
6.85623
5.21017
7.57111
5.51612
8.31644
5.85369
9.09425
6.22516
9.90642
6.6338
10.7546
7.0839
11.6397
7.58114
12.5623
8.13293
13.5216
8.74849
14.5154
9.43878
15.5391
10.2173
16.5848
11.1002
17.6397
12.106
18.6849
13.2543
19.6938
14.565
20.6322
16.0524
21.4575
17.7237
19.5608
22.1282
0.454664
3.1049
0.917978
3.13901
1.39068
3.19793
1.87586
3.26578
2.37518
3.34964
2.89028
3.45273
3.42277
3.57705
3.97428
3.72428
4.54653
3.89573
5.1414
4.0923
5.761
4.31464
6.40758
4.56359
7.08351
4.84019
7.79124
5.14595
8.53322
5.48318
9.31179
5.85524
10.1291
6.26656
10.9871
6.72319
11.8872
7.23277
12.8304
7.8053
13.816
8.45319
14.8412
9.19216
15.8998
10.0416
16.9807
11.0251
18.0657
12.1693
19.1262
13.5045
20.1234
15.0552
21.0025
16.8445
18.8526
21.7107
0.423039
2.68186
0.852598
2.70945
1.29022
2.76031
1.73916
2.81684
2.20092
2.88788
2.67719
2.97646
3.16972
3.08452
3.68034
3.21366
4.21107
3.365
4.76416
3.53921
5.342
3.73679
5.9472
3.9584
6.58237
4.20501
7.25015
4.47817
7.95325
4.78008
8.69452
5.11396
9.4767
5.48438
10.3024
5.89745
11.1743
6.36089
12.0945
6.88514
13.064
7.48369
14.0821
8.1741
15.1451
8.97854
16.2443
9.92593
17.3639
11.0497
18.4746
12.3938
19.5349
13.9949
20.475
15.9044
18.0987
21.2289
0.391233
2.29062
0.787013
2.31367
1.18966
2.35766
1.60244
2.40407
2.02665
2.46367
2.46409
2.53903
2.91663
2.63198
3.38635
2.74394
3.87555
2.8758
4.38673
3.02803
4.92246
3.20106
5.48549
3.39537
6.07869
3.61181
6.705
3.85186
7.36735
4.11774
8.06881
4.4125
8.81255
4.74064
9.60188
5.10812
10.4402
5.52259
11.3307
5.99464
12.2761
6.53828
13.2779
7.17232
14.3355
7.92088
15.4434
8.81805
16.5899
9.9032
17.7464
11.2374
18.8724
12.869
19.8797
14.897
17.2894
20.689
0.359602
1.93102
0.722302
1.95097
1.0909
1.98906
1.46846
2.02651
1.85611
2.07601
2.25575
2.13939
2.6694
2.21833
3.09929
2.31405
3.54789
2.4272
4.01782
2.5581
4.51189
2.707
5.03303
2.87423
5.58423
3.06061
6.16853
3.26756
6.78902
3.49725
7.44893
3.75259
8.15172
4.03785
8.90112
4.35872
9.7011
4.72261
10.5559
5.13987
11.4697
5.62448
12.4462
6.19582
13.4883
6.87872
14.5941
7.71226
15.7581
8.73923
16.9535
10.0419
18.1468
11.6756
19.2277
13.8161
16.4103
20.1067
0.328708
1.60232
0.659735
1.61994
0.995968
1.65283
1.34005
1.68242
1.69301
1.72306
2.0568
1.7756
2.43351
1.84161
2.82547
1.9221
3.23526
2.0174
3.66568
2.12768
4.11962
2.25306
4.59999
2.39385
5.10979
2.55081
5.65208
2.72528
6.23004
2.91928
6.84703
3.13561
7.50672
3.37817
8.21315
3.65229
8.97078
3.96497
9.78462
4.32604
10.6604
4.74872
11.6037
5.2525
12.621
5.86142
13.7141
6.6192
14.8857
7.5676
16.112
8.81562
17.3743
10.4133
18.5382
12.6523
15.4382
19.5103
0.299222
1.30309
0.600541
1.31863
0.906693
1.34667
1.21964
1.36948
1.54037
1.40232
1.87089
1.44508
2.2133
1.49921
2.57002
1.56538
2.94367
1.64375
3.33701
1.73435
3.75284
1.83723
4.19402
1.95267
4.66346
2.08136
5.1642
2.22454
5.69944
2.38405
6.27261
2.56243
6.88756
2.76322
7.54861
2.99124
8.26067
3.25291
9.02944
3.55727
9.86195
3.91621
10.7657
4.34878
11.7503
4.87675
12.8215
5.54803
13.992
6.39709
15.2424
7.56521
16.5778
9.078
17.8463
11.3837
14.3308
18.9538
0.271754
1.03134
0.545672
1.04471
0.824385
1.06796
1.10884
1.08502
1.4002
1.11097
1.70041
1.14487
2.01161
1.188
2.33619
1.2408
2.67665
1.30328
3.03563
1.37537
3.41579
1.45708
3.81982
1.54864
4.25051
1.65067
4.71078
1.76427
5.20378
1.89105
5.73299
2.03323
6.30234
2.19387
6.91641
2.37717
7.58059
2.58873
8.30125
2.8366
9.08647
3.13099
9.94551
3.48975
10.8912
3.93105
11.9335
4.50578
13.0958
5.23475
14.3684
6.29265
15.7832
7.66312
17.2034
9.96353
13.0119
18.5223
0.246729
0.784612
0.495674
0.795762
0.749698
0.813938
1.00841
0.826304
1.27332
0.846064
1.54629
0.871889
1.82941
0.904888
2.12494
0.945275
2.43525
0.992975
2.76276
1.04786
3.10992
1.10991
3.47923
1.17933
3.87326
1.25665
4.29477
1.34276
4.74681
1.43901
5.23281
1.54723
5.75675
1.66992
6.32339
1.81053
6.93845
1.97367
7.60897
2.16609
8.34385
2.3961
9.15422
2.67938
10.0554
3.02991
11.0633
3.49781
12.2099
4.0882
13.5078
4.99472
15.0077
6.16318
16.6744
8.29691
11.3648
18.3215
0.224416
0.560196
0.450665
0.569513
0.682646
0.581957
0.918238
0.590712
1.1595
0.604805
1.40812
0.623267
1.66607
0.646934
1.93548
0.675864
2.21853
0.709934
2.51738
0.748999
2.83426
0.793037
3.17139
0.842202
3.53113
0.896904
3.91604
0.957841
4.32901
1.02604
4.77335
1.10289
5.253
1.19027
5.77275
1.29079
6.3385
1.40792
6.95779
1.5468
7.64009
1.71381
8.39814
1.92132
9.24879
2.17927
10.2158
2.53082
11.3336
2.97037
12.652
3.67636
14.2309
4.58423
16.268
6.25982
9.23904
18.3937
0.204977
0.355219
0.410353
0.364137
0.622721
0.369589
0.837544
0.375889
1.05766
0.38469
1.28448
0.396441
1.51989
0.411529
1.76582
0.429939
2.02421
0.451537
2.29701
0.4762
2.58615
0.503903
2.89359
0.534753
3.22146
0.569034
3.57209
0.607218
3.94814
0.649989
4.35275
0.698271
4.78972
0.753306
5.26371
0.816794
5.7806
0.891032
6.348
0.979396
6.97567
1.08614
7.67737
1.21962
8.47065
1.38599
9.38473
1.61675
10.454
1.90105
11.7559
2.37449
13.3816
2.95859
15.7522
3.8892
6.58969
18.4015
0.188181
0.167038
0.374092
0.178226
0.569093
0.174588
0.765112
0.17987
0.966209
0.183593
1.17341
0.189238
1.3885
0.196442
1.61322
0.205222
1.84927
0.215478
2.09834
0.227138
2.36206
0.240183
2.64214
0.254669
2.94043
0.27074
3.25902
0.288631
3.60033
0.308681
3.96726
0.331341
4.36335
0.357218
4.79301
0.387126
5.26185
0.422197
5.77722
0.464021
6.34863
0.514729
6.98991
0.578345
7.71837
0.657531
8.5655
0.76962
9.56324
0.903307
10.7979
1.13987
12.3555
1.40096
14.7473
1.49742
3.64945
17.6875
0.167038
0.345263
0.519851
0.699722
0.883315
1.07255
1.26899
1.47422
1.68969
1.91683
2.15702
2.41168
2.68242
2.97106
3.27974
3.61108
3.9683
4.35542
4.77762
5.24164
5.75637
6.33471
6.99224
7.76186
8.66517
9.80504
11.206
12.7034
16.3529
1.14542
54.1288
1.15403
54.1316
1.15576
54.1385
1.15969
54.1363
1.17477
54.1252
1.19096
54.1241
1.1926
54.1386
1.18093
54.1519
1.17127
54.1499
1.17835
54.1332
1.19433
54.1243
1.19832
54.1362
1.18107
54.1575
1.16117
54.1601
1.16085
54.1406
1.17898
54.1221
1.19806
54.1212
1.20667
54.1316
1.21614
54.1308
1.23572
54.1207
1.26363
54.1123
1.28881
54.1151
1.303
54.1261
1.31129
54.1319
1.31709
54.1344
1.31907
54.1383
1.32076
54.1386
1.3358
54.1252
1.36067
54.1154
1.38599
54.1149
1.40314
54.1231
1.4039
54.1395
1.4038
54.1403
1.40438
54.1397
1.40527
54.1393
1.40629
54.1392
1.40746
54.1391
1.40859
54.1391
1.40963
54.1392
1.41053
54.1393
1.41101
54.1398
1.41091
54.1403
1.41067
54.1405
1.41095
54.1399
1.41149
54.1397
1.41152
54.1402
1.41102
54.1407
1.40964
54.1416
1.40783
54.142
1.40549
54.1426
1.40281
54.1429
1.39966
54.1434
1.39601
54.1439
1.39185
54.1444
1.38712
54.145
1.38155
54.1458
1.37554
54.1462
1.36859
54.1472
1.36108
54.1477
1.35264
54.1487
1.3435
54.1494
1.3338
54.1499
1.32298
54.151
1.31197
54.1513
1.29989
54.1523
1.28759
54.1525
1.27391
54.1539
1.2607
54.1534
1.24544
54.1555
1.23066
54.155
1.21579
54.1551
1.19843
54.1576
1.18349
54.1552
1.1663
54.1574
1.15025
54.1563
1.13232
54.1582
1.11676
54.1558
1.10194
54.1551
1.08623
54.1559
1.0747
54.1518
1.05919
54.1557
1.04582
54.1536
1.03005
54.156
1.00981
54.1605
0.988256
54.1618
0.968785
54.1597
0.953866
54.1552
0.936342
54.1578
0.919013
54.1576
0.898356
54.1609
0.875207
54.1634
0.851017
54.1644
0.826548
54.1647
0.802073
54.1647
0.777749
54.1646
0.753394
54.1646
0.729337
54.1643
0.705234
54.1643
0.681278
54.1642
0.657409
54.1641
0.633672
54.164
0.610055
54.1639
0.586567
54.1637
0.563226
54.1636
0.54004
54.1634
0.517025
54.1633
0.494219
54.163
0.471535
54.1629
0.449073
54.1627
0.426863
54.1624
0.404926
54.1622
0.38326
54.1619
0.362017
54.1615
0.34116
54.1611
0.320869
54.1605
0.301182
54.1599
0.282102
54.1593
0.263427
54.1589
0.244668
54.159
0.225795