/*--------------------------------*- C++ -*----------------------------------*\
| =========                 |                                                 |
| \\      /  F ield         | OpenFOAM: The Open Source CFD Toolbox           |
|  \\    /   O peration     | Version:  5.x                                   |
|   \\  /    A nd           | Web:      www.OpenFOAM.org                      |
|    \\/     M anipulation  |                                                 |
\*---------------------------------------------------------------------------*/
/*   Windows 32 and 64 bit porting by blueCAPE: http://www.bluecape.com.pt   *\
|  Based on Windows porting (2.0.x v4) by Symscape: http://www.symscape.com   |
\*---------------------------------------------------------------------------*/
FoamFile
{
    version     2.0;
    format      ascii;
    class       volVectorField;
    location    "300";
    object      U;
}
// * * * * * * * * * * * * * * * * * * * * * * * * * * * * * * * * * * * * * //

dimensions      [0 1 -1 0 0 0 0];

internalField   nonuniform List<vector> 
43900
(
(1.16163 -0.000737871 -1.62636e-027)
(1.16715 0.00217746 -4.3584e-027)
(1.16973 0.000361056 1.4325e-030)
(1.16839 0.00182297 2.80007e-030)
(1.16975 0.000797375 3.65211e-030)
(1.16992 0.0019746 3.66561e-030)
(1.17013 0.00118464 5.81861e-027)
(1.17053 0.00184682 -1.16173e-026)
(1.17042 0.00164348 9.69113e-030)
(1.17003 0.0017689 -1.15882e-026)
(1.16991 0.00190486 1.16103e-026)
(1.1701 0.0019341 1.15757e-029)
(1.1701 0.00198949 -1.15526e-026)
(1.17003 0.00204566 2.49997e-029)
(1.17019 0.00210939 2.56226e-029)
(1.17012 0.00213568 2.62978e-029)
(1.1699 0.00219589 -2.29986e-026)
(1.1699 0.00222321 5.50667e-029)
(1.16991 0.00225354 2.3026e-026)
(1.16996 0.00229664 2.85829e-029)
(1.17008 0.00231056 2.90787e-029)
(1.17 0.00236486 2.95185e-029)
(1.16996 0.00237968 2.99512e-029)
(1.17001 0.00240351 3.03479e-029)
(1.16996 0.00244702 3.06903e-029)
(1.17002 0.00244198 -2.27282e-026)
(1.17008 0.00248256 6.28141e-029)
(1.17 0.00251442 6.34054e-029)
(1.16999 0.00250798 9.07203e-026)
(1.1587 0.0114611 0)
(1.16551 -0.00497292 0)
(1.17144 0.00906807 0)
(1.16658 -0.00016845 0)
(1.16847 0.00620434 0)
(1.16803 0.00276964 0)
(1.1684 0.00492154 0)
(1.16778 0.00468611 0)
(1.16821 0.00465156 0)
(1.16861 0.0053906 0)
(1.16861 0.0053509 0)
(1.16857 0.00556112 0)
(1.16878 0.00587063 0)
(1.16902 0.00609088 0)
(1.16891 0.00621397 0)
(1.16883 0.0064465 0)
(1.16924 0.00658236 0)
(1.16945 0.00673569 0)
(1.16935 0.0069185 0)
(1.16936 0.00700425 0)
(1.16919 0.00718874 0)
(1.16922 0.00727293 0)
(1.16948 0.00737952 0)
(1.16941 0.00752892 0)
(1.16944 0.00756755 0)
(1.16947 0.00771469 0)
(1.1693 0.00781317 0)
(1.16938 0.00784614 0)
(1.16955 0.00799756 0)
(1.102 0.0321291 0)
(1.14469 -0.0175684 0)
(1.16303 0.0288141 0)
(1.16316 -0.00367383 0)
(1.16626 0.0209025 0)
(1.16423 0.00402606 0)
(1.16568 0.01505 0)
(1.1664 0.00841719 0)
(1.16657 0.0118816 0)
(1.16656 0.0106289 0)
(1.16677 0.0107787 0)
(1.16685 0.0111038 0)
(1.16687 0.011088 0)
(1.16701 0.011114 0)
(1.16716 0.0113095 0)
(1.16753 0.0113724 0)
(1.16758 0.0114852 0)
(1.1673 0.0116615 0)
(1.16753 0.0116995 0)
(1.1677 0.0119095 0)
(1.16784 0.0119851 0)
(1.16803 0.0120858 0)
(1.16787 0.0122755 0)
(1.16787 0.0123101 0)
(1.16804 0.0125021 0)
(1.16799 0.0126343 0)
(1.16811 0.0126544 0)
(1.16831 0.0128597 0)
(1.16819 0.0129185 1.59467e-027)
(1.04071 0.0199836 0)
(1.08659 -0.00672075 0)
(1.12951 0.0201091 0)
(1.1555 0.00818544 0)
(1.16319 0.022249 0)
(1.16588 0.010732 0)
(1.16464 0.0205831 0)
(1.16342 0.0136359 0)
(1.16451 0.0181363 0)
(1.16481 0.0157413 0)
(1.165 0.0168385 0)
(1.1653 0.0165457 0)
(1.16548 0.0165311 0)
(1.16544 0.0166175 0)
(1.16564 0.0165567 0)
(1.16571 0.0166462 0)
(1.16562 0.0167086 0)
(1.16601 0.0166766 0)
(1.16618 0.0168296 0)
(1.16606 0.0168533 0)
(1.16616 0.016894 0)
(1.16617 0.0170854 0)
(1.16628 0.0170762 0)
(1.16636 0.0172407 0)
(1.16631 0.0173099 0)
(1.16649 0.0172913 0)
(1.16675 0.0175216 0)
(1.16665 0.017576 0)
(1.16659 0.0176891 1.70218e-027)
(1.00346 0.0101894 3.40987e-027)
(1.03897 -0.000907158 0)
(1.07583 0.0108243 0)
(1.11409 0.0128959 0)
(1.14441 0.0183133 0)
(1.16 0.0173488 0)
(1.16329 0.0228386 0)
(1.16435 0.018557 0)
(1.16342 0.021697 0)
(1.16376 0.0203653 0)
(1.16402 0.0208403 0)
(1.16394 0.0211921 0)
(1.16403 0.0211361 0)
(1.16428 0.0212308 0)
(1.16403 0.0214544 0)
(1.16403 0.0215066 0)
(1.16445 0.0216191 0)
(1.16439 0.0218595 0)
(1.16414 0.021916 0)
(1.16437 0.022013 0)
(1.1644 0.0222636 0)
(1.16444 0.0222332 0)
(1.16459 0.0224103 0)
(1.16507 0.0225436 0)
(1.16539 0.0226449 0)
(1.16528 0.0229405 0)
(1.16475 0.0230464 0)
(1.16475 0.0231493 0)
(1.16525 0.0233139 -7.1647e-027)
(0.976144 0.00685113 -3.55866e-027)
(1.00603 0.000669641 0)
(1.03726 0.00760256 0)
(1.06966 0.0110466 0)
(1.10212 0.0149196 0)
(1.13244 0.0182258 0)
(1.15277 0.0221802 0)
(1.16102 0.0223003 0)
(1.16226 0.0245921 0)
(1.16196 0.0230439 0)
(1.16208 0.0244557 0)
(1.16239 0.0243123 0)
(1.16227 0.0246375 0)
(1.16214 0.0249385 0)
(1.16246 0.0251106 0)
(1.16247 0.025444 0)
(1.16201 0.025699 0)
(1.16216 0.0258213 0)
(1.16276 0.0261214 0)
(1.16266 0.0264886 0)
(1.16277 0.0265078 0)
(1.16318 0.0268906 0)
(1.16317 0.0271682 0)
(1.16244 0.0273223 0)
(1.16198 0.0276643 0)
(1.16212 0.0277857 0)
(1.16315 0.0279078 0)
(1.16389 0.0282465 0)
(1.16366 0.0284431 3.791e-027)
(0.953015 0.00526407 0)
(0.979335 0.00142686 0)
(1.00691 0.00643659 0)
(1.03555 0.00965605 0)
(1.06466 0.0129841 0)
(1.09358 0.01661 0)
(1.12162 0.0203693 0)
(1.14492 0.0232541 0)
(1.15647 0.0259294 0)
(1.15959 0.0264629 0)
(1.15935 0.0264117 0)
(1.15913 0.0273883 0)
(1.15948 0.0274583 0)
(1.15941 0.027999 0)
(1.15918 0.0283521 0)
(1.15957 0.0287089 0)
(1.16004 0.029105 0)
(1.15981 0.0294941 0)
(1.15927 0.0298463 0)
(1.15957 0.0299895 0)
(1.15984 0.0305886 0)
(1.1593 0.0309335 0)
(1.15911 0.0310982 0)
(1.15997 0.0315247 0)
(1.16103 0.0318311 0)
(1.16127 0.0320574 0)
(1.16074 0.032549 0)
(1.15953 0.0328178 0)
(1.15941 0.0331009 0)
(0.931918 0.00444224 0)
(0.95589 0.00188395 0)
(0.98102 0.00600433 0)
(1.00714 0.0090527 0)
(1.03386 0.0120944 0)
(1.06075 0.0153867 0)
(1.0873 0.0189302 0)
(1.11274 0.0224948 0)
(1.13592 0.0258135 0)
(1.15054 0.0282012 0)
(1.15551 0.0300051 0)
(1.15562 0.0297317 0)
(1.1552 0.0306171 0)
(1.15566 0.0309564 0)
(1.15589 0.0316326 0)
(1.15545 0.0319677 0)
(1.15565 0.0325452 0)
(1.15623 0.0329996 0)
(1.15682 0.033468 0)
(1.15646 0.0341398 0)
(1.15605 0.0344299 0)
(1.15671 0.0346941 0)
(1.15751 0.0355575 0)
(1.15748 0.0357744 0)
(1.15644 0.0362863 0)
(1.15597 0.0368931 0)
(1.15611 0.0372061 0)
(1.15762 0.037682 0)
(1.15848 0.0382456 0)
(0.912048 0.00387216 0)
(0.934258 0.00229783 0)
(0.95754 0.00591088 0)
(0.981746 0.00889449 0)
(1.00659 0.0118361 0)
(1.03176 0.0149516 0)
(1.0569 0.0182749 0)
(1.08157 0.0217513 0)
(1.10524 0.0252854 0)
(1.12721 0.0285578 0)
(1.14381 0.0313677 0)
(1.15044 0.0334188 0)
(1.15095 0.0334174 0)
(1.15061 0.0343346 0)
(1.15088 0.0348346 0)
(1.1515 0.0355361 0)
(1.15117 0.0361354 0)
(1.15106 0.0365521 0)
(1.15115 0.0374118 0)
(1.15168 0.0376593 0)
(1.15253 0.0385298 0)
(1.15224 0.0392588 0)
(1.15132 0.0395428 0)
(1.15111 0.040164 0)
(1.15241 0.040858 0)
(1.15355 0.041399 0)
(1.15402 0.0417793 0)
(1.15317 0.0423407 0)
(1.15241 0.0426921 0)
(0.892699 0.00335796 0)
(0.913594 0.00271523 0)
(0.935492 0.00601598 0)
(0.958253 0.00899041 0)
(0.981648 0.011914 0)
(1.00543 0.0149633 0)
(1.02932 0.0181812 0)
(1.05304 0.0215414 0)
(1.07623 0.025008 0)
(1.09849 0.028512 0)
(1.11915 0.0318458 0)
(1.13676 0.0347964 0)
(1.14463 0.0372368 0)
(1.14548 0.0375041 0)
(1.14531 0.038517 0)
(1.14519 0.0391419 0)
(1.14622 0.0399116 0)
(1.14601 0.0406342 0)
(1.14598 0.0412267 0)
(1.14611 0.0421264 0)
(1.14597 0.0427668 0)
(1.14629 0.0432012 0)
(1.14772 0.0442243 0)
(1.14836 0.0449063 0)
(1.14782 0.0452979 0)
(1.14665 0.0459925 0)
(1.14689 0.0467996 0)
(1.14865 0.0473539 0)
(1.15004 0.0483357 -1.0014e-026)
(0.873621 0.00320503 0)
(0.893436 0.00302481 0)
(0.914239 0.00627554 0)
(0.935871 0.00931119 0)
(0.958134 0.012287 0)
(0.980814 0.0153601 0)
(1.00369 0.0185757 0)
(1.02652 0.0219161 0)
(1.04906 0.0253561 0)
(1.07102 0.0288697 0)
(1.09199 0.0324046 0)
(1.11138 0.0358031 0)
(1.12887 0.0388878 0)
(1.1381 0.0416219 0)
(1.13901 0.0421234 0)
(1.1394 0.0433222 0)
(1.13879 0.0441127 0)
(1.13958 0.0448609 0)
(1.14044 0.0459991 0)
(1.13994 0.0465293 0)
(1.14051 0.0475176 0)
(1.14128 0.0483111 0)
(1.14066 0.0490693 0)
(1.14038 0.0498603 0)
(1.14153 0.0507702 0)
(1.14353 0.0517368 0)
(1.1439 0.0524237 0)
(1.14274 0.0528711 0)
(1.14186 0.0537428 1.05597e-026)
(0.854549 0.00316821 0)
(0.873438 0.00333812 0)
(0.893296 0.00664699 0)
(0.913974 0.00980502 0)
(0.935295 0.0128983 0)
(0.957067 0.0160725 0)
(0.979095 0.0193733 0)
(1.00118 0.0227868 0)
(1.02311 0.0262918 0)
(1.04467 0.0298682 0)
(1.0656 0.0334905 0)
(1.08557 0.0371077 0)
(1.10412 0.0405916 0)
(1.12098 0.0438216 0)
(1.13086 0.0467254 0)
(1.13163 0.0476178 0)
(1.13246 0.0490038 0)
(1.1318 0.0496968 0)
(1.13232 0.0508636 0)
(1.13382 0.0521099 0)
(1.13412 0.0529523 0)
(1.13319 0.0540607 0)
(1.13413 0.055067 0)
(1.13553 0.0562158 0)
(1.13509 0.0567923 0)
(1.13422 0.0579047 0)
(1.13485 0.0587863 0)
(1.13741 0.0598438 0)
(1.13906 0.0613208 1.1584e-026)
(0.835254 0.00308918 0)
(0.853343 0.00369506 0)
(0.872382 0.0070885 0)
(0.892238 0.010397 0)
(0.912742 0.0136467 0)
(0.933729 0.0169673 0)
(0.955021 0.0204037 0)
(0.976442 0.0239445 0)
(0.997813 0.0275718 0)
(1.01895 0.0312687 0)
(1.03966 0.0350163 0)
(1.05972 0.0387889 0)
(1.07884 0.0425386 0)
(1.09663 0.0461527 0)
(1.11286 0.049548 0)
(1.12295 0.0525909 0)
(1.12334 0.0538872 0)
(1.1247 0.0550035 0)
(1.12453 0.0563749 0)
(1.12451 0.0573209 0)
(1.12488 0.0589554 0)
(1.12672 0.0600653 0)
(1.12655 0.0610102 0)
(1.12639 0.0623206 0)
(1.12805 0.063215 0)
(1.13017 0.0646124 0)
(1.12993 0.0655598 0)
(1.12835 0.0661827 0)
(1.12853 0.067024 -1.22402e-026)
(0.815762 0.00306924 0)
(0.833114 0.00406786 0)
(0.851408 0.00759777 0)
(0.870528 0.0110898 0)
(0.890315 0.0145304 0)
(0.910608 0.0180354 0)
(0.931251 0.0216485 0)
(0.952084 0.0253605 0)
(0.972947 0.0291551 0)
(0.993681 0.0330181 0)
(1.01412 0.0369337 0)
(1.0341 0.0408828 0)
(1.0534 0.0448399 0)
(1.07177 0.0487569 0)
(1.08884 0.0525139 0)
(1.1045 0.0560935 0)
(1.11455 0.0593727 0)
(1.11462 0.0607282 0)
(1.11612 0.0619541 0)
(1.11604 0.0638524 0)
(1.11705 0.0645081 0)
(1.1171 0.066159 0)
(1.11898 0.0673293 0)
(1.12036 0.0690228 0)
(1.11958 0.0697242 0)
(1.11961 0.0712809 0)
(1.12119 0.0725993 0)
(1.12437 0.0740663 0)
(1.12565 0.0758548 -1.34839e-026)
(0.795924 0.00311054 0)
(0.812599 0.00446997 0)
(0.83021 0.00819458 0)
(0.848647 0.0119106 0)
(0.867779 0.0155839 0)
(0.887448 0.0193199 0)
(0.9075 0.023159 0)
(0.927795 0.027095 0)
(0.948187 0.0311131 0)
(0.968532 0.0352006 0)
(0.98869 0.0393445 0)
(1.00851 0.0435285 0)
(1.02784 0.0477329 0)
(1.04649 0.0519314 0)
(1.06422 0.0560745 0)
(1.0807 0.0600371 0)
(1.09598 0.0638789 0)
(1.10578 0.0672847 0)
(1.10572 0.0689676 0)
(1.10776 0.0703157 0)
(1.10802 0.0723522 0)
(1.10981 0.0736075 0)
(1.10956 0.0749241 0)
(1.11001 0.076875 0)
(1.11247 0.0781567 0)
(1.11376 0.0802209 0)
(1.1132 0.0809574 0)
(1.11295 0.0819865 0)
(1.11429 0.0837648 1.42697e-026)
(0.775646 0.0031954 0)
(0.791684 0.00488931 0)
(0.808659 0.0088488 0)
(0.82646 0.0128188 0)
(0.844966 0.01675 0)
(0.864048 0.0207453 0)
(0.883552 0.0248425 0)
(0.903337 0.0290335 0)
(0.923274 0.0333061 0)
(0.943233 0.0376486 0)
(0.963085 0.0420492 0)
(0.982703 0.0464941 0)
(1.00196 0.0509661 0)
(1.0207 0.0554445 0)
(1.03876 0.059901 0)
(1.05592 0.0642798 0)
(1.07193 0.0684695 0)
(1.08678 0.072556 0)
(1.09578 0.0761029 0)
(1.09622 0.0779064 0)
(1.09833 0.0794009 0)
(1.09845 0.0817904 0)
(1.09995 0.0829835 0)
(1.10089 0.0850619 0)
(1.1007 0.0863794 0)
(1.10228 0.0880153 0)
(1.105 0.0896601 0)
(1.10729 0.0919385 0)
(1.10641 0.0929609 0)
(0.754964 0.00331451 0)
(0.770395 0.005324 0)
(0.786766 0.00954795 0)
(0.803974 0.0137965 0)
(0.821898 0.0180074 0)
(0.84042 0.0222812 0)
(0.859413 0.0266578 0)
(0.878733 0.0311278 0)
(0.898251 0.0356766 0)
(0.917849 0.040294 0)
(0.93741 0.0449684 0)
(0.95682 0.0496868 0)
(0.975966 0.0544338 0)
(0.99473 0.0591909 0)
(1.01298 0.0639364 0)
(1.03056 0.0686387 0)
(1.04729 0.0732374 0)
(1.06295 0.0776407 0)
(1.07742 0.0819261 0)
(1.08553 0.0855782 0)
(1.08641 0.0876125 0)
(1.08769 0.0892219 0)
(1.08869 0.0919025 0)
(1.08995 0.0933249 0)
(1.09261 0.0952225 0)
(1.09316 0.0975932 0)
(1.09359 0.0984289 0)
(1.09514 0.100329 0)
(1.09872 0.102379 0)
(0.733863 0.00347097 0)
(0.748708 0.00579012 0)
(0.764501 0.0103149 0)
(0.781145 0.0148745 0)
(0.798525 0.0193991 0)
(0.816521 0.0239852 0)
(0.835019 0.0286739 0)
(0.853896 0.0334585 0)
(0.873024 0.0383235 0)
(0.89229 0.0432581 0)
(0.911583 0.0482516 0)
(0.930799 0.0532914 0)
(0.949836 0.0583634 0)
(0.968591 0.0634513 0)
(0.986958 0.0685364 0)
(1.00482 0.0735968 0)
(1.02203 0.0786003 0)
(1.03845 0.0834844 0)
(1.05394 0.0881677 0)
(1.06814 0.0928012 0)
(1.07497 0.096454 0)
(1.07676 0.0989762 0)
(1.07831 0.100619 0)
(1.07997 0.103125 0)
(1.08163 0.10512 0)
(1.08376 0.106734 0)
(1.08552 0.109882 0)
(1.08666 0.111563 0)
(1.08676 0.112505 0)
(0.712306 0.00365746 4.10918e-026)
(0.726579 0.00628635 0)
(0.741811 0.0111439 0)
(0.757907 0.0160444 0)
(0.774762 0.0209117 0)
(0.792261 0.0258424 0)
(0.81029 0.030877 0)
(0.828735 0.0360091 0)
(0.847478 0.0412238 0)
(0.866406 0.0465091 0)
(0.885421 0.0518564 0)
(0.904426 0.0572534 0)
(0.923325 0.0626871 0)
(0.942027 0.0681427 0)
(0.960438 0.0736034 0)
(0.97846 0.0790505 0)
(0.995985 0.0844614 0)
(1.01289 0.089801 0)
(1.02906 0.0949971 0)
(1.04443 0.100015 0)
(1.05823 0.10498 0)
(1.06418 0.108292 0)
(1.0676 0.111346 0)
(1.06843 0.113091 0)
(1.07096 0.114948 0)
(1.07173 0.118666 0)
(1.07442 0.118789 0)
(1.07694 0.122085 0)
(1.07967 0.125396 0)
(0.690314 0.00386761 1.35562e-027)
(0.704026 0.00680906 0)
(0.718708 0.0120256 0)
(0.73427 0.0172916 0)
(0.750612 0.0225254 0)
(0.767625 0.0278254 0)
(0.785198 0.0332311 0)
(0.803226 0.0387369 0)
(0.821604 0.0443288 0)
(0.840218 0.0499938 0)
(0.858967 0.0557205 0)
(0.87776 0.0614986 0)
(0.896512 0.0673152 0)
(0.915137 0.073156 0)
(0.933554 0.0790056 0)
(0.951677 0.0848463 0)
(0.96942 0.0906585 0)
(0.986686 0.0964181 0)
(1.00338 0.102085 0)
(1.01942 0.107578 0)
(1.03492 0.113009 0)
(1.04872 0.117913 0)
(1.05417 0.121823 0)
(1.05742 0.124075 0)
(1.05889 0.127522 0)
(1.06156 0.128763 0)
(1.06245 0.133006 0)
(1.0647 0.134275 0)
(1.06962 0.135909 0)
(0.667903 0.00410161 -4.74366e-026)
(0.681063 0.00736226 0)
(0.695204 0.012965 0)
(0.710242 0.0186225 0)
(0.726083 0.0242486 0)
(0.742623 0.0299441 0)
(0.759756 0.0357499 0)
(0.777377 0.0416578 0)
(0.795386 0.0476549 0)
(0.813684 0.0537292 0)
(0.83217 0.0598686 0)
(0.850758 0.0660621 0)
(0.869364 0.0722972 0)
(0.88791 0.0785601 0)
(0.906318 0.0848361 0)
(0.924514 0.0911093 0)
(0.942421 0.0973618 0)
(0.959962 0.103575 0)
(0.977055 0.109726 0)
(0.993627 0.115776 0)
(1.00964 0.121659 0)
(1.02545 0.127453 0)
(1.03965 0.133016 0)
(1.04358 0.136853 0)
(1.04751 0.138866 0)
(1.0492 0.143332 0)
(1.05316 0.143934 0)
(1.05449 0.147768 0)
(1.05616 0.150486 0)
(0.645101 0.00435384 0)
(0.657713 0.00793985 0)
(0.671319 0.0139511 0)
(0.68584 0.0200217 0)
(0.701186 0.0260613 0)
(0.717259 0.0321742 0)
(0.733957 0.0384024 0)
(0.751181 0.0447368 0)
(0.768834 0.0511636 0)
(0.786823 0.0576714 0)
(0.80505 0.0642476 0)
(0.823427 0.0708791 0)
(0.841878 0.077555 0)
(0.860326 0.0842609 0)
(0.8787 0.0909825 0)
(0.896932 0.0977044 0)
(0.914952 0.10441 0)
(0.932691 0.11108 0)
(0.950079 0.117697 0)
(0.967046 0.124238 0)
(0.983531 0.130673 0)
(0.999479 0.136863 0)
(1.01577 0.14316 0)
(1.02954 0.149056 0)
(1.03361 0.152598 0)
(1.03758 0.154969 0)
(1.04045 0.159509 0)
(1.04477 0.159821 0)
(1.04776 0.163462 0)
(0.621957 0.00462412 -5.79893e-026)
(0.634026 0.00854067 0)
(0.647103 0.0149812 0)
(0.661112 0.0214844 0)
(0.675969 0.027957 0)
(0.69158 0.0345073 0)
(0.707851 0.0411783 0)
(0.724683 0.047961 0)
(0.741982 0.054839 0)
(0.75966 0.0618013 0)
(0.77763 0.068836 0)
(0.795804 0.0759293 0)
(0.814105 0.0830681 0)
(0.832461 0.0902384 0)
(0.850803 0.0974253 0)
(0.869064 0.104613 0)
(0.887182 0.111786 0)
(0.905094 0.118925 0)
(0.922736 0.126013 0)
(0.940047 0.133028 0)
(0.956968 0.13995 0)
(0.973455 0.146732 0)
(0.989548 0.153325 0)
(1.00624 0.159961 0)
(1.02008 0.166116 0)
(1.02465 0.169809 0)
(1.02942 0.172482 0)
(1.03209 0.176919 0)
(1.03713 0.17858 5.46803e-026)
(0.59852 0.00491129 -1.66375e-027)
(0.61005 0.00916241 0)
(0.622602 0.0160514 0)
(0.636104 0.0230055 0)
(0.650475 0.0299291 0)
(0.665629 0.0369355 0)
(0.681474 0.0440689 0)
(0.697919 0.0513197 0)
(0.714873 0.0586711 0)
(0.732248 0.0661105 0)
(0.749964 0.0736261 0)
(0.767935 0.0812038 0)
(0.786085 0.0888284 0)
(0.804345 0.096487 0)
(0.82265 0.104164 0)
(0.840935 0.111842 0)
(0.859142 0.119507 0)
(0.877211 0.12714 0)
(0.895086 0.134723 0)
(0.912709 0.142237 0)
(0.930029 0.149663 0)
(0.947003 0.156976 0)
(0.963625 0.164143 0)
(0.980076 0.171108 0)
(0.997315 0.178163 0)
(1.0116 0.184501 0)
(1.01632 0.188353 0)
(1.02186 0.19071 0)
(1.02378 0.1953 1.07253e-027)
(0.57485 0.00521385 6.6819e-026)
(0.585846 0.00980175 0)
(0.597876 0.0171561 0)
(0.610873 0.0245768 0)
(0.624762 0.0319668 0)
(0.63946 0.0394452 0)
(0.654883 0.0470579 0)
(0.670941 0.0547944 0)
(0.68755 0.0626376 0)
(0.704622 0.0705726 0)
(0.722082 0.0785885 0)
(0.739852 0.086671 0)
(0.757854 0.0948038 0)
(0.776021 0.102972 0)
(0.794288 0.111159 0)
(0.812595 0.119349 0)
(0.830883 0.127524 0)
(0.849097 0.135667 0)
(0.867183 0.143759 0)
(0.885089 0.15178 0)
(0.902768 0.159712 0)
(0.920177 0.167534 0)
(0.937295 0.175223 0)
(0.954176 0.182742 0)
(0.971088 0.190065 0)
(0.989257 0.197643 0)
(1.00311 0.203898 0)
(1.00894 0.208079 0)
(1.01427 0.210798 -6.25019e-026)
(0.551009 0.00553166 0)
(0.561474 0.0104573 0)
(0.572985 0.0182929 0)
(0.585481 0.0261949 0)
(0.598889 0.0340658 0)
(0.613134 0.0420314 0)
(0.628134 0.0501393 0)
(0.643807 0.0583784 0)
(0.660069 0.0667304 0)
(0.676841 0.0751805 0)
(0.694046 0.0837157 0)
(0.711612 0.0923218 0)
(0.729465 0.100982 0)
(0.747537 0.109679 0)
(0.765766 0.118396 0)
(0.784093 0.127117 0)
(0.802462 0.135822 0)
(0.820818 0.144494 0)
(0.839111 0.153113 0)
(0.85729 0.16166 0)
(0.875311 0.170115 0)
(0.893131 0.178458 0)
(0.910721 0.186671 0)
(0.928087 0.194737 0)
(0.945319 0.202609 0)
(0.962928 0.210461 0)
(0.981545 0.218345 0)
(0.995513 0.224825 0)
(1.00259 0.229326 0)
(0.52706 0.0058633 0)
(0.536998 0.0111267 0)
(0.547995 0.0194579 0)
(0.559991 0.027854 0)
(0.572921 0.0362182 0)
(0.586712 0.0446845 0)
(0.601289 0.0533019 0)
(0.616576 0.0620585 0)
(0.632493 0.0709355 0)
(0.648964 0.0799178 0)
(0.665914 0.0889899 0)
(0.683274 0.0981378 0)
(0.700977 0.107345 0)
(0.718953 0.116591 0)
(0.737144 0.12586 0)
(0.75549 0.135133 0)
(0.773937 0.14439 0)
(0.792433 0.153611 0)
(0.810926 0.162777 0)
(0.82937 0.171868 0)
(0.847719 0.180864 0)
(0.86593 0.189744 0)
(0.883969 0.19849 0)
(0.901816 0.207087 0)
(0.919491 0.215512 0)
(0.937147 0.223784 0)
(0.955309 0.232044 0)
(0.974715 0.240288 0)
(0.989167 0.24687 7.3453e-026)
(0.503067 0.00620805 0)
(0.512485 0.0118088 0)
(0.522971 0.0206492 0)
(0.53447 0.0295511 0)
(0.546921 0.0384205 0)
(0.560258 0.0473998 0)
(0.574412 0.0565403 0)
(0.589309 0.0658291 0)
(0.604876 0.0752468 0)
(0.62104 0.0847775 0)
(0.63773 0.0944054 0)
(0.654881 0.104115 0)
(0.672429 0.11389 0)
(0.690309 0.123709 0)
(0.708461 0.133551 0)
(0.726827 0.143398 0)
(0.745353 0.153229 0)
(0.763989 0.163021 0)
(0.782684 0.172754 0)
(0.80139 0.182407 0)
(0.820063 0.191957 0)
(0.838658 0.201384 0)
(0.857138 0.210667 0)
(0.875471 0.219787 0)
(0.893642 0.228729 0)
(0.911687 0.237489 0)
(0.929799 0.246073 0)
(0.948535 0.25469 0)
(0.969868 0.263395 9.64529e-028)
(0.479092 0.0065648 0)
(0.487994 0.012503 0)
(0.497974 0.0218655 0)
(0.508978 0.0312843 0)
(0.520951 0.04067 0)
(0.533833 0.0501747 0)
(0.54756 0.0598518 0)
(0.562064 0.0696876 0)
(0.577277 0.0796622 0)
(0.593131 0.0897591 0)
(0.609559 0.0999621 0)
(0.626496 0.110253 0)
(0.643883 0.120613 0)
(0.661658 0.131023 0)
(0.679763 0.14146 0)
(0.698145 0.151903 0)
(0.716751 0.162331 0)
(0.735529 0.172719 0)
(0.754429 0.183043 0)
(0.773405 0.193281 0)
(0.792409 0.203408 0)
(0.811398 0.213401 0)
(0.83033 0.223237 0)
(0.849169 0.232894 0)
(0.867885 0.242354 0)
(0.886471 0.251601 0)
(0.904994 0.26065 0)
(0.923478 0.269439 0)
(0.944172 0.278608 -1.66579e-025)
(0.455193 0.00693143 0)
(0.463588 0.0132077 0)
(0.473067 0.0231037 0)
(0.483578 0.0330488 0)
(0.495073 0.0429601 0)
(0.507497 0.0530007 0)
(0.520793 0.0632259 0)
(0.534898 0.0736214 0)
(0.54975 0.0841668 0)
(0.565284 0.0948453 0)
(0.581441 0.10564 0)
(0.598158 0.116533 0)
(0.615379 0.127504 0)
(0.633048 0.138532 0)
(0.651105 0.149592 0)
(0.669499 0.16066 0)
(0.688179 0.171713 0)
(0.707096 0.182724 0)
(0.726202 0.193668 0)
(0.74545 0.204518 0)
(0.764794 0.215249 0)
(0.784188 0.225834 0)
(0.803589 0.236247 0)
(0.822956 0.246462 0)
(0.842252 0.256458 0)
(0.861454 0.266213 0)
(0.880566 0.275722 0)
(0.899598 0.284956 0)
(0.91897 0.294004 -6.9792e-028)
(0.43143 0.00730619 0)
(0.439325 0.0139225 0)
(0.448308 0.0243629 0)
(0.458329 0.0348426 0)
(0.469345 0.0452888 0)
(0.481309 0.0558758 0)
(0.494168 0.0666613 0)
(0.507868 0.0776304 0)
(0.522349 0.0887624 0)
(0.537554 0.100041 0)
(0.553426 0.111448 0)
(0.569908 0.122964 0)
(0.586948 0.134569 0)
(0.604495 0.146239 0)
(0.622494 0.15795 0)
(0.640896 0.169674 0)
(0.65965 0.181383 0)
(0.678708 0.193051 0)
(0.698023 0.204647 0)
(0.71755 0.216143 0)
(0.737241 0.227509 0)
(0.757052 0.238716 0)
(0.776938 0.249734 0)
(0.796855 0.260533 0)
(0.816763 0.271088 0)
(0.836626 0.281372 0)
(0.856425 0.291366 0)
(0.876152 0.301065 0)
(0.895782 0.310401 9.37676e-026)
(0.407855 0.00768646 0)
(0.41526 0.0146463 0)
(0.423753 0.0256405 0)
(0.433287 0.0366618 0)
(0.443824 0.0476505 0)
(0.455323 0.0587935 0)
(0.467738 0.0701503 0)
(0.481021 0.0817061 0)
(0.49512 0.09344 0)
(0.509983 0.105335 0)
(0.525557 0.117374 0)
(0.541792 0.129537 0)
(0.558639 0.1418 0)
(0.576049 0.15414 0)
(0.593975 0.166528 0)
(0.61237 0.178938 0)
(0.631187 0.191339 0)
(0.650381 0.203699 0)
(0.669905 0.215987 0)
(0.689715 0.228168 0)
(0.709763 0.240208 0)
(0.730006 0.252074 0)
(0.750396 0.263732 0)
(0.770889 0.275149 0)
(0.79144 0.286292 0)
(0.812008 0.29713 0)
(0.832558 0.307638 0)
(0.853065 0.317803 0)
(0.873486 0.327573 9.97701e-026)
(0.384521 0.00806913 0)
(0.391448 0.0153775 0)
(0.399459 0.0269328 0)
(0.408507 0.0385005 0)
(0.418563 0.0500377 0)
(0.429591 0.0617443 0)
(0.441555 0.0736819 0)
(0.454411 0.0858353 0)
(0.468113 0.0981843 0)
(0.482615 0.110713 0)
(0.497874 0.123403 0)
(0.513843 0.136234 0)
(0.530478 0.149182 0)
(0.547736 0.162221 0)
(0.565574 0.175323 0)
(0.583947 0.188455 0)
(0.602813 0.201586 0)
(0.622132 0.21468 0)
(0.641859 0.227702 0)
(0.661951 0.240612 0)
(0.682364 0.253371 0)
(0.703051 0.265942 0)
(0.723967 0.278283 0)
(0.745065 0.290356 0)
(0.766295 0.302123 0)
(0.787612 0.313548 0)
(0.808971 0.324598 0)
(0.830334 0.335247 0)
(0.85166 0.345458 -1.05312e-025)
(0.36148 0.00845084 0)
(0.367941 0.0161142 0)
(0.375477 0.028236 0)
(0.384043 0.0403527 0)
(0.393616 0.0524427 0)
(0.404169 0.0647192 0)
(0.415671 0.0772457 0)
(0.428085 0.0900073 0)
(0.441374 0.102984 0)
(0.455498 0.116162 0)
(0.470418 0.129522 0)
(0.486096 0.143044 0)
(0.502493 0.156704 0)
(0.519573 0.170475 0)
(0.537299 0.184327 0)
(0.555632 0.198223 0)
(0.574532 0.212128 0)
(0.593962 0.226003 0)
(0.613884 0.239807 0)
(0.634256 0.253497 0)
(0.655038 0.267027 0)
(0.676183 0.280354 0)
(0.697646 0.293429 0)
(0.719377 0.306206 0)
(0.741325 0.318642 0)
(0.76344 0.330691 0)
(0.785668 0.342314 0)
(0.807959 0.353475 0)
(0.830263 0.364139 1.11004e-025)
(0.338782 0.00882793 0)
(0.34479 0.0168536 0)
(0.35186 0.0295446 0)
(0.359947 0.0422105 0)
(0.369034 0.0548554 0)
(0.379104 0.0677064 0)
(0.390133 0.0808285 0)
(0.402091 0.0942074 0)
(0.414947 0.107825 0)
(0.42867 0.121668 0)
(0.443227 0.135718 0)
(0.458587 0.149956 0)
(0.474718 0.164356 0)
(0.491589 0.17889 0)
(0.509172 0.193525 0)
(0.527435 0.208226 0)
(0.546345 0.222952 0)
(0.56587 0.23766 0)
(0.585973 0.252303 0)
(0.60662 0.266832 0)
(0.627771 0.281195 0)
(0.649384 0.29534 0)
(0.671413 0.30921 0)
(0.693809 0.322751 0)
(0.716518 0.335908 0)
(0.739483 0.34863 0)
(0.762645 0.360865 0)
(0.785941 0.37257 0)
(0.809309 0.383706 -2.33911e-025)
(0.316475 0.0091964 0)
(0.322045 0.0175919 0)
(0.328658 0.0308515 0)
(0.336269 0.0440635 0)
(0.344868 0.0572627 0)
(0.354447 0.07069 0)
(0.36499 0.0844119 0)
(0.376474 0.0984149 0)
(0.388877 0.112683 0)
(0.402172 0.127204 0)
(0.416337 0.141963 0)
(0.431348 0.156938 0)
(0.44718 0.172107 0)
(0.463811 0.187437 0)
(0.481218 0.202896 0)
(0.499377 0.218446 0)
(0.518263 0.234042 0)
(0.537852 0.249639 0)
(0.558116 0.265184 0)
(0.579023 0.28062 0)
(0.600539 0.295887 0)
(0.622627 0.310923 0)
(0.645241 0.325662 0)
(0.668333 0.340038 0)
(0.691847 0.353984 0)
(0.715721 0.367436 0)
(0.739887 0.380334 0)
(0.764274 0.39262 0)
(0.788803 0.404248 9.53901e-028)
(0.294608 0.00955205 0)
(0.299756 0.0183234 0)
(0.305922 0.0321472 0)
(0.313058 0.0458983 0)
(0.321166 0.0596478 0)
(0.330246 0.0736504 0)
(0.340289 0.0879733 0)
(0.351281 0.102605 0)
(0.363206 0.117531 0)
(0.376046 0.132742 0)
(0.389787 0.148224 0)
(0.404412 0.163958 0)
(0.419907 0.179921 0)
(0.436256 0.196081 0)
(0.453447 0.212407 0)
(0.471464 0.228855 0)
(0.490288 0.245379 0)
(0.509906 0.261928 0)
(0.530298 0.278444 0)
(0.551443 0.294863 0)
(0.573313 0.311116 0)
(0.595875 0.327128 0)
(0.619089 0.342822 0)
(0.642907 0.358117 0)
(0.667273 0.372932 0)
(0.692121 0.387188 0)
(0.717373 0.400808 0)
(0.742946 0.413721 0)
(0.768748 0.425867 1.38073e-027)
(0.273232 0.00989065 0)
(0.277972 0.0190406 0)
(0.283699 0.0334195 0)
(0.290363 0.0476981 0)
(0.297976 0.0619901 0)
(0.306548 0.0765632 0)
(0.316077 0.0914849 0)
(0.326556 0.106745 0)
(0.337978 0.122334 0)
(0.350334 0.138244 0)
(0.363616 0.154464 0)
(0.377817 0.170977 0)
(0.39293 0.187761 0)
(0.408949 0.204785 0)
(0.425872 0.222017 0)
(0.443697 0.239413 0)
(0.462414 0.256926 0)
(0.482018 0.274496 0)
(0.502501 0.292061 0)
(0.523853 0.30955 0)
(0.546055 0.326882 0)
(0.569085 0.343971 0)
(0.592908 0.360723 0)
(0.617482 0.377041 0)
(0.642749 0.392824 0)
(0.66864 0.407973 0)
(0.695069 0.42239 0)
(0.72194 0.435987 0)
(0.749142 0.448684 1.35006e-025)
(0.252398 0.0102081 0)
(0.256744 0.0197338 0)
(0.262041 0.0346533 0)
(0.268235 0.0494426 0)
(0.275348 0.0642643 0)
(0.283401 0.0793982 0)
(0.2924 0.0949119 0)
(0.302346 0.110798 0)
(0.313238 0.127049 0)
(0.325077 0.143663 0)
(0.337863 0.160632 0)
(0.351597 0.177939 0)
(0.366281 0.195567 0)
(0.381921 0.213486 0)
(0.398522 0.231663 0)
(0.416094 0.250056 0)
(0.434643 0.268616 0)
(0.454177 0.287282 0)
(0.474701 0.305984 0)
(0.496216 0.324642 0)
(0.51872 0.343164 0)
(0.5422 0.36145 0)
(0.566636 0.379387 0)
(0.591989 0.396856 0)
(0.618208 0.413731 0)
(0.645219 0.429886 0)
(0.672929 0.445198 0)
(0.701225 0.459552 0)
(0.729977 0.472844 -1.38185e-025)
(0.232159 0.010501 0)
(0.236122 0.0203912 0)
(0.240997 0.0358311 0)
(0.24672 0.051108 0)
(0.253329 0.0664406 0)
(0.260853 0.0821197 0)
(0.269306 0.0982121 0)
(0.278696 0.114713 0)
(0.289032 0.131621 0)
(0.300321 0.148937 0)
(0.312572 0.166655 0)
(0.325793 0.184766 0)
(0.339997 0.203253 0)
(0.3552 0.222091 0)
(0.371418 0.241248 0)
(0.388673 0.260689 0)
(0.406987 0.280358 0)
(0.426379 0.300194 0)
(0.446874 0.320125 0)
(0.468493 0.340063 0)
(0.491249 0.359904 0)
(0.51515 0.37953 0)
(0.540188 0.398806 0)
(0.566341 0.417587 0)
(0.593561 0.435714 0)
(0.621777 0.453027 0)
(0.650886 0.469364 0)
(0.680758 0.484574 0)
(0.711234 0.498522 1.45865e-025)
(0.212571 0.0107672 0)
(0.216159 0.0209996 0)
(0.220616 0.036934 0)
(0.22587 0.0526682 0)
(0.231969 0.0684855 0)
(0.238953 0.0846865 0)
(0.246844 0.101336 0)
(0.255659 0.118433 0)
(0.265412 0.135981 0)
(0.276118 0.153986 0)
(0.287794 0.172447 0)
(0.300457 0.191359 0)
(0.314127 0.21071 0)
(0.32883 0.23048 0)
(0.344593 0.250644 0)
(0.361452 0.271167 0)
(0.379451 0.292 0)
(0.398618 0.313085 0)
(0.419001 0.334342 0)
(0.440642 0.355679 0)
(0.463581 0.376982 0)
(0.487849 0.398114 0)
(0.513463 0.418917 0)
(0.54042 0.439211 0)
(0.568687 0.458798 0)
(0.598197 0.477468 0)
(0.628842 0.495009 0)
(0.660468 0.511218 0)
(0.692883 0.525914 0)
(0.193689 0.0110068 0)
(0.196905 0.0215454 0)
(0.200949 0.0379426 0)
(0.205733 0.0540957 0)
(0.211317 0.0703627 0)
(0.217753 0.087052 0)
(0.22507 0.104226 0)
(0.23329 0.121888 0)
(0.242435 0.140047 0)
(0.252528 0.158714 0)
(0.263591 0.177894 0)
(0.275649 0.197587 0)
(0.28873 0.217789 0)
(0.302868 0.238487 0)
(0.318102 0.259665 0)
(0.33448 0.281291 0)
(0.35206 0.30333 0)
(0.370901 0.325727 0)
(0.391066 0.3484 0)
(0.412625 0.371257 0)
(0.43565 0.394175 0)
(0.460204 0.417001 0)
(0.486339 0.43955 0)
(0.514082 0.461603 0)
(0.543426 0.482912 0)
(0.574319 0.503205 0)
(0.606649 0.522198 0)
(0.640242 0.539615 0)
(0.674857 0.555202 1.50243e-025)
(0.175565 0.0112227 0)
(0.178407 0.0220157 0)
(0.182044 0.0388384 0)
(0.18636 0.0553622 0)
(0.191428 0.0720325 0)
(0.19731 0.0891639 0)
(0.204042 0.106816 0)
(0.211652 0.124995 0)
(0.220169 0.143717 0)
(0.229622 0.162998 0)
(0.240038 0.18285 0)
(0.251447 0.203282 0)
(0.263884 0.224297 0)
(0.277391 0.245894 0)
(0.292016 0.268066 0)
(0.307819 0.290794 0)
(0.324872 0.314055 0)
(0.343267 0.337799 0)
(0.363082 0.361961 0)
(0.384425 0.386448 0)
(0.407402 0.411131 0)
(0.432123 0.435847 0)
(0.458684 0.460383 0)
(0.487159 0.484481 0)
(0.517584 0.507832 0)
(0.549933 0.530086 0)
(0.584107 0.550864 0)
(0.619908 0.569781 0)
(0.657042 0.586481 -5.48813e-027)
(0.158246 0.0114198 0)
(0.160713 0.0223995 0)
(0.16395 0.0396037 0)
(0.167802 0.0564377 0)
(0.172357 0.0734512 0)
(0.177685 0.0909625 0)
(0.183826 0.109027 0)
(0.190818 0.127654 0)
(0.198694 0.146869 0)
(0.207485 0.166692 0)
(0.217225 0.187144 0)
(0.227947 0.208243 0)
(0.239689 0.230003 0)
(0.252499 0.252436 0)
(0.266432 0.27555 0)
(0.281561 0.299345 0)
(0.297972 0.323805 0)
(0.315777 0.348907 0)
(0.335093 0.374602 0)
(0.356054 0.400798 0)
(0.378816 0.427376 0)
(0.403539 0.454164 0)
(0.430383 0.480931 0)
(0.459486 0.507378 0)
(0.490946 0.533133 0)