/*--------------------------------*- C++ -*----------------------------------*\
| =========                 |                                                 |
| \\      /  F ield         | OpenFOAM: The Open Source CFD Toolbox           |
|  \\    /   O peration     | Version:  5.x                                   |
|   \\  /    A nd           | Web:      www.OpenFOAM.org                      |
|    \\/     M anipulation  |                                                 |
\*---------------------------------------------------------------------------*/
/*   Windows 32 and 64 bit porting by blueCAPE: http://www.bluecape.com.pt   *\
|  Based on Windows porting (2.0.x v4) by Symscape: http://www.symscape.com   |
\*---------------------------------------------------------------------------*/
FoamFile
{
    version     2.0;
    format      ascii;
    class       volScalarField;
    location    "330";
    object      epsilon;
}
// * * * * * * * * * * * * * * * * * * * * * * * * * * * * * * * * * * * * * //

dimensions      [0 2 -3 0 0 0 0];

internalField   nonuniform List<scalar> 
43900
(
0.00152925
0.00151909
0.00151979
0.00151971
0.00151968
0.00151967
0.00151967
0.00151967
0.00151967
0.00151968
0.00151967
0.00151968
0.00151968
0.00151968
0.00151969
0.00151969
0.00151968
0.00151969
0.00151969
0.00151969
0.00151969
0.00151969
0.00151969
0.00151969
0.00151969
0.00151969
0.00151969
0.00151969
0.00151969
0.000413967
3.8192e-005
3.16663e-005
3.15209e-005
3.27299e-005
3.27934e-005
3.28058e-005
3.27912e-005
3.27915e-005
3.27961e-005
3.27959e-005
3.28014e-005
3.28048e-005
3.2805e-005
3.28086e-005
3.28087e-005
3.28062e-005
3.28096e-005
3.28117e-005
3.28118e-005
3.28134e-005
3.28129e-005
3.2814e-005
3.28149e-005
3.28132e-005
3.2815e-005
3.2818e-005
3.28178e-005
3.28179e-005
0.050839
0.00575318
0.000289773
1.14952e-005
1.71207e-006
1.32783e-006
1.32679e-006
1.4098e-006
1.41881e-006
1.4176e-006
1.41648e-006
1.41677e-006
1.41744e-006
1.41793e-006
1.41823e-006
1.41828e-006
1.41862e-006
1.41913e-006
1.41918e-006
1.41932e-006
1.41947e-006
1.41955e-006
1.41987e-006
1.42007e-006
1.42021e-006
1.42043e-006
1.42042e-006
1.42031e-006
1.4205e-006
0.146434
0.0437387
0.0096658
0.00131863
8.35252e-005
3.41425e-006
3.42058e-007
1.22522e-007
1.08348e-007
1.15571e-007
1.19853e-007
1.20169e-007
1.19603e-007
1.19481e-007
1.19603e-007
1.19651e-007
1.1967e-007
1.1971e-007
1.19742e-007
1.19776e-007
1.19792e-007
1.19821e-007
1.19865e-007
1.19876e-007
1.19884e-007
1.19906e-007
1.19916e-007
1.19948e-007
1.1998e-007
0.197749
0.0845313
0.0338748
0.0112587
0.00265058
0.000357447
2.24723e-005
9.65229e-007
8.42599e-008
2.22493e-008
1.6493e-008
1.7109e-008
1.84169e-008
1.86196e-008
1.84366e-008
1.84142e-008
1.84827e-008
1.84882e-008
1.84731e-008
1.84783e-008
1.84813e-008
1.84841e-008
1.84898e-008
1.8494e-008
1.84993e-008
1.8504e-008
1.85076e-008
1.85113e-008
1.85129e-008
0.222683
0.1091
0.053288
0.025099
0.0105
0.00331802
0.000706306
7.7308e-005
4.28129e-006
2.03077e-007
1.91829e-008
5.55484e-009
4.10248e-009
4.4306e-009
4.72956e-009
4.71325e-009
4.63276e-009
4.64592e-009
4.67337e-009
4.66938e-009
4.67004e-009
4.67395e-009
4.67462e-009
4.67493e-009
4.67714e-009
4.67811e-009
4.67853e-009
4.67932e-009
4.68069e-009
0.234182
0.123642
0.066115
0.0353038
0.0183737
0.0089142
0.00356135
0.000974225
0.000153112
1.17232e-005
6.06669e-007
3.33937e-008
4.38909e-009
1.73971e-009
1.52345e-009
1.66954e-009
1.751e-009
1.71412e-009
1.69718e-009
1.70806e-009
1.70795e-009
1.70612e-009
1.70716e-009
1.70787e-009
1.70728e-009
1.70732e-009
1.70786e-009
1.70864e-009
1.70898e-009
0.237366
0.131283
0.073948
0.0420754
0.0238839
0.013263
0.00694891
0.00317087
0.00103684
0.000215819
2.26763e-005
1.39031e-006
7.7583e-008
5.50566e-009
1.22847e-009
7.33228e-010
7.5289e-010
8.16414e-010
8.13107e-010
7.96806e-010
8.00358e-010
8.04403e-010
8.0449e-010
8.0524e-010
8.06477e-010
8.06171e-010
8.05855e-010
8.06262e-010
8.0653e-010
0.236513
0.135311
0.0790238
0.046852
0.0279782
0.0166448
0.00970079
0.0053822
0.00268637
0.00102265
0.000247884
3.18562e-005
2.28878e-006
1.39536e-007
9.14957e-009
1.11471e-009
4.78911e-010
4.03414e-010
4.46579e-010
4.62966e-010
4.53043e-010
4.5099e-010
4.51734e-010
4.51401e-010
4.51785e-010
4.52922e-010
4.53299e-010
4.52985e-010
4.52903e-010
0.232233
0.135962
0.0814551
0.0496961
0.0307018
0.0190674
0.0117857
0.00714185
0.00413715
0.00217943
0.000919815
0.000245942
3.60941e-005
2.95964e-006
1.99114e-007
1.36942e-008
1.27105e-009
3.89377e-010
2.63712e-010
2.7698e-010
2.93512e-010
2.89072e-010
2.86728e-010
2.87494e-010
2.87147e-010
2.8631e-010
2.86817e-010
2.87801e-010
2.87974e-010
0.22513
0.134241
0.0818619
0.0509476
0.0322076
0.0205726
0.0131867
0.00840203
0.00524631
0.00313548
0.00171497
0.000772853
0.000219622
3.50322e-005
3.18752e-006
2.36621e-007
1.76084e-008
1.55045e-009
3.23372e-010
1.95125e-010
1.88848e-010
2.02289e-010
2.01991e-010
1.99654e-010
2.00181e-010
2.00131e-010
1.99458e-010
1.99173e-010
1.99474e-010
0.217155
0.131436
0.0814129
0.0514759
0.033115
0.0215828
0.0141799
0.00932954
0.00609099
0.00389213
0.00237991
0.00133524
0.000624817
0.000183949
3.11263e-005
3.09163e-006
2.52742e-007
2.05609e-008
1.8503e-009
3.03876e-010
1.5919e-010
1.34258e-010
1.45461e-010
1.49566e-010
1.48037e-010
1.48129e-010
1.48654e-010
1.4832e-010
1.47816e-010
0.208256
0.127702
0.0801464
0.0513483
0.0335119
0.022197
0.0148613
0.0100079
0.00673488
0.00448836
0.00292241
0.00181843
0.00103804
0.000495381
0.000148113
2.6017e-005
2.79469e-006
2.52165e-007
2.25756e-008
2.15773e-009
3.13326e-010
1.37179e-010
1.06399e-010
1.10786e-010
1.14816e-010
1.13932e-010
1.14231e-010
1.15064e-010
1.15122e-010
0.198593
0.123163
0.0781834
0.0507047
0.0334818
0.0224789
0.0152829
0.0104806
0.00721386
0.00495138
0.00335832
0.00222064
0.00140022
0.000808091
0.000388581
0.000115961
2.06296e-005
2.36684e-006
2.34785e-007
2.30943e-008
2.3784e-009
3.31055e-010
1.18829e-010
8.79769e-011
8.76721e-011
9.11653e-011
9.08056e-011
9.05364e-011
9.10779e-011
0.188431
0.118033
0.0756874
0.0495976
0.0331341
0.0224883
0.0154896
0.0107824
0.00755544
0.00530267
0.00370304
0.00254951
0.00170691
0.00108644
0.000630103
0.000301894
8.87803e-005
1.58006e-005
1.92916e-006
2.10099e-007
2.27177e-008
2.54349e-009
3.53849e-010
1.08544e-010
7.65897e-011
7.01474e-011
7.38645e-011
7.4228e-011
7.37499e-011
0.177946
0.11249
0.0727935
0.0481538
0.0324868
0.0223013
0.0155259
0.0109475
0.00778657
0.00556402
0.00397401
0.00281805
0.00196545
0.0013293
0.000851598
0.000494156
0.000233388
6.74233e-005
1.21225e-005
1.58552e-006
1.89673e-007
2.25458e-008
2.74721e-009
3.90352e-010
1.05634e-010
6.9307e-011
6.01933e-011
6.19503e-011
6.26835e-011
0.167273
0.106657
0.069613
0.0464523
0.0316274
0.0219215
0.0154302
0.0109989
0.00792422
0.00574819
0.00418107
0.00303368
0.0021807
0.00153806
0.00104892
0.000674886
0.000390625
0.000180642
5.12353e-005
9.37009e-006
1.31521e-006
1.71803e-007
2.2276e-008
2.93842e-009
4.33971e-010
1.07769e-010
6.27983e-011
5.33494e-011
5.36936e-011
0.156559
0.100653
0.0662347
0.0445664
0.0306028
0.021404
0.015214
0.010961
0.00798735
0.00586964
0.00433478
0.00320372
0.00235713
0.00171434
0.00122031
0.000837295
0.000539552
0.000310134
0.000139193
3.88637e-005
7.27713e-006
1.09506e-006
1.55468e-007
2.19144e-008
3.1319e-009
4.8803e-010
1.1396e-010
5.87394e-011
4.8534e-011
0.145918
0.0945706
0.0627315
0.0425512
0.0294609
0.0207817
0.0149056
0.010847
0.00798462
0.00593778
0.00444464
0.00333715
0.00250267
0.00186458
0.00137019
0.000982957
0.000677496
0.000436427
0.00024845
0.000107407
2.96785e-005
5.74003e-006
9.29366e-007
1.43576e-007
2.20083e-008
3.40141e-009
5.60158e-010
1.25144e-010
5.67664e-011
0.135437
0.0884814
0.0591583
0.0404484
0.028233
0.0200822
0.0145298
0.0106711
0.00793867
0.00596465
0.004518
0.00343884
0.00262085
0.00199143
0.00150038
0.00111261
0.000803451
0.000555644
0.000357367
0.000201121
8.3363e-005
2.29487e-005
4.62048e-006
8.04793e-007
1.34675e-007
2.23206e-008
3.71459e-009
6.46721e-010
1.39478e-010
0.125196
0.0824476
0.0555617
0.0382923
0.0269439
0.0193233
0.0140994
0.0104472
0.00784465
0.00595474
0.00456081
0.00351454
0.00271665
0.00209893
0.0016139
0.00122816
0.000918011
0.000666602
0.000462072
0.000296356
0.00016456
6.48996e-005
1.79632e-005
3.78912e-006
7.09061e-007
1.27953e-007
2.28369e-008
4.08265e-009
7.41159e-010
0.115256
0.0765183
0.0519791
0.0361109
0.0256149
0.0185215
0.0136284
0.0101862
0.00771869
0.00591793
0.00457832
0.00356795
0.00279299
0.00218951
0.00171282
0.00133129
0.00102229
0.000769608
0.000561585
0.000390014
0.00024942
0.000136889
5.17106e-005
1.44555e-005
3.19997e-006
6.41344e-007
1.24302e-007
2.38052e-008
4.46352e-009
0.10567
0.0707336
0.0484405
0.0339262
0.0242619
0.0176881
0.0131244
0.00989364
0.00756342
0.00585192
0.0045726
0.00360172
0.00285251
0.0022656
0.00179923
0.00142366
0.0011175
0.000865255
0.000655667
0.000480616
0.000334406
0.000213382
0.000115932
4.30226e-005
1.20976e-005
2.79987e-006
5.97209e-007
1.23852e-007
2.48513e-008
0.0964802
0.065127
0.0449711
0.0317571
0.022899
0.0168338
0.0125959
0.00957684
0.0073857
0.00576678
0.00455038
0.00361975
0.00289765
0.00232884
0.00187431
0.00150617
0.00120427
0.000953886
0.000744246
0.00056745
0.000417791
0.000291309
0.000185559
9.94696e-005
3.67522e-005
1.05062e-005
2.54797e-006
5.77469e-007
1.24936e-007
0.0877187
0.0597255
0.0415919
0.0296191
0.0215376
0.0159668
0.0120487
0.00923923
0.0071872
0.00566157
0.00450761
0.00361982
0.00292812
0.00237979
0.00193895
0.00157977
0.00128344
0.00103616
0.000827698
0.000650488
0.000498945
0.000369034
0.00025799
0.000164171
8.6998e-005
3.23515e-005
9.50253e-006
2.41861e-006
5.67257e-007
0.0794112
0.054551
0.0383203
0.0275256
0.0201878
0.0150947
0.0114884
0.00888563
0.00697232
0.00554095
0.00445182
0.00360976
0.00294793
0.00242057
0.00199433
0.00164515
0.00135547
0.00111232
0.000906088
0.000729555
0.000577343
0.000445469
0.000331065
0.000232216
0.000147853
7.78261e-005
2.93249e-005
8.9095e-006
2.32485e-006
0.0715775
0.0496217
0.0351712
0.0254882
0.0188583
0.0142241
0.0109202
0.00851958
0.00674334
0.00540599
0.00438212
0.00358571
0.00295557
0.00245094
0.00204069
0.0017027
0.00142071
0.00118269
0.000979608
0.000804679
0.000652777
0.000520049
0.000403641
0.000301523
0.00021238
0.000135577
7.12117e-005
2.73643e-005
8.4223e-006
0.0642303
0.0449515
0.0321567
0.0235169
0.017557
0.0133609
0.0103483
0.00814431
0.00650264
0.00525854
0.00430002
0.00354956
0.00295276
0.00247191
0.00207869
0.00175287
0.00147952
0.00124749
0.0010484
0.000875892
0.000725131
0.000592441
0.000475049
0.00037091
0.000278594
0.000197227
0.00012646
6.66873e-005
2.56715e-005
0.0573774
0.040551
0.0292871
0.0216202
0.0162907
0.0125105
0.00977694
0.00776313
0.00625292
0.00510091
0.00420766
0.00350409
0.00294173
0.00248486
0.00210923
0.00179629
0.00153232
0.00130703
0.00111266
0.000943284
0.000794378
0.000662468
0.000544899
0.000439672
0.000345327
0.000260871
0.000185729
0.000120128
6.25585e-005
0.0510212
0.0364271
0.0265699
0.0198051
0.0150653
0.0116777
0.00920985
0.00737882
0.00599617
0.00493435
0.00410564
0.00344873
0.00292016
0.00248841
0.00213177
0.00183283
0.00157918
0.00136146
0.00117255
0.00100699
0.000860594
0.000730111
0.000613036
0.000507453
0.000411926
0.000325425
0.000247276
0.000177273
0.000115352
0.045159
0.0325837
0.024011
0.0180773
0.0138858
0.0108665
0.00865033
0.00699403
0.0057345
0.00476066
0.00399559
0.00338529
0.00289118
0.0024854
0.00214788
0.00186339
0.00162066
0.00141114
0.00122833
0.00106721
0.000923926
0.00079545
0.00067945
0.000574116
0.00047807
0.00039029
0.000310069
0.000237012
0.000171137
0.0397836
0.0290213
0.0216138
0.0164411
0.0127563
0.0100805
0.00810134
0.00661114
0.00546984
0.00458133
0.0038787
0.00331463
0.0028552
0.00247593
0.00215791
0.0018884
0.00165715
0.00145644
0.00128033
0.00112424
0.000984609
0.000858675
0.000744267
0.0006397
0.000543673
0.000455208
0.000373595
0.00029838
0.000229387
0.0348834
0.0257378
0.0193799
0.0148995
0.01168
0.00932277
0.0075654
0.00623223
0.0052038
0.00439761
0.0037558
0.00323722
0.00281217
0.00245889
0.00216118
0.00190761
0.00168869
0.00149751
0.00132876
0.0011783
0.00104291
0.000920037
0.000807715
0.000704385
0.000608842
0.000520165
0.000437678
0.000360915
0.000289603
0.0304429
0.0227283
0.0173094
0.0134544
0.0106594
0.00859564
0.00704469
0.00585911
0.00493788
0.0042107
0.00362793
0.00315402
0.00276317
0.00243636
0.00215939
0.001922
0.00171586
0.00153478
0.00137399
0.00122975
0.00109914
0.000979865
0.000870114
0.000768472
0.000673835
0.000585357
0.000502407
0.000424543
0.000351474
0.0264434
0.0199855
0.0154004
0.0121064
0.00969617
0.00790111
0.00654107
0.00549341
0.00467342
0.00402168
0.00349593
0.0030657
0.00270872
0.00240853
0.00215292
0.00193193
0.00173901
0.00156858
0.00141634
0.00127892
0.00115368
0.00103854
0.000931861
0.000832365
0.000739048
0.000651146
0.000568089
0.000489474
0.000415034
0.0228636
0.0175005
0.01365
0.0108556
0.00879152
0.00724074
0.00605612
0.00513655
0.00441161
0.00383149
0.00336051
0.00297272
0.00264904
0.00237526
0.00214066
0.00193698
0.00175804
0.00159899
0.001456
0.00132607
0.00120685
0.00109645
0.000993405
0.000896552
0.000804995
0.00071805
0.000635216
0.000556145
0.000480614
0.0196798
0.0152623
0.0120539
0.00970087
0.00794601
0.00661576
0.0055912
0.0047898
0.00415353
0.00364101
0.00322232
0.00287558
0.00258454
0.002337
0.00212365
0.00193724
0.00177304
0.00162612
0.00149314
0.00137146
0.00125899
0.00115402
0.00105525
0.000961611
0.000872309
0.000786739
0.000704469
0.000625213
0.000548807
0.0168667
0.0132589
0.0106069
0.00864068
0.00715978
0.00602708
0.0051475
0.00445432
0.00390019
0.00345103
0.00308199
0.00277472
0.00251551
0.00229398
0.00210219
0.00193405
0.0017846
0.00165025
0.00152796
0.00141532
0.0013104
0.00121168
0.00111793
0.0010282
0.000941757
0.000858061
0.000776743
0.000697584
0.000620488
0.0143979
0.011477
0.00930283
0.00767271
0.00643253
0.00547535
0.00472602
0.00413118
0.00365256
0.00326236
0.00294009
0.00267051
0.00244212
0.00224615
0.00207585
0.00192603
0.00179207
0.00167108
0.00156033
0.00145764
0.00136125
0.00126974
0.00118197
0.00109703
0.00101422
0.000933051
0.00085319
0.000774472
0.000696875
0.012246
0.00990229
0.00813482
0.00679407
0.00576353
0.00496095
0.00432763
0.00382139
0.00341159
0.00307577
0.00279719
0.00256329
0.0023645
0.00219344
0.00204439
0.00191277
0.00179479
0.00168806
0.00158983
0.00149817
0.00141146
0.00132836
0.00124776
0.00116875
0.00109064
0.00101291
0.000935223
0.000857448
0.000779615
0.0103832
0.00851982
0.0070952
0.00600129
0.00515166
0.00448401
0.0039531
0.00352594
0.00317831
0.00289218
0.00265404
0.00245359
0.00228295
0.00213596
0.00200779
0.00189454
0.00179302
0.00170098
0.00161604
0.00153644
0.00146065
0.00138734
0.00131538
0.0012438
0.00117182
0.00109883
0.00102441
0.00094839
0.000870803
0.00878184
0.00731418
0.00617579
0.00529047
0.00459551
0.00404455
0.00360321
0.00324601
0.00295399
0.00271286
0.00251176
0.00234237
0.00219821
0.00207419
0.00196629
0.00187127
0.00178657
0.00170942
0.00163842
0.00157184
0.0015082
0.00144616
0.00138452
0.00132218
0.00125819
0.00119174
0.00112221
0.00104926
0.000972804
0.00741476
0.00626984
0.00536813
0.00465742
0.00409353
0.00364261
0.00327895
0.00298314
0.00274048
0.00253975
0.00237231
0.00223146
0.00211194
0.00200958
0.00192106
0.00184365
0.00177511
0.00171337
0.00165685
0.00160407
0.00155365
0.00150428
0.00145468
0.00140358
0.00134977
0.00129214
0.0012297
0.00116174
0.0010879
0.00625601
0.00537165
0.00466379
0.004098
0.00364429
0.00327854
0.00298184
0.0027396
0.00254055
0.00237593
0.00223893
0.00212418
0.00202743
0.0019453
0.00187506
0.00181448
0.00176168
0.00171502
0.00167287
0.00163416
0.00159762
0.00156197
0.00152587
0.00148789
0.00144653
0.00140026
0.00134756
0.00128712
0.00121801
0.00528133
0.00460522
0.00405475
0.00360833
0.0032467
0.00295316
0.00271408
0.0025186
0.00235815
0.00222593
0.00211656
0.00202576
0.00195008
0.00188682
0.00183374
0.00178907
0.00175125
0.00171892
0.00169044
0.00166548
0.00164285
0.00162137
0.00159969
0.00157628
0.00154934
0.00151687
0.00147672
0.00142669
0.00136489
0.00446857
0.00395724
0.00353355
0.00318497
0.00290014
0.00266792
0.00247865
0.00232436
0.00219852
0.00209584
0.00201201
0.00194358
0.00188774
0.00184231
0.00180545
0.00177588
0.00175212
0.00173208
0.00171648
0.00170457
0.00169528
0.00168773
0.00168064
0.00167249
0.00166128
0.0016445
0.0016195
0.00158284
0.00153103
0.00379776
0.00341557
0.0030934
0.00282487
0.00260431
0.00242462
0.0022791
0.00216187
0.00206794
0.00199307
0.00193376
0.00188709
0.00185062
0.00182276
0.00180161
0.0017851
0.00177287
0.00176533
0.00176203
0.0017623
0.00176508
0.00177059
0.00177745
0.00178435
0.00178917
0.00178872
0.00178134
0.00176096
0.00172127
0.00325092
0.00296904
0.00272788
0.00252508
0.00235888
0.00222506
0.00211902
0.0020364
0.00197325
0.00192602
0.00189166
0.00186768
0.00185129
0.00183974
0.00183281
0.00183015
0.00183117
0.0018356
0.00184393
0.001855
0.00186885
0.00188566
0.00190495
0.00192577
0.00194633
0.00196355
0.0019732
0.00196848
0.00194454
0.00281168
0.00260712
0.00243067
0.00228235
0.00216306
0.00207051
0.0020016
0.00195301
0.00192144
0.0019037
0.00189644
0.00189589
0.0019004
0.00190966
0.00192148
0.0019353
0.00195095
0.0019683
0.00198734
0.00200826
0.00203162
0.00205803
0.00208776
0.00212051
0.00215517
0.00218892
0.00221723
0.00222904
0.00221684
0.00246483
0.00231961
0.00219514
0.00209282
0.0020152
0.00196133
0.00192924
0.00191625
0.00191951
0.00193374
0.00195789
0.00198891
0.00202363
0.00206048
0.00209732
0.00213304
0.00216708
0.00219963
0.00223129
0.00226284
0.0022954
0.00233026
0.00236853
0.00241085
0.00245711
0.00250502
0.00255094
0.00258055
0.00257639
0.00219615
0.00209646
0.00201431
0.00195184
0.00191269
0.00189687
0.0019034
0.00192926
0.001972
0.00202889
0.00209671
0.00217144
0.00224901
0.00232614
0.00240021
0.00246935
0.00253256
0.00258974
0.00264159
0.00268934
0.00273467
0.00277975
0.00282678
0.00287752
0.00293321
0.00299213
0.00305317
0.00309816
0.00309855
0.00199242
0.00192787
0.00188093
0.00185416
0.0018521
0.00187525
0.00192393
0.00199598
0.00209056
0.00220395
0.00233174
0.00246941
0.00261171
0.00275355
0.00289044
0.00301877
0.00313608
0.00324124
0.00333436
0.00341656
0.00348978
0.00355706
0.00362208
0.00368792
0.003757
0.00382752
0.00390191
0.0039579
0.00395561
0.00184163
0.00180455
0.00178775
0.00179414
0.00182886
0.00189437
0.00199168
0.00212142
0.00228209
0.0024712
0.00268461
0.00291691
0.00316144
0.0034109
0.00365808
0.00389647
0.00412088
0.00432775
0.00451529
0.00468327
0.0048327
0.00496753
0.00509377
0.00521159
0.00532438
0.00543091
0.00553227
0.00561548
0.00559672
0.00173318
0.00171802
0.00172778
0.00176591
0.00183918
0.00195132
0.00210635
0.00230641
0.00255279
0.00284509
0.00318067
0.00355463
0.00395977
0.00438713
0.00482683
0.00526909
0.00570514
0.00612797
0.00653272
0.00691657
0.00727829
0.0076197
0.00794667
0.00825785
0.00855293
0.00883294
0.00905493
0.00931976
0.0092305
0.00165797
0.00166068
0.00169457
0.00176439
0.00187806
0.00204271
0.002265
0.00255144
0.00290779
0.00333819
0.00384429
0.00442469
0.0050746
0.00578621
0.00654958
0.00735396
0.00818918
0.00904698
0.00992191
0.0108117
0.0117171
0.0126367
0.0135839
0.014564
0.0155753
0.016641
0.0175282
0.0189917
0.0186793
0.00160836
0.0016259
0.00168257
0.00178395
0.00194091
0.00216366
0.00246399
0.00285461
0.00334861
0.00395838
0.00469436
0.00556393
0.00657076
0.00771486
0.00899348
0.0104028
0.0119403
0.0136068
0.0154094
0.0173629
0.0194927
0.0218317
0.0244225
0.0273291
0.0306573
0.034535
0.0385385
0.0457288
0.0455104
0.00157808
0.00160815
0.00168662
0.00181995
0.00202241
0.00230893
0.00269797
0.00321097
0.00387198
0.00470654
0.00574028
0.00699756
0.00850049
0.0102689
0.0123217
0.014679
0.0173662
0.020419
0.0238889
0.0278509
0.0324141
0.0377263
0.0440162
0.0515325
0.060842
0.072386
0.0872051
0.111455
0.118635
0.00156214
0.00160281
0.00170236
0.00186769
0.00211764
0.00247285
0.00296028
0.00361293
0.00447
0.00557623
0.00698084
0.00873646
0.0108985
0.0135257
0.0166825
0.0204434
0.0249003
0.0301722
0.03642
0.0438643
0.0528199
0.0637178
0.077248
0.094218
0.116601
0.145305
0.188166
0.24801
0.293487
0.00155738
0.00160682
0.00172709
0.00192414
0.00222305
0.00265091
0.00324509
0.00405307
0.00513388
0.00655848
0.00841003
0.0107841
0.0137899
0.0175527
0.0222195
0.0279681
0.0350213
0.0436673
0.0542912
0.0674173
0.0837913
0.104444
0.131051
0.165645
0.213327
0.276345
0.379294
0.505141
0.675125
0.00151969
0.00151969
0.00151969
0.0015197
0.0015197
0.00151969
0.00151969
0.00151969
0.0015197
0.00151971
0.0015197
0.00151969
0.0015197
0.00151971
0.00151971
0.0015197
0.00151969
0.00151969
0.0015197
0.0015197
0.00151968
0.00151967
0.00151967
0.00151969
0.00151969
0.0015197
0.0015197
0.0015197
0.00151969
0.00151968
0.00151967
0.00151968
0.0015197
0.0015197
0.0015197
0.0015197
0.0015197
0.0015197
0.00151969
0.00151969
0.00151969
0.0015197
0.0015197
0.0015197
0.0015197
0.0015197
0.0015197
0.0015197
0.0015197
0.0015197
0.0015197
0.0015197
0.0015197
0.0015197
0.0015197
0.0015197
0.0015197
0.0015197
0.0015197
0.0015197
0.0015197
0.0015197
0.0015197
0.0015197
0.0015197
0.0015197
0.0015197
0.0015197
0.0015197
0.0015197
0.0015197
0.0015197
0.00151971
0.0015197
0.00151971
0.00151971
0.00151971
0.00151971
0.00151971
0.00151971
0.00151971
0.00151971
0.00151971
0.00151971
0.00151971
0.00151971
0.00151971
0.00151971
0.00151971
0.00151971
0.00151971
0.00151971
0.00151971
0.00151971
0.00151971
0.00151971
0.00151971
0.00151971
0.00151971
0.00151971
0.00151971
0.00151971
0.00151971
0.00151971
0.00151971
0.00151971
0.00151971
0.00151971
0.00151971
0.00151971
0.00151971
0.00151971
0.00151971
0.00151971
0.00151971
0.00151971
0.00151971
0.00151971
0.00151971
0.00151971
0.00151971
0.00151971
0.00151971
0.00151971
0.00151971
0.00151971
0.00151971
0.00151971
0.00151971
0.00151971
0.00151971
0.00151972
0.00151971
0.00151972
0.00151972
0.00151972
0.00151972
0.00151973
0.00154195
3.28178e-005
3.28164e-005
3.28196e-005
3.2827e-005
3.28282e-005
3.28203e-005
3.28151e-005
3.28203e-005
3.28309e-005
3.28358e-005
3.28283e-005
3.28192e-005
3.28232e-005
3.28383e-005
3.28419e-005
3.28274e-005
3.28134e-005
3.28126e-005
3.28222e-005
3.28213e-005
3.28072e-005
3.27975e-005
3.27991e-005
3.28131e-005
3.28211e-005
3.28235e-005
3.28254e-005
3.28237e-005
3.28121e-005
3.28034e-005
3.28005e-005
3.28107e-005
3.28235e-005
3.2824e-005
3.28235e-005
3.28232e-005
3.2823e-005
3.28229e-005
3.28229e-005
3.28228e-005
3.2823e-005
3.28233e-005
3.28241e-005
3.28248e-005
3.28255e-005
3.28257e-005
3.28259e-005
3.28258e-005
3.2826e-005
3.28261e-005
3.28263e-005
3.28264e-005
3.28268e-005
3.28272e-005
3.28275e-005
3.28279e-005
3.28285e-005
3.28288e-005
3.28294e-005
3.28297e-005
3.28302e-005
3.28306e-005
3.28309e-005
3.28315e-005
3.28317e-005
3.28323e-005
3.28326e-005
3.28334e-005
3.28335e-005
3.2834e-005
3.28343e-005
3.28343e-005
3.28359e-005
3.28351e-005
3.28363e-005
3.28363e-005
3.28361e-005
3.28373e-005
3.28373e-005
3.28357e-005
3.28386e-005
3.28399e-005
3.284e-005
3.28405e-005
3.28405e-005
3.28403e-005
3.28365e-005
3.2837e-005
3.28396e-005
3.2841e-005
3.28418e-005
3.28415e-005
3.28412e-005
3.28412e-005
3.28413e-005
3.28413e-005
3.28417e-005
3.28415e-005
3.28418e-005
3.28419e-005
3.2842e-005
3.2842e-005
3.28421e-005
3.28422e-005
3.28421e-005
3.28422e-005
3.2842e-005
3.2842e-005
3.28418e-005
3.28418e-005
3.28416e-005
3.28416e-005
3.28415e-005
3.28415e-005
3.28414e-005
3.28414e-005
3.28413e-005
3.28412e-005
3.28413e-005
3.28413e-005
3.28413e-005
3.28413e-005
3.28413e-005
3.28413e-005
3.28414e-005
3.28414e-005
3.28418e-005
3.28423e-005
3.28421e-005
3.28432e-005
3.28438e-005
3.28462e-005
3.28455e-005
3.28509e-005
3.28478e-005
3.28538e-005
3.28542e-005
3.28684e-005
3.51281e-005
1.42064e-006
1.42081e-006
1.42122e-006
1.42142e-006
1.42087e-006
1.4203e-006
1.4207e-006
1.42173e-006
1.42225e-006
1.42164e-006
1.42062e-006
1.42066e-006
1.42181e-006
1.42257e-006
1.42212e-006
1.42104e-006
1.42075e-006
1.42116e-006
1.42119e-006
1.42076e-006
1.42017e-006
1.42053e-006
1.42127e-006
1.42192e-006
1.42178e-006
1.42184e-006
1.42194e-006
1.42154e-006
1.4209e-006
1.42103e-006
1.4214e-006
1.42254e-006
1.4225e-006
1.42234e-006
1.4224e-006
1.42246e-006
1.4225e-006
1.42254e-006
1.42258e-006
1.42263e-006
1.4227e-006
1.42279e-006
1.42287e-006
1.42294e-006
1.423e-006
1.42304e-006
1.42308e-006
1.42311e-006
1.42315e-006
1.4232e-006
1.42324e-006
1.42329e-006
1.42335e-006
1.42341e-006
1.42346e-006
1.42353e-006
1.42359e-006
1.42365e-006
1.42372e-006
1.42378e-006
1.42384e-006
1.4239e-006
1.42397e-006
1.42403e-006
1.4241e-006
1.42415e-006
1.42424e-006
1.42426e-006
1.42436e-006
1.42441e-006
1.42445e-006
1.42456e-006
1.42455e-006
1.42464e-006
1.42467e-006
1.42478e-006
1.4247e-006
1.42472e-006
1.42472e-006
1.4246e-006
1.42471e-006
1.42467e-006
1.42476e-006
1.42499e-006
1.4251e-006
1.42496e-006
1.42481e-006
1.42495e-006
1.42493e-006
1.42506e-006
1.42524e-006
1.42527e-006
1.42528e-006
1.4253e-006
1.4253e-006
1.4253e-006
1.42531e-006
1.4253e-006
1.42531e-006
1.42531e-006
1.42531e-006
1.42531e-006
1.4253e-006
1.4253e-006
1.42529e-006
1.42528e-006
1.42526e-006
1.42525e-006
1.42523e-006
1.4252e-006
1.42516e-006
1.42513e-006
1.42509e-006
1.42504e-006
1.42501e-006
1.42495e-006
1.42492e-006
1.42487e-006
1.42485e-006
1.42481e-006
1.42478e-006
1.42472e-006
1.42468e-006
1.42464e-006
1.4246e-006
1.42453e-006
1.42454e-006
1.42444e-006
1.42444e-006
1.42458e-006
1.42433e-006
1.4246e-006
1.42454e-006
1.425e-006
1.42438e-006
1.4283e-006
1.40479e-006
1.33224e-006
2.22185e-006
1.19984e-007
1.20005e-007
1.20037e-007
1.20026e-007
1.19999e-007
1.20037e-007
1.2013e-007
1.20177e-007
1.20128e-007
1.20053e-007
1.20058e-007
1.20153e-007
1.20241e-007
1.20231e-007
1.20159e-007
1.20091e-007
1.20115e-007
1.20163e-007
1.20186e-007
1.20191e-007
1.20202e-007
1.20206e-007
1.20232e-007
1.20246e-007
1.20284e-007
1.20308e-007
1.2032e-007
1.20305e-007
1.20303e-007
1.20297e-007
1.20303e-007
1.20359e-007
1.20359e-007
1.20392e-007
1.20407e-007
1.20418e-007
1.20429e-007
1.2044e-007
1.20451e-007
1.20464e-007
1.20477e-007
1.20491e-007
1.20502e-007
1.20511e-007
1.20521e-007
1.20534e-007
1.20546e-007
1.2056e-007
1.20572e-007
1.20585e-007
1.20597e-007
1.20609e-007
1.20622e-007
1.20634e-007
1.20647e-007
1.2066e-007
1.20672e-007
1.20686e-007
1.20697e-007
1.2071e-007
1.20723e-007
1.20734e-007
1.20748e-007
1.20757e-007
1.20771e-007
1.2078e-007
1.20794e-007
1.208e-007
1.20815e-007
1.20822e-007
1.2083e-007
1.20848e-007
1.20848e-007
1.20863e-007
1.20864e-007
1.20876e-007
1.20872e-007
1.20875e-007
1.20885e-007
1.20882e-007
1.20899e-007
1.20895e-007
1.20908e-007
1.20925e-007
1.20946e-007
1.20938e-007
1.20932e-007
1.20941e-007
1.20945e-007
1.2096e-007
1.20979e-007
1.20989e-007
1.21001e-007
1.21009e-007
1.21013e-007
1.21016e-007
1.21017e-007
1.21019e-007
1.2102e-007
1.21022e-007
1.21022e-007
1.21023e-007
1.21023e-007
1.21023e-007
1.21022e-007
1.21021e-007
1.21019e-007
1.21016e-007
1.21014e-007
1.21009e-007
1.21004e-007
1.20996e-007
1.20989e-007
1.2098e-007
1.20974e-007
1.20964e-007
1.20957e-007
1.20946e-007
1.20939e-007
1.20928e-007
1.20917e-007
1.20903e-007
1.2089e-007
1.20875e-007
1.20859e-007
1.20837e-007
1.20825e-007
1.20802e-007
1.20766e-007
1.20766e-007
1.20783e-007
1.20744e-007
1.20676e-007
1.21937e-007
1.21279e-007
1.09479e-007
1.69394e-007
1.02614e-005
0.00157406
1.85174e-008
1.85255e-008
1.85295e-008
1.85305e-008
1.8535e-008
1.8543e-008
1.85472e-008
1.85451e-008
1.85434e-008
1.85475e-008
1.85573e-008
1.85634e-008
1.85645e-008
1.85609e-008
1.85563e-008
1.85587e-008
1.85664e-008
1.85763e-008
1.85861e-008
1.85865e-008
1.85884e-008
1.85893e-008
1.85951e-008
1.86031e-008
1.861e-008
1.8612e-008
1.86154e-008
1.86156e-008
1.86123e-008
1.86104e-008
1.86185e-008
1.8629e-008
1.86389e-008
1.86418e-008
1.86452e-008
1.8649e-008
1.86527e-008
1.86562e-008
1.86597e-008
1.86633e-008
1.86669e-008
1.86702e-008
1.86729e-008
1.86756e-008
1.86787e-008
1.86825e-008
1.86863e-008
1.86904e-008
1.86941e-008
1.86981e-008
1.87017e-008
1.87055e-008
1.87091e-008
1.87127e-008
1.87163e-008
1.872e-008
1.87233e-008
1.87269e-008
1.873e-008
1.87335e-008
1.87367e-008
1.87399e-008
1.87433e-008
1.87461e-008
1.87494e-008
1.87522e-008
1.87553e-008
1.87579e-008
1.8761e-008
1.87634e-008
1.87659e-008
1.87695e-008
1.87711e-008
1.87747e-008
1.87761e-008
1.87783e-008
1.878e-008
1.87814e-008
1.87841e-008
1.87846e-008
1.87885e-008
1.87896e-008
1.87918e-008
1.87953e-008
1.87971e-008
1.87981e-008
1.87984e-008
1.8802e-008
1.88038e-008
1.88056e-008
1.88092e-008
1.88124e-008
1.88147e-008
1.88161e-008
1.88171e-008
1.8819e-008
1.88195e-008
1.88211e-008
1.88215e-008
1.88224e-008
1.88229e-008
1.88233e-008
1.88236e-008
1.88236e-008
1.88237e-008
1.88232e-008
1.88231e-008
1.8822e-008
1.88213e-008
1.88195e-008
1.88181e-008
1.88152e-008
1.88132e-008
1.88098e-008
1.88078e-008
1.88049e-008
1.88024e-008
1.87993e-008
1.87967e-008
1.87937e-008
1.87905e-008
1.87868e-008
1.87831e-008
1.87791e-008
1.87749e-008
1.87711e-008
1.87714e-008
1.87568e-008
1.87347e-008
1.879e-008
1.86891e-008
1.87327e-008
1.89837e-008
1.67042e-008
1.69568e-008
6.82102e-008
5.62753e-006
0.000618104
0.0155625
4.6828e-009
4.6843e-009
4.68541e-009
4.68624e-009
4.68684e-009
4.68759e-009
4.68911e-009
4.69079e-009
4.69292e-009
4.69362e-009
4.69397e-009
4.69485e-009
4.69722e-009
4.69809e-009
4.69869e-009
4.70033e-009
4.70239e-009
4.70566e-009
4.7081e-009
4.70848e-009
4.70865e-009
4.71007e-009
4.71272e-009
4.71591e-009
4.71804e-009
4.71892e-009
4.7193e-009
4.71879e-009
4.71837e-009
4.71975e-009
4.72231e-009
4.7257e-009
4.72804e-009
4.72916e-009
4.73074e-009
4.73234e-009
4.73389e-009
4.7354e-009
4.7369e-009
4.7384e-009
4.73982e-009
4.74112e-009
4.74234e-009
4.74363e-009
4.74504e-009
4.74657e-009
4.74812e-009
4.74972e-009
4.75131e-009
4.75285e-009
4.75428e-009
4.75575e-009
4.75719e-009
4.75862e-009
4.76005e-009
4.76146e-009
4.76279e-009
4.76416e-009
4.76547e-009
4.7668e-009
4.76809e-009
4.76937e-009
4.77067e-009
4.77189e-009
4.77317e-009
4.77437e-009
4.77558e-009
4.77676e-009
4.77795e-009
4.77907e-009
4.78015e-009
4.78152e-009
4.78235e-009
4.78392e-009
4.78447e-009
4.78578e-009
4.78633e-009
4.7873e-009
4.78845e-009
4.7896e-009
4.79085e-009
4.79105e-009
4.79204e-009
4.79271e-009