/*--------------------------------*- C++ -*----------------------------------*\
| =========                 |                                                 |
| \\      /  F ield         | OpenFOAM: The Open Source CFD Toolbox           |
|  \\    /   O peration     | Version:  5.x                                   |
|   \\  /    A nd           | Web:      www.OpenFOAM.org                      |
|    \\/     M anipulation  |                                                 |
\*---------------------------------------------------------------------------*/
/*   Windows 32 and 64 bit porting by blueCAPE: http://www.bluecape.com.pt   *\
|  Based on Windows porting (2.0.x v4) by Symscape: http://www.symscape.com   |
\*---------------------------------------------------------------------------*/
FoamFile
{
    version     2.0;
    format      ascii;
    class       volScalarField;
    location    "330";
    object      k;
}
// * * * * * * * * * * * * * * * * * * * * * * * * * * * * * * * * * * * * * //

dimensions      [0 2 -2 0 0 0 0];

internalField   nonuniform List<scalar> 
43900
(
0.000985518
0.000989436
0.000990249
0.000990178
0.000990128
0.000990115
0.00099012
0.000990121
0.000990121
0.000990125
0.000990124
0.000990129
0.000990132
0.000990131
0.000990134
0.000990134
0.000990132
0.000990135
0.000990136
0.000990136
0.000990138
0.000990137
0.000990138
0.000990139
0.000990137
0.000990138
0.000990141
0.000990141
0.000990141
0.00164966
5.60149e-005
3.89325e-005
3.81762e-005
4.08107e-005
4.09672e-005
4.09886e-005
4.09563e-005
4.0956e-005
4.09617e-005
4.09618e-005
4.09687e-005
4.0973e-005
4.09736e-005
4.09781e-005
4.09781e-005
4.09754e-005
4.09799e-005
4.09823e-005
4.09825e-005
4.09845e-005
4.09839e-005
4.09854e-005
4.09867e-005
4.09847e-005
4.0987e-005
4.09906e-005
4.099e-005
4.09904e-005
0.294441
0.0540102
0.00410305
0.000117919
5.00851e-006
3.08388e-006
2.97869e-006
3.34473e-006
3.38111e-006
3.37574e-006
3.37041e-006
3.3708e-006
3.37274e-006
3.37407e-006
3.37469e-006
3.3748e-006
3.37566e-006
3.37687e-006
3.37697e-006
3.37734e-006
3.37766e-006
3.37788e-006
3.37864e-006
3.37911e-006
3.37942e-006
3.37993e-006
3.37987e-006
3.37968e-006
3.38016e-006
0.879955
0.376578
0.119985
0.0238153
0.00207865
8.27388e-005
4.01436e-006
5.91052e-007
4.57807e-007
4.98806e-007
5.33591e-007
5.36328e-007
5.31436e-007
5.30209e-007
5.31085e-007
5.31398e-007
5.3136e-007
5.31514e-007
5.31695e-007
5.31845e-007
5.31914e-007
5.3205e-007
5.32233e-007
5.32272e-007
5.32312e-007
5.32413e-007
5.32458e-007
5.32599e-007
5.32729e-007
1.28977
0.739202
0.394887
0.1766
0.0561428
0.0103179
0.000824322
3.75977e-005
1.70512e-006
2.30164e-007
1.28814e-007
1.26169e-007
1.44685e-007
1.48146e-007
1.45362e-007
1.44986e-007
1.45958e-007
1.45987e-007
1.45734e-007
1.45778e-007
1.45794e-007
1.45799e-007
1.45846e-007
1.45891e-007
1.45933e-007
1.45961e-007
1.45984e-007
1.46008e-007
1.46023e-007
1.54655
0.983932
0.616707
0.369885
0.198795
0.0832707
0.0231783
0.00328192
0.000212546
1.03738e-005
5.53675e-007
9.7842e-008
5.39767e-008
5.47552e-008
6.16586e-008
6.15952e-008
5.95464e-008
5.98622e-008
6.054e-008
6.04194e-008
6.04336e-008
6.05181e-008
6.05123e-008
6.05005e-008
6.0532e-008
6.05518e-008
6.05576e-008
6.05701e-008
6.0586e-008
1.71156
1.15052
0.773875
0.514452
0.331069
0.198497
0.100383
0.0350011
0.00706461
0.000652925
3.68454e-005
1.9829e-006
1.39566e-007
4.01383e-008
2.89503e-008
3.14927e-008
3.49082e-008
3.35783e-008
3.27986e-008
3.32129e-008
3.31959e-008
3.30979e-008
3.31283e-008
3.31478e-008
3.31178e-008
3.31149e-008
3.31299e-008
3.31443e-008
3.3148e-008
1.81081
1.25833
0.880202
0.615384
0.425482
0.286132
0.181678
0.102424
0.0432417
0.0113044
0.00144781
9.82287e-005
5.72091e-006
3.56356e-007
4.2993e-008
2.14287e-008
1.8946e-008
2.15384e-008
2.19746e-008
2.11411e-008
2.13107e-008
2.15412e-008
2.15348e-008
2.15627e-008
2.16156e-008
2.1594e-008
2.1572e-008
2.15852e-008
2.15951e-008
1.87526
1.33429
0.958323
0.691486
0.497952
0.354573
0.246164
0.162713
0.0976523
0.046767
0.0141083
0.0022122
0.000177466
1.14194e-005
7.44312e-007
6.37173e-008
1.97832e-008
1.452e-008
1.51169e-008
1.64205e-008
1.57993e-008
1.55497e-008
1.56066e-008
1.55864e-008
1.56025e-008
1.56737e-008
1.5695e-008
1.56671e-008
1.56577e-008
1.90204
1.37627
1.00724
0.742906
0.549624
0.405394
0.295601
0.210413
0.14317
0.0894065
0.0464042
0.0152899
0.00272256
0.000249582
1.77173e-005
1.24752e-006
1.01033e-007
1.9012e-008
1.21065e-008
1.13169e-008
1.24635e-008
1.24327e-008
1.22163e-008
1.22551e-008
1.22205e-008
1.21398e-008
1.21756e-008
1.22524e-008
1.22593e-008
1.90186
1.39283
1.03282
0.773371
0.582658
0.439722
0.330502
0.245442
0.177977
0.123598
0.0792819
0.0432576
0.0150102
0.00287989
0.000291586
2.27593e-005
1.74724e-006
1.44846e-007
2.09075e-008
1.11971e-008
9.41771e-009
9.98949e-009
1.02804e-008
1.00823e-008
1.01212e-008
1.0134e-008
1.00767e-008
1.0035e-008
1.00608e-008
1.89267
1.40011
1.04923
0.79473
0.606697
0.46521
0.356792
0.272187
0.204968
0.150646
0.106098
0.0692329
0.0388522
0.0139953
0.00281375
0.000308197
2.63478e-005
2.20921e-006
1.94657e-007
2.51368e-008
1.01276e-008
8.20042e-009
8.35205e-009
8.82578e-009
8.6936e-009
8.66105e-009
8.69867e-009
8.67666e-009
8.61692e-009
1.87056
1.39591
1.0554
0.807127
0.622821
0.483574
0.376532
0.292808
0.226181
0.172256
0.127918
0.0909855
0.0599869
0.0340573
0.0124791
0.00257344
0.000301744
2.83314e-005
2.60797e-006
2.48814e-007
3.04865e-008
9.70533e-009
7.44219e-009
7.1029e-009
7.49892e-009
7.53073e-009
7.53826e-009
7.57962e-009
7.60851e-009
1.83783
1.3822
1.05317
0.811983
0.632227
0.495941
0.390848
0.308448
0.242755
0.189509
0.145661
0.109026
0.0780598
0.0517203
0.0294123
0.0106429
0.0021965
0.000272101
2.79752e-005
2.82435e-006
2.92589e-007
3.6108e-008
9.78374e-009
6.98664e-009
6.29042e-009
6.5092e-009
6.60217e-009
6.59371e-009
6.63663e-009
1.79684
1.36037
1.04406
0.810762
0.636166
0.503372
0.400702
0.320002
0.255538
0.203208
0.160055
0.123933
0.0932953
0.0670419
0.0444427
0.0251368
0.00877515
0.00178797
0.000233261
2.62519e-005
2.9102e-006
3.29078e-007
4.23503e-008
1.0309e-008
6.47398e-009
5.75775e-009
5.8072e-009
5.87572e-009
5.84006e-009
1.74934
1.33246
1.02896
0.804608
0.635685
0.506844
0.406949
0.328266
0.265287
0.214079
0.171789
0.136337
0.106202
0.0802755
0.0577767
0.0382002
0.0213368
0.00721919
0.00146
0.000201769
2.48435e-005
3.02093e-006
3.72491e-007
5.05189e-008
1.11644e-008
6.17478e-009
5.41503e-009
5.28153e-009
5.36461e-009
1.69664
1.29966
1.00942
0.794054
0.631679
0.507008
0.410189
0.333748
0.272458
0.222544
0.181268
0.146621
0.117122
0.0916796
0.0694998
0.050025
0.0329083
0.0180054
0.00591152
0.00119649
0.000175842
2.35607e-005
3.11823e-006
4.16629e-007
5.97817e-008
1.24685e-008
6.10632e-009
5.21626e-009
4.95792e-009
1.63997
1.26307
0.986375
0.780311
0.624424
0.50468
0.411082
0.337055
0.277567
0.229035
0.188845
0.155068
0.126275
0.101401
0.0796575
0.0604703
0.0434411
0.0283314
0.015077
0.00481221
0.000982084
0.000153561
2.22937e-005
3.20124e-006
4.63468e-007
7.08797e-008
1.4427e-008
6.2708e-009
5.0452e-009
1.58032
1.22353
0.960572
0.764036
0.614865
0.499927
0.409993
0.33856
0.281036
0.234014
0.194998
0.162153
0.134112
0.109849
0.0885963
0.0697819
0.0529906
0.0379402
0.0244764
0.012586
0.00392257
0.000815395
0.000136335
2.14824e-005
3.34872e-006
5.24031e-007
8.53117e-008
1.71948e-008
6.61799e-009
1.51842
1.18172
0.932586
0.745726
0.603427
0.493444
0.407181
0.338422
0.282958
0.237524
0.199767
0.167933
0.140714
0.117126
0.0964282
0.0780602
0.0616061
0.0467663
0.0333448
0.0212494
0.0105126
0.00322052
0.00068858
0.00012324
2.09865e-005
3.53108e-006
5.9445e-007
1.0283e-007
2.05871e-008
1.45495
1.1382
0.902904
0.725799
0.590484
0.485576
0.403062
0.337232
0.283862
0.240062
0.203588
0.172779
0.146396
0.123499
0.103374
0.0854812
0.0694093
0.0548542
0.0416007
0.0295156
0.0185531
0.00878061
0.00266707
0.000591102
0.000113146
2.07274e-005
3.74851e-006
6.77091e-007
1.22571e-007
1.39046
1.09343
0.871904
0.704572
0.576292
0.476519
0.397804
0.334812
0.283648
0.241558
0.206431
0.176706
0.151206
0.12904
0.109526
0.0921438
0.0764962
0.0622815
0.0492778
0.0373324
0.0263612
0.0163673
0.00737867
0.00223649
0.000516084
0.000105502
2.07313e-005
4.01924e-006
7.6097e-007
1.3254
1.04778
0.839898
0.682306
0.561081
0.466494
0.391646
0.331587
0.282729
0.242368
0.208611
0.179984
0.155378
0.133952
0.115058
0.0981999
0.0829947
0.0691483
0.0564385
0.0447041
0.0338396
0.0238002
0.014636
0.00626944
0.00190254
0.000457931
9.96921e-005
2.09817e-005
4.26424e-006
1.26016
1.00157
0.80714
0.659208
0.545018
0.455624
0.384659
0.327541
0.280924
0.242329
0.21
0.182522
0.158856
0.138209
0.119969
0.103665
0.0889315
0.0754843
0.0631061
0.0516336
0.040951
0.0309886
0.0217308
0.0132468
0.00544792
0.00167085
0.000420586
9.73485e-005
2.13866e-005
1.19508
0.955064
0.773855
0.635462
0.528256
0.444046
0.376984
0.322845
0.278545
0.241807
0.210898
0.184571
0.161851
0.141987
0.124408
0.108665
0.0944133
0.0813799
0.0693542
0.0581745
0.0477206
0.0379105
0.0287003
0.0200941
0.0121487
0.00494221
0.00154051
0.000405058
9.68382e-005
1.13046
0.908517
0.740235
0.611222
0.510918
0.431858
0.36869
0.317536
0.275553
0.240636
0.211172
0.186034
0.164288
0.145238
0.128345
0.113189
0.0994415
0.0868436
0.0751937
0.0643343
0.0541452
0.044539
0.0354583
0.0268786
0.0188092
0.0112849
0.00460524
0.00147366
0.000395756
1.06659
0.862152
0.706462
0.586634
0.493124
0.419157
0.359859
0.311684
0.272023
0.238937
0.210969
0.187028
0.16627
0.148048
0.131855
0.117298
0.104067
0.0919194
0.0806612
0.0701412
0.0602418
0.0508738
0.0419738
0.0335031
0.025448
0.0178186
0.0106577
0.00440245
0.00142018
1.00372
0.816173
0.672701
0.561831
0.474981
0.406032
0.350566
0.305357
0.268024
0.236796
0.210341
0.187605
0.167844
0.150457
0.134973
0.121025
0.108323
0.0966367
0.0857832
0.0756179
0.0660267
0.0569215
0.0482363
0.0399259
0.0319642
0.0243454
0.0170835
0.0102501
0.00422319
0.942087
0.770772
0.639107
0.536937
0.456587
0.392562
0.340873
0.2986
0.263578
0.234187
0.209202
0.187682
0.168953
0.152431
0.137683
0.124366
0.112212
0.101003
0.0905703
0.0807753
0.0715093
0.0626867
0.0542417
0.046126
0.0383078
0.0307711
0.0235169
0.0165911
0.00985403
0.881913
0.726126
0.605822
0.512068
0.438039
0.378825
0.330847
0.291473
0.258746
0.231199
0.207718
0.187453
0.169739
0.154078
0.140065
0.127384
0.115783
0.105061
0.095057
0.0856424
0.0767133
0.0681874
0.0600003
0.0521029
0.0444605
0.0370517
0.029869
0.0229256
0.0162589
0.823392
0.682397
0.572977
0.48733
0.419421
0.36489
0.320543
0.284021
0.253565
0.22785
0.205869
0.186851
0.170168
0.155379
0.142114
0.130081
0.119046
0.108823
0.0992617
0.0902397
0.0816596
0.0734432
0.0655282
0.0578663
0.050422
0.0431708
0.0361003
0.0292111
0.022527
0.766696
0.639727
0.54069
0.462818
0.400812
0.350821
0.310014
0.276288
0.248068
0.224164
0.203665
0.185868
0.170219
0.15633
0.143836
0.132471
0.122021
0.112312
0.103206
0.09459
0.0863715
0.0784768
0.0708466
0.0634342
0.0562042
0.0491311
0.0421996
0.0354041
0.0287508
0.711977
0.598244
0.509067
0.438619
0.382281
0.336675
0.299307
0.268312
0.242292
0.220181
0.201164
0.18461
0.170029
0.157024
0.145299
0.134606
0.124748
0.115564
0.106925
0.0987263
0.0908809
0.0833192
0.075985
0.0688335
0.0618303
0.0549497
0.0481748
0.0414971
0.0349154
0.659363
0.558059
0.478198
0.414808
0.363889
0.322502
0.28846
0.260126
0.23626
0.215918
0.198372
0.183058
0.169536
0.157434
0.146494
0.13649
0.12724
0.118597
0.110442
0.102676
0.0952177
0.0880024
0.0809766
0.0740977
0.0673323
0.0606554
0.0540497
0.0475052
0.0410179
0.608963
0.519267
0.448166
0.391452
0.345691
0.308344
0.27751
0.251756
0.229995
0.211391
0.195299
0.181214
0.168738
0.157548
0.147419
0.138127
0.129508
0.121429
0.113778
0.106464
0.099412
0.09256
0.0858578
0.0792649
0.0727493
0.0662869
0.0598605
0.0534597
0.0470797
0.560867
0.481954
0.419046
0.368614
0.327738
0.294242
0.266486
0.243226
0.223513
0.206615
0.191961
0.179104
0.16769
0.157435
0.148119
0.139551
0.131581
0.124085
0.11696
0.110121
0.103497
0.0970286
0.090669
0.084379
0.0781277
0.0718917
0.0656545
0.0594057
0.0531409
0.515155
0.446198
0.390907
0.346353
0.310078
0.280234
0.255417
0.234557
0.21683
0.201597
0.18836
0.176726
0.16638
0.157075
0.148583
0.140759
0.133462
0.126576
0.120005
0.113669
0.107501
0.101445
0.095453
0.0894883
0.0835205
0.0775265
0.0714901
0.0654015
0.0592568
0.471894
0.412072
0.363818
0.32473
0.292763
0.266361
0.244335
0.225769
0.209956
0.196344
0.184497
0.17407
0.164785
0.156417
0.148776
0.141729
0.135138
0.128897
0.122917
0.117123
0.111449
0.10584
0.100251
0.094644
0.0889871
0.0832572
0.0774381
0.0715201
0.0655005
0.431147
0.379647
0.33785
0.303812
0.275849
0.252669
0.233274
0.216889
0.20291
0.190863
0.180371
0.171134
0.162906
0.155488
0.148711
0.14246
0.136602
0.131041
0.125693
0.120484
0.115351
0.11024
0.105101
0.0998958
0.0945901
0.0891584
0.0835825
0.0778522
0.071965
0.392972
0.348997
0.313081
0.28367
0.259401
0.239216
0.222284
0.207954
0.195718
0.185171
0.17599
0.167915
0.160733
0.15427
0.148384
0.142932
0.13783
0.132984
0.12831
0.123738
0.119203
0.114649
0.110024
0.105283
0.100387
0.0953056
0.0900156
0.0845034
0.0787656
0.357422
0.320196
0.289592
0.264387
0.243501
0.226074
0.211426
0.199018
0.188423
0.1793
0.171374
0.164422
0.158259
0.152733
0.147716
0.143081
0.13877
0.134675
0.130721
0.12684
0.122968
0.119043
0.11501
0.110815
0.106411
0.101758
0.0968219
0.0915821
0.0860296
0.324546
0.29332
0.267473
0.246061
0.228242
0.213335
0.200787
0.190158
0.181094
0.173308
0.16657
0.160688
0.155506
0.150891
0.146732
0.142927
0.1394
0.136072
0.13287
0.129727
0.126578
0.123358
0.120004
0.116454
0.112648
0.108528
0.104048
0.0991682
0.0938684
0.294386
0.268447
0.246823
0.228799
0.213741
0.201116
0.190485
0.181488
0.173837
0.167293
0.161663
0.156787
0.152531
0.148784
0.145451
0.142453
0.13969
0.13713
0.134694
0.132319
0.12994
0.127492
0.124904
0.122103
0.119014
0.115559
0.111666
0.107273
0.102333
0.266977
0.245653
0.227745
0.212725
0.200133
0.189562
0.180666
0.173157
0.166799
0.161396
0.156787
0.152838
0.149439
0.146497
0.143932
0.141675
0.139655
0.137839
0.136155
0.134548
0.13296
0.131325
0.129569
0.12761
0.125357
0.122707
0.119558
0.115808
0.111374
0.242346
0.225012
0.210348
0.197973
0.187571
0.178841
0.17151
0.165351
0.16017
0.155806
0.152126
0.14902
0.146395
0.144178
0.142306
0.140725
0.139393
0.138245
0.137258
0.136381
0.135565
0.134746
0.133853
0.132799
0.131479
0.129765
0.127515
0.124584
0.120831
0.220503
0.206586
0.194734
0.184677
0.176217
0.169133
0.163216
0.158281
0.15417
0.150749
0.147907
0.145553
0.143613
0.142029
0.140755
0.139754
0.138993
0.138439
0.138064
0.137841
0.137734
0.137689
0.13764
0.137507
0.13718
0.136497
0.135279
0.133345
0.130462
0.201434
0.190418
0.180989
0.172958
0.166221
0.160617
0.155983
0.152166
0.149034
0.146471
0.144383
0.142695
0.141347
0.140298
0.139518
0.138986
0.138685
0.1386
0.138711
0.139022
0.139521
0.14016
0.140889
0.141637
0.142293
0.142678
0.142576
0.141825
0.140003
0.185087
0.176514
0.169162
0.162906
0.157706
0.153446
0.149991
0.147211
0.144988
0.143219
0.141818
0.140721
0.139884
0.139275
0.138884
0.138704
0.138732
0.138952
0.139417
0.140125
0.141077
0.142258
0.143639
0.145167
0.146749
0.14822
0.149343
0.149739
0.149084
0.171363
0.164828
0.159256
0.15456
0.150747
0.147727
0.145382
0.143591
0.142241
0.141231
0.14048
0.139932
0.139546
0.139299
0.139177
0.139212
0.139415
0.139842
0.14051
0.141447
0.142678
0.14422
0.146075
0.14822
0.150595
0.153064
0.155401
0.157159
0.157694
0.160102
0.155255
0.151209
0.1479
0.145362
0.143516
0.142251
0.141442
0.140974
0.140741
0.140645
0.140612
0.140628
0.140683
0.140797
0.14099
0.1413
0.14179
0.142506
0.143492
0.144806
0.146497
0.148601
0.151136
0.154092
0.157383
0.160843
0.163969
0.166061
0.151088
0.147632
0.144904
0.142849
0.141513
0.140816
0.140649
0.140869
0.141341
0.141931
0.142559
0.143157
0.143678
0.144112
0.144475
0.144805
0.145158
0.145609
0.146235
0.147103
0.1483
0.149909
0.152004
0.154647
0.157889
0.161715
0.166085
0.170473
0.174371
0.144062
0.141752
0.140175
0.13928
0.139115
0.139588
0.140587
0.141927
0.14348
0.145113
0.146695
0.148132
0.149359
0.150347
0.151108
0.151684
0.15214
0.152564
0.153054
0.153711
0.154643
0.155974
0.157806
0.160247
0.163408
0.167367
0.172271
0.177599
0.183438
0.138745
0.137382
0.136831
0.137039
0.138045
0.139762
0.142029
0.144704
0.147607
0.150563
0.153416
0.156042
0.158346
0.160274
0.161815
0.162996
0.163877
0.16455
0.165122
0.165713
0.166449
0.167471
0.16893
0.170977
0.173769
0.177461
0.182346
0.188016
0.19553
0.134854
0.134281
0.134664
0.13595
0.138178
0.14123
0.144977
0.149231
0.153794
0.158468
0.163067
0.167428
0.171419
0.174948
0.17797
0.180486
0.182538
0.184205
0.185592
0.186821
0.188021
0.189316
0.190863
0.192852
0.195404
0.198849
0.203311
0.20912
0.217086
0.132123
0.132218
0.133476
0.135847
0.139351
0.143898
0.149329
0.155456
0.162073
0.168963
0.175913
0.182729
0.189243
0.195327
0.200903
0.205942
0.21047
0.214554
0.218298
0.221833
0.2253
0.228849
0.232578
0.236639
0.241035
0.246492
0.251641
0.260406
0.264507
0.130312
0.130979
0.13308
0.136546
0.141422
0.147604
0.154949
0.163276
0.172379
0.182038
0.192032
0.202148
0.212197
0.222032
0.231558
0.240739
0.249603
0.258239
0.26679
0.27545
0.284446
0.29404
0.304507
0.316261
0.329044
0.344524
0.358365
0.385176
0.380116
0.129211
0.130372
0.133299
0.13789
0.144213
0.152178
0.161663
0.172508
0.184527
0.197518
0.21127
0.22558
0.240268
0.255195
0.270285
0.285533
0.301018
0.316909
0.333469
0.351055
0.370129
0.391266
0.415192
0.442927
0.475258
0.515634
0.559854
0.636604
0.62901
0.128646
0.130235
0.13398
0.139715
0.147558
0.157437
0.169262
0.18291
0.198237
0.215081
0.233276
0.252659
0.273099
0.294514
0.316895
0.340328
0.365016
0.391294
0.419649
0.450746
0.485485
0.525018
0.570998
0.625494
0.691728
0.774893
0.880102
1.03385
1.06862
0.128506
0.130459
0.135031
0.14192
0.151343
0.16324
0.17757
0.194263
0.213236
0.234398
0.257661
0.28295
0.310232
0.339542
0.371012
0.404904
0.441641
0.48184
0.526367
0.576383
0.633492
0.699761
0.778384
0.873086
0.991543
1.14048
1.3454
1.59923
1.77548
0.000990141
0.000990139
0.000990142
0.000990148
0.00099015
0.000990143
0.000990138
0.000990142
0.000990151
0.000990156
0.00099015
0.000990142
0.000990145
0.000990157
0.000990161
0.000990149
0.000990137
0.000990136
0.000990144
0.000990144
0.000990132
0.000990123
0.000990124
0.000990135
0.000990143
0.000990145
0.000990147
0.000990145
0.000990136
0.000990128
0.000990125
0.000990133
0.000990144
0.000990145
0.000990144
0.000990144
0.000990144
0.000990144
0.000990144
0.000990144
0.000990144
0.000990144
0.000990145
0.000990145
0.000990146
0.000990146
0.000990146
0.000990146
0.000990146
0.000990146
0.000990146
0.000990146
0.000990147
0.000990147
0.000990147
0.000990147
0.000990148
0.000990148
0.000990149
0.000990149
0.000990149
0.00099015
0.00099015
0.00099015
0.00099015
0.000990151
0.000990151
0.000990152
0.000990152
0.000990152
0.000990152
0.000990152
0.000990154
0.000990153
0.000990154
0.000990154
0.000990154
0.000990155
0.000990155
0.000990154
0.000990156
0.000990157
0.000990157
0.000990158
0.000990158
0.000990157
0.000990154
0.000990155
0.000990157
0.000990158
0.000990159
0.000990158
0.000990158
0.000990158
0.000990158
0.000990158
0.000990158
0.000990158
0.000990159
0.000990159
0.000990159
0.000990159
0.000990159
0.000990159
0.000990159
0.000990159
0.000990159
0.000990159
0.000990159
0.000990159
0.000990159
0.000990159
0.000990158
0.000990159
0.000990158
0.000990158
0.000990158
0.000990158
0.000990158
0.000990158
0.000990159
0.000990159
0.000990159
0.000990159
0.000990159
0.000990159
0.000990159
0.00099016
0.000990159
0.00099016
0.000990161
0.000990163
0.000990162
0.000990166
0.000990164
0.000990169
0.000990167
0.000990177
0.00100814
4.09904e-005
4.09889e-005
4.09931e-005
4.10021e-005
4.10028e-005
4.09927e-005
4.0987e-005
4.09943e-005
4.10076e-005
4.10127e-005
4.10025e-005
4.09917e-005
4.09977e-005
4.10165e-005
4.10202e-005
4.10019e-005
4.09849e-005
4.09844e-005
4.09957e-005
4.0994e-005
4.09765e-005
4.09654e-005
4.09682e-005
4.09855e-005
4.09948e-005
4.09977e-005
4.1e-005
4.09974e-005
4.09829e-005
4.09728e-005
4.09698e-005
4.09832e-005
4.09983e-005
4.09986e-005
4.0998e-005
4.09977e-005
4.09975e-005
4.09974e-005
4.09973e-005
4.09973e-005
4.09975e-005
4.0998e-005
4.09989e-005
4.09999e-005
4.10007e-005
4.1001e-005
4.10012e-005
4.10011e-005
4.10014e-005
4.10015e-005
4.10018e-005
4.1002e-005
4.10025e-005
4.1003e-005
4.10034e-005
4.10038e-005
4.10046e-005
4.1005e-005
4.10058e-005
4.10061e-005
4.10068e-005
4.10073e-005
4.10077e-005
4.10085e-005
4.10088e-005
4.10095e-005
4.101e-005
4.10109e-005
4.10111e-005
4.10117e-005
4.10121e-005
4.10122e-005
4.1014e-005
4.10132e-005
4.10146e-005
4.10147e-005
4.10144e-005
4.10159e-005
4.10159e-005
4.10138e-005
4.10173e-005
4.10189e-005
4.1019e-005
4.10199e-005
4.102e-005
4.10195e-005
4.10149e-005
4.10157e-005
4.10186e-005
4.10205e-005
4.10216e-005
4.10212e-005
4.10208e-005
4.10208e-005
4.1021e-005
4.10209e-005
4.10215e-005
4.10212e-005
4.10216e-005
4.10216e-005
4.10217e-005
4.10218e-005
4.10219e-005
4.1022e-005
4.10219e-005
4.1022e-005
4.10217e-005
4.10218e-005
4.10216e-005
4.10215e-005
4.10213e-005
4.10212e-005
4.1021e-005
4.1021e-005
4.10209e-005
4.10208e-005
4.10207e-005
4.10206e-005
4.10206e-005
4.10206e-005
4.10206e-005
4.10206e-005
4.10206e-005
4.10206e-005
4.10207e-005
4.10207e-005
4.10211e-005
4.10217e-005
4.10215e-005
4.1023e-005
4.10236e-005
4.10266e-005
4.10256e-005
4.10327e-005
4.10284e-005
4.10357e-005
4.104e-005
4.10655e-005
4.45721e-005
3.38047e-006
3.38087e-006
3.38184e-006
3.3822e-006
3.38085e-006
3.3797e-006
3.38082e-006
3.38322e-006
3.3842e-006
3.38262e-006
3.38033e-006
3.38069e-006
3.38346e-006
3.38502e-006
3.38382e-006
3.38132e-006
3.3808e-006
3.3818e-006
3.38181e-006
3.38084e-006
3.37962e-006
3.3805e-006
3.38223e-006
3.38356e-006
3.38326e-006
3.38343e-006
3.38366e-006
3.38271e-006
3.38134e-006
3.38167e-006
3.38254e-006
3.38514e-006
3.38491e-006
3.3846e-006
3.38477e-006
3.3849e-006
3.38501e-006
3.38509e-006
3.38519e-006
3.38533e-006
3.38549e-006
3.38569e-006
3.3859e-006
3.38605e-006
3.38618e-006
3.3863e-006
3.38638e-006
3.38647e-006
3.38657e-006
3.38668e-006
3.38679e-006
3.38692e-006
3.38705e-006
3.38719e-006
3.38733e-006
3.38749e-006
3.38763e-006
3.38779e-006
3.38794e-006
3.3881e-006
3.38825e-006
3.38839e-006
3.38857e-006
3.38869e-006
3.38887e-006
3.38899e-006
3.3892e-006
3.38925e-006
3.38949e-006
3.3896e-006
3.38969e-006
3.38997e-006
3.38993e-006
3.39015e-006
3.39021e-006
3.39047e-006
3.39028e-006
3.3903e-006
3.39032e-006
3.39004e-006
3.3903e-006
3.39019e-006
3.3904e-006
3.39097e-006
3.39123e-006
3.39091e-006
3.39057e-006
3.3909e-006
3.39085e-006
3.39115e-006
3.39157e-006
3.39166e-006
3.39171e-006
3.39174e-006
3.39176e-006
3.39175e-006
3.39178e-006
3.39176e-006
3.39177e-006
3.39177e-006
3.39176e-006
3.39176e-006
3.39175e-006
3.39174e-006
3.39171e-006
3.39169e-006
3.39164e-006
3.39162e-006
3.39157e-006
3.3915e-006
3.39142e-006
3.39134e-006
3.39123e-006
3.39112e-006
3.39103e-006
3.39089e-006
3.39083e-006
3.39069e-006
3.39065e-006
3.39054e-006
3.39047e-006
3.39035e-006
3.39025e-006
3.39015e-006
3.39004e-006
3.38988e-006
3.3899e-006
3.38962e-006
3.38959e-006
3.38997e-006
3.38932e-006
3.38998e-006
3.38991e-006
3.39025e-006
3.38927e-006
3.40442e-006
3.30172e-006
3.08227e-006
6.33352e-006
5.32742e-007
5.32847e-007
5.32978e-007
5.32916e-007
5.32823e-007
5.33022e-007
5.33415e-007
5.3356e-007
5.33324e-007
5.33029e-007
5.33109e-007
5.3353e-007
5.33858e-007
5.33761e-007
5.33442e-007
5.33206e-007
5.33339e-007
5.33563e-007
5.33669e-007
5.33691e-007
5.3377e-007
5.33778e-007
5.33885e-007
5.33925e-007
5.34087e-007
5.34188e-007
5.34239e-007
5.34186e-007
5.34183e-007
5.34147e-007
5.34195e-007
5.34409e-007
5.34429e-007
5.34562e-007
5.34624e-007
5.34672e-007
5.34719e-007
5.34766e-007
5.34817e-007
5.34872e-007
5.34929e-007
5.34987e-007
5.35033e-007
5.35069e-007
5.35111e-007
5.35167e-007
5.35221e-007
5.35285e-007
5.35338e-007
5.35396e-007
5.35447e-007
5.35502e-007
5.35557e-007
5.3561e-007
5.35664e-007
5.35725e-007
5.35773e-007
5.35833e-007
5.35881e-007
5.35939e-007
5.35991e-007
5.3604e-007
5.361e-007
5.3614e-007
5.36198e-007
5.36238e-007
5.36298e-007
5.36324e-007
5.36389e-007
5.36418e-007
5.36451e-007
5.36528e-007
5.36525e-007
5.36589e-007
5.36594e-007
5.36643e-007
5.36632e-007
5.36638e-007
5.36684e-007
5.36671e-007
5.36746e-007
5.36731e-007
5.36784e-007
5.36858e-007
5.36938e-007
5.36915e-007
5.36893e-007
5.36935e-007
5.36958e-007
5.37017e-007
5.37096e-007
5.37146e-007
5.37202e-007
5.37235e-007
5.37248e-007
5.37262e-007
5.37263e-007
5.37277e-007
5.3728e-007
5.37286e-007
5.37289e-007
5.37291e-007
5.37291e-007
5.37289e-007
5.37286e-007
5.37279e-007
5.37272e-007
5.37259e-007
5.37247e-007
5.37225e-007
5.37203e-007
5.37168e-007
5.37139e-007
5.37094e-007
5.37069e-007
5.37023e-007
5.3699e-007
5.36942e-007
5.36909e-007
5.36863e-007
5.36818e-007
5.36758e-007
5.36701e-007
5.36641e-007
5.36572e-007
5.36476e-007
5.36414e-007
5.36338e-007
5.36213e-007
5.3607e-007
5.36393e-007
5.36041e-007
5.35385e-007
5.45529e-007
5.39949e-007
4.56537e-007
1.03771e-006
0.000118446
0.0122017
1.46062e-007
1.4612e-007
1.46146e-007
1.46154e-007
1.46191e-007
1.46248e-007
1.46273e-007
1.46254e-007
1.4625e-007
1.46287e-007
1.46359e-007
1.46396e-007
1.46398e-007
1.46368e-007
1.46342e-007
1.46376e-007
1.4644e-007
1.46518e-007
1.46586e-007
1.4659e-007
1.46605e-007
1.46614e-007
1.46655e-007
1.46715e-007
1.46762e-007
1.46778e-007
1.46799e-007
1.46796e-007
1.46769e-007
1.46763e-007
1.46823e-007
1.46895e-007
1.46969e-007
1.46988e-007
1.47014e-007
1.47043e-007
1.47071e-007
1.47097e-007
1.47123e-007
1.4715e-007
1.47175e-007
1.47198e-007
1.47217e-007
1.47235e-007
1.47258e-007
1.47287e-007
1.47315e-007
1.47345e-007
1.47373e-007
1.47403e-007
1.4743e-007
1.47458e-007
1.47485e-007
1.47511e-007
1.47537e-007
1.47564e-007
1.47588e-007
1.47614e-007
1.47637e-007
1.47662e-007
1.47685e-007
1.47708e-007
1.47733e-007
1.47753e-007
1.47777e-007
1.47798e-007
1.4782e-007
1.4784e-007
1.47861e-007
1.47879e-007
1.47898e-007
1.47923e-007
1.47935e-007
1.47963e-007
1.47973e-007
1.47989e-007
1.48003e-007
1.48015e-007
1.48035e-007
1.48041e-007
1.4807e-007
1.48078e-007
1.48095e-007
1.48117e-007
1.48129e-007
1.48138e-007
1.48145e-007
1.48169e-007
1.48179e-007
1.48192e-007
1.48217e-007
1.48239e-007
1.48253e-007
1.48263e-007
1.48273e-007
1.48288e-007
1.48292e-007
1.48305e-007
1.48308e-007
1.48315e-007
1.48319e-007
1.48323e-007
1.48325e-007
1.48324e-007
1.48325e-007
1.48321e-007
1.48321e-007
1.48312e-007
1.48307e-007
1.48294e-007
1.48283e-007
1.48261e-007
1.48247e-007
1.48222e-007
1.48207e-007
1.48186e-007
1.48167e-007
1.48144e-007
1.48124e-007
1.48103e-007
1.4808e-007
1.48052e-007
1.48026e-007
1.47997e-007
1.47966e-007
1.47951e-007
1.47993e-007
1.4781e-007
1.47569e-007
1.48406e-007
1.46933e-007
1.47688e-007
1.50864e-007
1.18383e-007
1.32988e-007
9.20707e-007
9.94895e-005
0.00776638
0.120724
6.06082e-008
6.06248e-008
6.06382e-008
6.06466e-008
6.06534e-008
6.06654e-008
6.06861e-008
6.07046e-008
6.07249e-008
6.07322e-008
6.07371e-008
6.07511e-008
6.07764e-008
6.07845e-008
6.07915e-008
6.08099e-008
6.08413e-008
6.08815e-008
6.0906e-008
6.09108e-008
6.09129e-008
6.09319e-008
6.09628e-008
6.09992e-008
6.10208e-008
6.10308e-008
6.1032e-008
6.1024e-008
6.10208e-008
6.10397e-008
6.10684e-008
6.11076e-008
6.11327e-008
6.11453e-008
6.1163e-008
6.11813e-008
6.11988e-008
6.1216e-008
6.12331e-008
6.125e-008
6.12659e-008
6.12801e-008
6.12937e-008
6.13083e-008
6.13243e-008
6.13415e-008
6.13597e-008
6.13791e-008
6.13975e-008
6.14145e-008
6.14304e-008
6.14469e-008
6.14633e-008
6.14794e-008
6.14956e-008
6.15116e-008
6.15266e-008
6.1542e-008
6.15567e-008
6.15717e-008
6.15864e-008
6.16009e-008
6.16157e-008
6.16295e-008
6.1644e-008
6.16576e-008
6.16714e-008
6.16849e-008
6.16985e-008
6.17112e-008
6.17236e-008
6.17392e-008
6.17486e-008
6.17667e-008
6.17728e-008
6.17873e-008
6.1793e-008
6.18039e-008
6.1816e-008
6.183e-008
6.18445e-008
6.18465e-008
6.18581e-008
6.18657e-008
6.18807e-008
6.18831e-008
6.18931e-008
6.1904e-008
6.1906e-008
6.19154e-008
6.19233e-008
6.19287e-008
6.1934e-008
6.19434e-008
6.19546e-008
6.1964e-008
6.19679e-008
6.1974e-008
6.19773e-008
6.19815e-008
6.19849e-008
6.19879e-008
6.19901e-008
6.19912e-008
6.19924e-008
6.19916e-008
6.1992e-008
6.19883e-008
6.1986e-008
6.19801e-008
6.19751e-008
6.19655e-008
6.19586e-008
6.19486e-008
6.19406e-008
6.19304e-008
6.19199e-008
6.19079e-008
6.18964e-008
6.18839e-008
6.18701e-008
6.18541e-008
6.18371e-008
6.1818e-008
6.17946e-008
6.16998e-008
6.15187e-008
6.17784e-008
6.19872e-008
6.04942e-008
6.26795e-008
6.19747e-008
5.38868e-008
1.20514e-007
2.73128e-006
0.000191356
0.00795268
0.0948944
0.448681
3.31579e-008
3.31743e-008
3.3178e-008
3.31795e-008
3.31885e-008
3.3205e-008
3.32206e-008
3.32286e-008
3.32328e-008
3.32361e-008
3.32459e-008
3.32629e-008
3.32721e-008
3.32749e-008
3.32812e-008
3.32957e-008
3.33205e-008
3.33317e-008
3.3339e-008
3.33558e-008
3.33772e-008
3.33998e-008
3.34076e-008
3.34123e-008
3.34221e-008
3.34356e-008
3.34418e-008
3.34494e-008
3.34644e-008
3.348e-008
3.34923e-008
3.35042e-008
3.3511e-008
3.35252e-008
3.35419e-008
3.35567e-008
3.35696e-008
3.35819e-008
3.35943e-008
3.36065e-008
3.36184e-008
3.36299e-008
3.36413e-008
3.36533e-008
3.36662e-008
3.36804e-008
3.36941e-008
3.3706e-008
3.37154e-008
3.37264e-008
3.37394e-008
3.37526e-008
3.37649e-008
3.37767e-008
3.37883e-008
3.37999e-008
3.38109e-008
3.38223e-008
3.38331e-008
3.38443e-008
3.3855e-008
3.38659e-008
3.38767e-008
3.38872e-008
3.38976e-008
3.39079e-008
3.39181e-008
3.39276e-008
3.39377e-008
3.39474e-008
3.39558e-008
3.39677e-008
3.39744e-008
3.39863e-008
3.39907e-008
3.40008e-008
3.4004e-008
3.40101e-008
3.40187e-008
3.40262e-008
3.40365e-008
3.40413e-008
3.40503e-008
3.4058e-008
3.40695e-008
3.40724e-008
3.40756e-008
3.40847e-008
3.40913e-008
3.40973e-008
3.41004e-008
3.41085e-008
3.41178e-008
3.41262e-008
3.41301e-008
3.41332e-008
3.41349e-008
3.41389e-008
3.41412e-008
3.41447e-008
3.41459e-008
3.4148e-008
3.41487e-008
3.41494e-008
3.415e-008
3.41494e-008
3.41498e-008
3.41475e-008
3.41465e-008
3.41432e-008
3.41412e-008
3.41364e-008
3.4133e-008
3.41277e-008
3.4123e-008
3.41167e-008