/*--------------------------------*- C++ -*----------------------------------*\
| =========                 |                                                 |
| \\      /  F ield         | OpenFOAM: The Open Source CFD Toolbox           |
|  \\    /   O peration     | Version:  5.x                                   |
|   \\  /    A nd           | Web:      www.OpenFOAM.org                      |
|    \\/     M anipulation  |                                                 |
\*---------------------------------------------------------------------------*/
/*   Windows 32 and 64 bit porting by blueCAPE: http://www.bluecape.com.pt   *\
|  Based on Windows porting (2.0.x v4) by Symscape: http://www.symscape.com   |
\*---------------------------------------------------------------------------*/
FoamFile
{
    version     2.0;
    format      ascii;
    class       volScalarField;
    location    "330";
    object      nut;
}
// * * * * * * * * * * * * * * * * * * * * * * * * * * * * * * * * * * * * * //

dimensions      [0 2 -1 0 0 0 0];

internalField   nonuniform List<scalar> 
43900
(
5.716e-005
5.80007e-005
5.80695e-005
5.80643e-005
5.80596e-005
5.80586e-005
5.80589e-005
5.8059e-005
5.8059e-005
5.80593e-005
5.80593e-005
5.80596e-005
5.80598e-005
5.80598e-005
5.806e-005
5.806e-005
5.80598e-005
5.806e-005
5.80602e-005
5.80602e-005
5.80603e-005
5.80602e-005
5.80603e-005
5.80603e-005
5.80602e-005
5.80603e-005
5.80605e-005
5.80605e-005
5.80605e-005
0.00059165
7.39396e-006
4.30795e-006
4.1613e-006
4.5798e-006
4.60604e-006
4.60912e-006
4.60391e-006
4.60379e-006
4.60444e-006
4.60448e-006
4.60526e-006
4.60577e-006
4.60586e-006
4.60637e-006
4.60636e-006
4.60609e-006
4.60663e-006
4.60688e-006
4.60691e-006
4.60713e-006
4.60705e-006
4.60725e-006
4.6074e-006
4.60721e-006
4.60748e-006
4.60784e-006
4.60777e-006
4.60782e-006
0.153477
0.0456338
0.00522877
0.000108867
1.31867e-006
6.44607e-007
6.01853e-007
7.14178e-007
7.25165e-007
7.23482e-007
7.21766e-007
7.21791e-007
7.22277e-007
7.22595e-007
7.22712e-007
7.22732e-007
7.22929e-007
7.23184e-007
7.23202e-007
7.23285e-007
7.23349e-007
7.234e-007
7.23568e-007
7.23663e-007
7.23726e-007
7.23832e-007
7.23812e-007
7.23785e-007
7.23897e-007
0.475906
0.2918
0.134047
0.0387108
0.00465572
0.000180453
4.24009e-006
2.56614e-007
1.74095e-007
1.93758e-007
2.13802e-007
2.15432e-007
2.12522e-007
2.11757e-007
2.12241e-007
2.12405e-007
2.12342e-007
2.12394e-007
2.12482e-007
2.12541e-007
2.12569e-007
2.12625e-007
2.12694e-007
2.12704e-007
2.12723e-007
2.12764e-007
2.12784e-007
2.12839e-007
2.12885e-007
0.757103
0.58177
0.414298
0.249306
0.107026
0.0268047
0.00272138
0.000131806
3.10549e-006
2.1429e-007
9.05459e-008
8.37381e-008
1.02299e-007
1.06084e-007
1.03148e-007
1.0274e-007
1.03738e-007
1.03748e-007
1.03472e-007
1.03506e-007
1.03512e-007
1.03504e-007
1.03538e-007
1.03578e-007
1.03609e-007
1.03622e-007
1.03634e-007
1.03647e-007
1.03659e-007
0.966676
0.798635
0.642349
0.490589
0.33874
0.188082
0.0684563
0.0125393
0.000949671
4.76934e-005
1.43827e-006
1.55103e-007
6.3916e-008
6.09018e-008
7.23452e-008
7.24463e-008
6.88833e-008
6.94186e-008
7.05825e-008
7.03617e-008
7.03848e-008
7.05227e-008
7.0499e-008
7.0467e-008
7.05069e-008
7.05386e-008
7.05458e-008
7.05629e-008
7.05792e-008
1.12583
0.963528
0.815238
0.674698
0.536887
0.397802
0.254651
0.113174
0.0293365
0.00327282
0.000201399
1.0597e-005
3.9942e-007
8.33458e-008
4.9513e-008
5.34648e-008
6.2634e-008
5.91994e-008
5.7046e-008
5.81237e-008
5.80681e-008
5.77877e-008
5.78585e-008
5.79023e-008
5.78176e-008
5.78062e-008
5.78404e-008
5.7864e-008
5.78654e-008
1.24328
1.08549
0.942932
0.81004
0.68218
0.555563
0.427494
0.297763
0.162307
0.0532901
0.00831945
0.000624607
3.7967e-005
2.07588e-006
1.35417e-007
5.63634e-008
4.29088e-008
5.11397e-008
5.34487e-008
5.04829e-008
5.10688e-008
5.19167e-008
5.18805e-008
5.19665e-008
5.21415e-008
5.20575e-008
5.19715e-008
5.20092e-008
5.20396e-008
1.33816
1.18415
1.04594
0.918504
0.797623
0.679792
0.562194
0.442721
0.319478
0.192485
0.072268
0.013826
0.00123842
8.41084e-005
5.44944e-006
3.27791e-007
7.35497e-008
4.70357e-008
4.60541e-008
5.2416e-008
4.95881e-008
4.82525e-008
4.85263e-008
4.84363e-008
4.84952e-008
4.8816e-008
4.89078e-008
4.87678e-008
4.87183e-008
1.40203
1.25381
1.12095
0.999512
0.885543
0.77572
0.667268
0.557924
0.445909
0.330093
0.210696
0.0855499
0.0184825
0.00189421
0.000141885
1.02281e-005
7.2278e-007
8.35464e-008
5.00207e-008
4.16145e-008
4.76322e-008
4.81246e-008
4.68434e-008
4.70158e-008
4.68072e-008
4.63263e-008
4.65175e-008
4.69457e-008
4.69701e-008
1.44599
1.30063
1.17276
1.05656
0.948662
0.845882
0.745512
0.645289
0.543395
0.438493
0.329863
0.217907
0.09233
0.0213072
0.00240062
0.000197018
1.56037e-005
1.21786e-006
1.2166e-007
5.78287e-008
4.22689e-008
4.43974e-008
4.70902e-008
4.58234e-008
4.60559e-008
4.61843e-008
4.58169e-008
4.55034e-008
4.56692e-008
1.48464
1.34232
1.217
1.10428
1.00037
0.90247
0.807979
0.71469
0.620767
0.52477
0.425694
0.323078
0.21743
0.0958313
0.0228921
0.0027651
0.000247204
2.13635e-005
1.84307e-006
1.8714e-007
5.79889e-008
4.50789e-008
4.316e-008
4.68724e-008
4.59487e-008
4.55767e-008
4.58111e-008
4.56823e-008
4.52091e-008
1.51213
1.37329
1.25081
1.14182
1.04176
0.948143
0.858597
0.771023
0.683636
0.594978
0.503926
0.409722
0.311991
0.210728
0.0946273
0.0229094
0.00293216
0.000286479
2.7115e-005
2.58223e-006
2.66968e-007
6.17983e-008
4.68495e-008
4.09854e-008
4.40795e-008
4.47993e-008
4.47716e-008
4.49364e-008
4.52569e-008
1.5307
1.39606
1.27682
1.17028
1.07443
0.984755
0.89961
0.817001
0.735208
0.652795
0.568603
0.481757
0.391652
0.297923
0.200364
0.0879117
0.0210483
0.00281537
0.000299998
3.10867e-005
3.23946e-006
3.54445e-007
7.24984e-008
4.99356e-008
4.06201e-008
4.18281e-008
4.32019e-008
4.32194e-008
4.35235e-008
1.54208
1.41109
1.29619
1.1928
1.09928
1.01406
0.932925
0.854736
0.777847
0.700858
0.622616
0.542203
0.458934
0.372333
0.282118
0.188368
0.0780611
0.0182092
0.0025384
0.000295215
3.35524e-005
3.83186e-006
4.56182e-007
8.81186e-008
4.9251e-008
4.2534e-008
4.10903e-008
4.18599e-008
4.16214e-008
1.54776
1.42048
1.30901
1.20999
1.11949
1.03672
0.959986
0.885887
0.813446
0.741311
0.668349
0.59364
0.516467
0.4363
0.352788
0.265772
0.175558
0.069568
0.0158255
0.0023109
0.000292863
3.64299e-005
4.54551e-006
5.88429e-007
1.06196e-007
4.95118e-008
4.38426e-008
4.05246e-008
4.13205e-008
1.54881
1.42533
1.31734
1.22162
1.13546
1.05536
0.981379
0.91144
0.843113
0.775434
0.707292
0.63777
0.566136
0.49183
0.414446
0.333723
0.249513
0.161522
0.0613864
0.0137505
0.00211589
0.000290795
3.92846e-005
5.31653e-006
7.41169e-007
1.2983e-007
5.34384e-008
4.5902e-008
4.12021e-008
1.5461
1.4265
1.32203
1.22962
1.14668
1.07098
0.999668
0.932809
0.86811
0.804332
0.740434
0.675511
0.608826
0.539795
0.467977
0.393051
0.314783
0.232932
0.146979
0.0536276
0.0119283
0.00193804
0.000287718
4.2087e-005
6.17268e-006
9.26487e-007
1.64376e-007
6.02503e-008
4.72012e-008
1.54035
1.42468
1.32378
1.23469
1.15493
1.08237
1.01495
0.951051
0.890252
0.830048
0.769958
0.709117
0.646805
0.582443
0.515575
0.445855
0.373021
0.296845
0.217019
0.132734
0.0466597
0.0104247
0.00179999
0.000289286
4.58578e-005
7.26605e-006
1.16936e-006
2.1263e-007
6.9439e-008
1.5321
1.42043
1.32314
1.23737
1.16074
1.09121
1.02697
0.965936
0.907691
0.851282
0.794958
0.738078
0.679945
0.619991
0.557761
0.492901
0.425138
0.354252
0.280017
0.20206
0.119313
0.040676
0.00923558
0.00169848
0.000294332
5.02749e-005
8.56173e-006
1.47151e-006
2.73481e-007
1.52178
1.41418
1.32054
1.23812
1.16466
1.09819
1.03702
0.979714
0.924448
0.871019
0.817905
0.764466
0.710015
0.653988
0.595925
0.535462
0.472313
0.406252
0.337081
0.264564
0.188258
0.106918
0.0356392
0.00829906
0.00162495
0.000302192
5.53761e-005
1.01064e-005
1.82434e-006
1.50972
1.40624
1.31629
1.23724
1.1669
1.10338
1.04505
0.990444
0.93812
0.887396
0.837693
0.787639
0.73674
0.68445
0.630321
0.573989
0.515165
0.453619
0.389161
0.321613
0.25075
0.176128
0.0947588
0.0311418
0.00749095
0.00156197
0.000311184
6.10743e-005
1.16762e-005
1.49618
1.39687
1.31065
1.23499
1.1678
1.10727
1.05184
1.00019
0.951184
0.903433
0.856548
0.809468
0.761721
0.712778
0.662198
0.609619
0.554748
0.497349
0.43723
0.37423
0.30819
0.238916
0.166297
0.082225
0.0269283
0.0067407
0.00149774
0.000319906
6.58532e-005
1.48134
1.38624
1.30379
1.23154
1.16747
1.10987
1.05722
1.00821
0.961678
0.916472
0.872238
0.828308
0.783796
0.738199
0.691099
0.642148
0.591059
0.5376
0.48158
0.422844
0.361254
0.296684
0.22904
0.158771
0.0726807
0.023915
0.00624827
0.00147697
0.000329487
1.46535
1.37451
1.29584
1.22701
1.16609
1.11142
1.06157
1.0153
0.971568
0.92949
0.888055
0.847001
0.805162
0.762437
0.718406
0.672717
0.625076
0.575242
0.523018
0.46824
0.410774
0.350505
0.287351
0.221351
0.152685
0.0679503
0.0224767
0.00610538
0.00148784
1.44834
1.36178
1.28692
1.22153
1.16374
1.11199
1.06489
1.02127
0.980114
0.940547
0.901527
0.862872
0.824013
0.784305
0.743371
0.700888
0.656582
0.610221
0.56161
0.510586
0.457014
0.400779
0.341794
0.280004
0.215354
0.147269
0.0650893
0.0219373
0.00606322
1.43041
1.34815
1.27713
1.21517
1.16052
1.11166
1.06728
1.02625
0.987596
0.950465
0.914106
0.87797
0.841839
0.804844
0.766755
0.727253
0.686066
0.642963
0.597749
0.550258
0.50035
0.447906
0.39283
0.335037
0.274433
0.210767
0.143556
0.0637452
0.0215526
1.41165
1.33371
1.26653
1.20802
1.1565
1.11052
1.06884
1.03039
0.994261
0.959677
0.926019
0.892392
0.85867
0.8242
0.788764
0.752047
0.713781
0.673735
0.631713
0.587545
0.541085
0.49221
0.440812
0.386796
0.330065
0.270464
0.207704
0.141793
0.0625276
1.39214
1.31854
1.2552
1.20013
1.15173
1.10862
1.06961
1.03368
0.999945
0.967653
0.936125
0.904712
0.87332
0.841567
0.808869
0.774945
0.739551
0.702471
0.663517
0.622525
0.579348
0.533861
0.48595
0.435517
0.382461
0.326666
0.267994
0.206228
0.139696
1.37197
1.30269
1.2432
1.19157
1.14628
1.10602
1.06965
1.03622
1.00489
0.974952
0.94582
0.916993
0.887977
0.858619
0.828253
0.796799
0.764006
0.729656
0.693555
0.655533
0.61544
0.573143
0.528522
0.481471
0.431888
0.379671
0.324714
0.266835
0.206253
1.35117
1.28622
1.23057
1.18237
1.14018
1.10275
1.06901
1.03805
1.00908
0.981463
0.954644
0.928189
0.901413
0.874237
0.846262
0.817268
0.787016
0.755297
0.721924
0.686729
0.649562
0.610285
0.568776
0.524922
0.47862
0.429769
0.378273
0.324016
0.266872
1.32979
1.26916
1.21733
1.17255
1.13345
1.09883
1.0677
1.03918
1.01254
0.987151
0.962478
0.938032
0.91332
0.888362
0.86287
0.836358
0.808622
0.779476
0.748744
0.716268
0.681899
0.645501
0.606948
0.566126
0.522927
0.477251
0.429
0.378076
0.324321
1.30784
1.25149
1.20348
1.16211
1.12607
1.09426
1.06572
1.03963
1.01531
0.992166
0.969704
0.947504
0.925223
0.902479
0.87918
0.854839
0.829392
0.802634
0.774384
0.744477
0.712759
0.67909
0.643339
0.605386
0.565119
0.522434
0.47723
0.429411
0.378856
1.28531
1.23321
1.18898
1.15099
1.11802
1.089
1.06305
1.03939
1.01738
0.996472
0.976209
0.956211
0.936183
0.91559
0.894439
0.872344
0.849195
0.824795
0.798966
0.771544
0.742377
0.711321
0.678243
0.643019
0.60553
0.565667
0.523328
0.478412
0.430819
1.26214
1.21425
1.17378
1.13916
1.10922
1.08299
1.05962
1.03839
1.0187
1.00002
0.981927
0.964045
0.94603
0.927512
0.908489
0.888805
0.868037
0.846024
0.82261
0.797641
0.770968
0.74245
0.711952
0.679345
0.644507
0.607323
0.567685
0.525492
0.480648
1.23828
1.19455
1.1578
1.1265
1.09959
1.07614
1.05535
1.03655
1.01918
1.00276
0.986875
0.971179
0.955364
0.93915
0.922388
0.904862
0.886341
0.866639
0.845588
0.823029
0.798807
0.772775
0.74479
0.714719
0.682431
0.647807
0.610731
0.571099
0.528815
1.21366
1.17403
1.14094
1.11293
1.08902
1.06833
1.05012
1.03376
1.01874
1.00459
0.990953
0.977498
0.963964
0.950159
0.935615
0.920477
0.904146
0.886736
0.868047
0.847901
0.82613
0.802575
0.777082
0.749507
0.719711
0.687562
0.652938
0.615729
0.575837
1.18823
1.1526
1.12311
1.09835
1.07739
1.05944
1.0438
1.02989
1.01722
1.00537
0.994006
0.98281
0.97152
0.959888
0.947623
0.934743
0.920989
0.906102
0.889929
0.872308
0.853075
0.832065
0.809113
0.784063
0.756759
0.727057
0.694824
0.659937
0.622298
1.16197
1.13025
1.10427
1.08269
1.06464
1.04939
1.03629
1.02481
1.0145
1.00498
0.995904
0.987005
0.978025
0.968718
0.958806
0.948341
0.937138
0.924832
0.911274
0.896298
0.879731
0.861395
0.841107
0.818689
0.793964
0.766763
0.736932
0.704333
0.668854
1.13494
1.10701
1.08444
1.06595
1.05075
1.03815
1.02756
1.01849
1.01053
1.00331
0.996548
0.989973
0.98336
0.97651
0.969287
0.961252
0.952617
0.942865
0.931991
0.919786
0.906047
0.89057
0.873144
0.853558
0.8316
0.807067
0.779764
0.749521
0.716202
1.10732
1.08304
1.06377
1.04828
1.03585
1.02583
1.0177
1.011
1.00534
1.00041
0.995926
0.991652
0.987378
0.982918
0.978094
0.972533
0.966608
0.959662
0.951661
0.942412
0.931708
0.919324
0.905025
0.88856
0.869672
0.848101
0.823597
0.795933
0.764925
1.07947
1.05867
1.04258
1.02999
1.02023
1.01273
1.00699
1.00259
0.999175
0.996449
0.994163
0.992102
0.990078
0.987922
0.985469
0.982512
0.978924
0.974828
0.969772
0.963593
0.956087
0.947021
0.936131
0.923126
0.907693
0.889503
0.868224
0.843541
0.815185
1.05191
1.03444
1.02139
1.01159
1.00443
0.999362
0.995926
0.993724
0.992427
0.991761
0.991498
0.991451
0.99146
0.991393
0.991136
0.990618
0.989352
0.987769
0.985504
0.982349
0.978087
0.972474
0.965221
0.956001
0.94444
0.930125
0.91262
0.891488
0.866334
1.0254
1.01107
1.00093
0.993818
0.98916
0.986428
0.98517
0.985001
0.985604
0.986721
0.988149
0.989731
0.99135
0.992916
0.994355
0.995585
0.996393
0.997058
0.997349
0.997022
0.995892
0.99372
0.990212
0.985016
0.977707
0.967776
0.954661
0.937779
0.916559
1.00086
0.989472
0.982101
0.977567
0.975289
0.974736
0.975439
0.977005
0.979115
0.981523
0.984056
0.986602
0.989106
0.991542
0.993917
0.996232
0.998564
1.00066
1.00303
1.00511
1.00679
1.00785
1.00801
1.00694
1.00417
0.999095
0.990981
0.979128
0.962727
0.97927
0.970629
0.965862
0.963741
0.963647
0.964998
0.967277
0.970055
0.972999
0.97588
0.978568
0.981027
0.983302
0.985451
0.987616
0.989824
0.992356
0.995852
0.999462
1.00319
1.00712
1.01098
1.01451
1.01749
1.01949
1.01966
1.01701
1.01102
1.00051
0.961565
0.955427
0.953036
0.95307
0.954818
0.957596
0.960799
0.963937
0.966661
0.968775
0.970228
0.9711
0.971626
0.971887
0.972392
0.973915
0.976394
0.979364
0.982768
0.987027
0.992561
0.998552
1.00508
1.01186
1.01849
1.02427
1.02704
1.02802
1.02487
0.948396
0.944462
0.944114
0.94589
0.948925
0.952378
0.955514
0.957772
0.958799
0.958478
0.956888
0.954248
0.951264
0.948922
0.947178
0.946089
0.945953
0.946664
0.948698
0.952647
0.95848
0.965895
0.974768
0.984862
0.995805
1.00696
1.01728
1.02513
1.0287
0.939967
0.937866
0.939091
0.942005
0.945525
0.948602
0.950353
0.950149
0.947682
0.942984
0.936557
0.929532
0.922211
0.914493
0.907281
0.901249
0.896632
0.894184
0.894098
0.896619
0.90181
0.909582
0.919839
0.932424
0.947064
0.963293
0.980261
0.997246
1.00958
0.935944
0.935224
0.937423
0.940695
0.943691
0.945132
0.943989
0.939608
0.931812
0.921909
0.90929
0.894688
0.879534
0.864483
0.850676
0.838725
0.829183
0.822589
0.81913
0.818923
0.82216
0.828885
0.839085
0.852727
0.869723
0.889912
0.912733
0.937675
0.963315
0.935492
0.93566
0.938154
0.940916
0.942304
0.940834
0.935376
0.925726
0.911736
0.893597
0.87235
0.849411
0.826098
0.803536
0.782676
0.764238
0.748797
0.736823
0.728583
0.72417
0.723799
0.727601
0.735635
0.74801
0.764893
0.786612
0.813112
0.844209
0.883141
0.93748
0.938052
0.940182
0.941619
0.940431
0.935141
0.924584
0.908266
0.886259
0.859907
0.830598
0.799736
0.76874
0.738816
0.710975
0.685951
0.664267
0.646304
0.632299
0.622388
0.616747
0.615537
0.618775
0.626672
0.639657
0.658667
0.684527
0.717235
0.765611
0.940746
0.941309
0.942543
0.942052
0.937783
0.928022
0.911541
0.888336
0.859261
0.825602
0.789049
0.75128
0.713795
0.6778
0.644211
0.613654
0.586531
0.563088
0.543461
0.527721
0.515956
0.508139
0.504219
0.50483
0.51041
0.521888
0.540918
0.566557
0.614803
0.944329
0.944592
0.944627
0.941962
0.934318
0.91995
0.898076
0.869012
0.833883
0.794386
0.752415
0.709747
0.667863
0.627882
0.590573
0.556409
0.525635
0.498345
0.474534
0.454153
0.437147
0.423329
0.412572
0.405344
0.401785
0.402887
0.410846
0.422306
0.459495
0.947595
0.947417
0.94621
0.941337
0.930582
0.912314
0.886054
0.852459
0.813018
0.769686
0.724475
0.679165
0.635155
0.593435
0.554625
0.519054
0.486836
0.457943
0.432263
0.409639
0.389892
0.372998
0.35839
0.346046
0.335712
0.3286
0.325139
0.321352
0.337098
0.950233
0.949618
0.947308
0.940632
0.927409
0.906256
0.876966
0.840505
0.79863
0.753445
0.706992
0.660994
0.616744
0.575105
0.536581
0.5014
0.469599
0.441091
0.415716
0.393282
0.373568
0.356424
0.341701
0.329389
0.317846
0.30933
0.299916
0.291993
0.285736
0.952171
0.951226
0.948147
0.940254
0.925507
0.902682
0.871822
0.834111
0.79146
0.746024
0.699817
0.654481
0.611209
0.570772
0.5336
0.499871
0.469593
0.442669
0.418946
0.398247
0.380377
0.365209
0.352474
0.34263
0.334117
0.330576
0.323482
0.327253
0.300154
0.953483
0.952385
0.949011
0.940642
0.925374
0.902105
0.871019
0.833408
0.791232
0.746634
0.701573
0.657623
0.61591
0.577158
0.541766
0.5099
0.481574
0.456711
0.435186
0.416865
0.401603
0.389341
0.379861
0.373728
0.369327
0.371916
0.370481
0.387873
0.350188
0.954328
0.953291
0.950154
0.942088
0.927296
0.904695
0.874495
0.837988
0.797109
0.753961
0.710463
0.668151
0.628136
0.591133
0.557551
0.527575
0.501243
0.478511
0.459293
0.443501
0.431048
0.421949
0.416093
0.414171
0.414783
0.42361
0.429506
0.455673
0.420231
5.80605e-005
5.80604e-005
5.80606e-005
5.80611e-005
5.80612e-005
5.80607e-005
5.80603e-005
5.80606e-005
5.80613e-005
5.80617e-005
5.80612e-005
5.80606e-005
5.80608e-005
5.80618e-005
5.80621e-005
5.80611e-005
5.80602e-005
5.80601e-005
5.80608e-005
5.80608e-005
5.80598e-005
5.80591e-005
5.80592e-005
5.80601e-005
5.80607e-005
5.80608e-005
5.8061e-005
5.80609e-005
5.80601e-005
5.80595e-005
5.80593e-005
5.80599e-005
5.80608e-005
5.80608e-005
5.80608e-005
5.80608e-005
5.80608e-005
5.80607e-005
5.80607e-005
5.80607e-005
5.80607e-005
5.80608e-005
5.80608e-005
5.80609e-005
5.80609e-005
5.80609e-005
5.80609e-005
5.80609e-005
5.80609e-005
5.80609e-005
5.80609e-005
5.80609e-005
5.8061e-005
5.8061e-005
5.8061e-005
5.8061e-005
5.80611e-005
5.80611e-005
5.80611e-005
5.80611e-005
5.80612e-005
5.80612e-005
5.80612e-005
5.80612e-005
5.80613e-005
5.80613e-005
5.80613e-005
5.80614e-005
5.80614e-005
5.80614e-005
5.80614e-005
5.80614e-005
5.80615e-005
5.80615e-005
5.80615e-005
5.80615e-005
5.80615e-005
5.80616e-005
5.80616e-005
5.80615e-005
5.80617e-005
5.80618e-005
5.80618e-005
5.80618e-005
5.80618e-005
5.80618e-005
5.80615e-005
5.80616e-005
5.80617e-005
5.80618e-005
5.80619e-005
5.80619e-005
5.80618e-005
5.80618e-005
5.80618e-005
5.80618e-005
5.80619e-005
5.80619e-005
5.80619e-005
5.80619e-005
5.80619e-005
5.80619e-005
5.80619e-005
5.80619e-005
5.80619e-005
5.80619e-005
5.80619e-005
5.80619e-005
5.80619e-005
5.80619e-005
5.80619e-005
5.80619e-005
5.80619e-005
5.80619e-005
5.80619e-005
5.80619e-005
5.80619e-005
5.80619e-005
5.80619e-005
5.80619e-005
5.80619e-005
5.80619e-005
5.80619e-005
5.80619e-005
5.80619e-005
5.80619e-005
5.80619e-005
5.8062e-005
5.80619e-005
5.8062e-005
5.80621e-005
5.80622e-005
5.80622e-005
5.80625e-005
5.80623e-005
5.80627e-005
5.80625e-005
5.80633e-005
5.93213e-005
4.60784e-006
4.6077e-006
4.6082e-006
4.60918e-006
4.60917e-006
4.60802e-006
4.60746e-006
4.60837e-006
4.60986e-006
4.61032e-006
4.60909e-006
4.60794e-006
4.60874e-006
4.61084e-006
4.61117e-006
4.60907e-006
4.60722e-006
4.60723e-006
4.60841e-006
4.60816e-006
4.6062e-006
4.60508e-006
4.60548e-006
4.60739e-006
4.60836e-006
4.60868e-006
4.60893e-006
4.60858e-006
4.60696e-006
4.60591e-006
4.60563e-006
4.60721e-006
4.60881e-006
4.60881e-006
4.60875e-006
4.60872e-006
4.6087e-006
4.60869e-006
4.60868e-006
4.60869e-006
4.60871e-006
4.60877e-006
4.60888e-006
4.60899e-006
4.60908e-006
4.60912e-006
4.60914e-006
4.60913e-006
4.60916e-006
4.60918e-006
4.60921e-006
4.60923e-006
4.60929e-006
4.60934e-006
4.60939e-006
4.60945e-006
4.60953e-006
4.60958e-006
4.60967e-006
4.60971e-006
4.60978e-006
4.60985e-006
4.6099e-006
4.60998e-006
4.61002e-006
4.6101e-006
4.61016e-006
4.61026e-006
4.61028e-006
4.61036e-006
4.6104e-006
4.61043e-006
4.61061e-006
4.61054e-006
4.61069e-006
4.61071e-006
4.61066e-006
4.61082e-006
4.61082e-006
4.61058e-006
4.61097e-006
4.61113e-006
4.61116e-006
4.61128e-006
4.61131e-006
4.61124e-006
4.61072e-006
4.61082e-006
4.61112e-006
4.61134e-006
4.61148e-006
4.61144e-006
4.6114e-006
4.6114e-006
4.61142e-006
4.61141e-006
4.61147e-006
4.61144e-006
4.61148e-006
4.61148e-006
4.61149e-006
4.6115e-006
4.61151e-006
4.61152e-006
4.61151e-006
4.61152e-006
4.61148e-006
4.6115e-006
4.61147e-006
4.61146e-006
4.61143e-006
4.61142e-006
4.6114e-006
4.61139e-006
4.61137e-006
4.61136e-006
4.61135e-006
4.61133e-006
4.61134e-006
4.61133e-006
4.61134e-006
4.61133e-006
4.61133e-006
4.61133e-006
4.61134e-006
4.61133e-006
4.61138e-006
4.61144e-006
4.61142e-006
4.61159e-006
4.61165e-006
4.61198e-006
4.61188e-006
4.6127e-006
4.61218e-006
4.61298e-006
4.61388e-006
4.61761e-006
5.08996e-006
7.23956e-007
7.24043e-007
7.24249e-007
7.24299e-007
7.24006e-007
7.238e-007
7.24075e-007
7.24581e-007
7.24735e-007
7.24367e-007
7.23908e-007
7.24038e-007
7.2464e-007
7.24922e-007
7.2464e-007
7.24118e-007
7.2404e-007
7.24264e-007
7.24251e-007
7.24054e-007
7.23834e-007
7.24023e-007
7.24389e-007
7.24627e-007
7.2457e-007
7.24611e-007
7.24658e-007
7.24454e-007
7.24196e-007
7.24272e-007
7.24456e-007
7.24985e-007
7.24911e-007
7.24862e-007
7.24898e-007
7.24928e-007
7.2495e-007
7.24969e-007
7.24992e-007
7.25021e-007
7.25057e-007
7.251e-007
7.25143e-007
7.25175e-007
7.25201e-007
7.25227e-007
7.25246e-007
7.25268e-007
7.2529e-007
7.25315e-007
7.2534e-007
7.25366e-007
7.25396e-007
7.25426e-007
7.25456e-007
7.25491e-007
7.25522e-007
7.25558e-007
7.25589e-007
7.25624e-007
7.25657e-007
7.25686e-007
7.25726e-007
7.25752e-007
7.25791e-007
7.25816e-007
7.25863e-007
7.25872e-007
7.25925e-007
7.25947e-007
7.25966e-007
7.2603e-007
7.26016e-007
7.26065e-007
7.26073e-007
7.2613e-007
7.26091e-007
7.26087e-007
7.26096e-007
7.26041e-007
7.26094e-007
7.26067e-007
7.26111e-007
7.26234e-007
7.26295e-007
7.26227e-007
7.2616e-007
7.26228e-007
7.26214e-007
7.2628e-007
7.2637e-007
7.26391e-007
7.26404e-007
7.26412e-007
7.26415e-007
7.26414e-007
7.26418e-007
7.26415e-007
7.26417e-007
7.26417e-007
7.26415e-007
7.26415e-007
7.26412e-007
7.2641e-007
7.26404e-007
7.264e-007
7.2639e-007
7.26385e-007
7.26373e-007
7.26359e-007
7.26342e-007
7.26323e-007
7.26301e-007
7.26274e-007
7.26256e-007
7.26224e-007
7.2621e-007
7.26181e-007
7.26171e-007
7.26148e-007
7.26133e-007
7.26106e-007
7.26084e-007
7.26064e-007
7.26038e-007
7.26002e-007
7.26005e-007
7.25942e-007
7.25928e-007
7.26018e-007
7.25869e-007
7.26013e-007
7.26014e-007
7.25924e-007
7.25819e-007
7.30313e-007
6.98409e-007
6.41804e-007
1.62487e-006
2.1289e-007
2.12936e-007
2.12983e-007
2.12952e-007
2.12928e-007
2.13019e-007
2.13168e-007
2.13201e-007
2.13098e-007
2.12997e-007
2.1305e-007
2.13218e-007
2.13325e-007
2.13266e-007
2.13138e-007
2.13071e-007
2.13134e-007
2.13227e-007
2.13271e-007
2.13281e-007
2.13323e-007
2.13322e-007
2.13362e-007
2.13369e-007
2.13432e-007
2.13469e-007
2.1349e-007
2.13474e-007
2.13474e-007
2.13456e-007
2.13484e-007
2.13555e-007
2.13571e-007
2.13619e-007
2.13642e-007
2.13661e-007
2.1368e-007
2.13699e-007
2.13718e-007
2.1374e-007
2.13762e-007
2.13784e-007
2.13801e-007
2.13813e-007
2.13829e-007
2.13851e-007
2.13873e-007
2.13899e-007
2.1392e-007
2.13943e-007
2.13963e-007
2.13985e-007
2.14007e-007
2.14027e-007
2.14049e-007
2.14072e-007
2.14091e-007
2.14114e-007
2.14133e-007
2.14155e-007
2.14176e-007
2.14194e-007
2.14218e-007
2.14233e-007
2.14255e-007
2.14271e-007
2.14294e-007
2.14304e-007
2.14329e-007
2.14339e-007
2.14352e-007
2.14382e-007
2.14379e-007
2.14405e-007
2.14406e-007
2.14423e-007
2.14422e-007
2.14422e-007
2.14441e-007
2.14436e-007
2.14465e-007
2.1446e-007
2.14479e-007
2.14508e-007
2.14536e-007
2.14532e-007
2.14525e-007
2.14543e-007
2.14553e-007
2.14574e-007
2.14604e-007
2.14626e-007
2.14648e-007
2.1466e-007
2.14664e-007
2.14671e-007
2.1467e-007
2.14676e-007
2.14677e-007
2.1468e-007
2.14681e-007
2.14681e-007
2.14681e-007
2.1468e-007
2.14679e-007
2.14675e-007
2.14673e-007
2.14667e-007
2.14663e-007
2.14653e-007
2.14645e-007
2.14631e-007
2.14619e-007
2.14601e-007
2.1459e-007
2.14571e-007
2.14557e-007
2.14539e-007
2.14525e-007
2.14508e-007
2.1449e-007
2.14468e-007
2.14446e-007
2.14423e-007
2.14397e-007
2.1436e-007
2.14331e-007
2.14312e-007
2.14275e-007
2.14161e-007
2.1439e-007
2.14176e-007
2.13774e-007
2.19656e-007
2.16353e-007
1.71342e-007
5.72131e-007
0.000123048
0.00851264
1.0369e-007
1.03727e-007
1.03742e-007
1.03747e-007
1.03774e-007
1.0381e-007
1.03822e-007
1.03808e-007
1.03811e-007
1.03841e-007
1.03888e-007
1.03907e-007
1.03903e-007
1.03881e-007
1.03869e-007
1.03905e-007
1.03952e-007
1.04007e-007
1.04049e-007
1.04052e-007
1.04063e-007
1.04072e-007
1.04097e-007
1.04138e-007
1.04165e-007
1.04176e-007
1.04187e-007
1.04182e-007
1.04162e-007
1.04164e-007
1.04205e-007
1.04248e-007
1.04298e-007
1.04308e-007
1.04327e-007
1.04346e-007
1.04365e-007
1.04382e-007
1.044e-007
1.04417e-007
1.04434e-007
1.04448e-007
1.04459e-007
1.0447e-007
1.04485e-007
1.04505e-007
1.04523e-007
1.04543e-007
1.04562e-007
1.04582e-007
1.046e-007
1.04619e-007
1.04636e-007
1.04653e-007
1.04671e-007
1.04688e-007
1.04704e-007
1.0472e-007
1.04735e-007
1.04752e-007
1.04767e-007
1.04782e-007
1.04797e-007
1.04811e-007
1.04826e-007
1.0484e-007
1.04853e-007
1.04867e-007
1.0488e-007
1.04892e-007
1.04905e-007
1.04921e-007
1.04929e-007
1.04948e-007
1.04954e-007
1.04965e-007
1.04975e-007
1.04984e-007
1.04999e-007
1.05004e-007
1.05022e-007
1.05028e-007
1.0504e-007
1.05051e-007
1.05059e-007
1.05066e-007
1.05074e-007
1.05088e-007
1.05092e-007
1.051e-007
1.05116e-007
1.05129e-007
1.05137e-007
1.05143e-007
1.0515e-007
1.05162e-007
1.05164e-007
1.05174e-007
1.05177e-007
1.05181e-007
1.05184e-007
1.05187e-007
1.05188e-007
1.05188e-007
1.05189e-007
1.05186e-007
1.05186e-007
1.05179e-007
1.05176e-007
1.05167e-007
1.0516e-007
1.05145e-007
1.05136e-007
1.0512e-007
1.0511e-007
1.05095e-007
1.05082e-007
1.05067e-007
1.05054e-007
1.0504e-007
1.05025e-007
1.05007e-007
1.0499e-007
1.04971e-007
1.04951e-007
1.04951e-007
1.05009e-007
1.04831e-007
1.04614e-007
1.05492e-007
1.03966e-007
1.04793e-007
1.07903e-007
7.5508e-008
9.38694e-008
1.1185e-006
0.000158299
0.00878249
0.0842851
7.05993e-008
7.06153e-008
7.06296e-008
7.06367e-008
7.06437e-008
7.06602e-008
7.06856e-008
7.07031e-008
7.07185e-008
7.07249e-008
7.07311e-008
7.07505e-008
7.07738e-008
7.07794e-008
7.07865e-008
7.08048e-008
7.08469e-008
7.08914e-008
7.09114e-008
7.0917e-008
7.09194e-008
7.09422e-008
7.09744e-008
7.10109e-008
7.10291e-008
7.10392e-008
7.10363e-008
7.10253e-008
7.10243e-008
7.10473e-008
7.10757e-008
7.1116e-008
7.11393e-008
7.11515e-008
7.11691e-008
7.11875e-008
7.1205e-008
7.12223e-008
7.12394e-008
7.12563e-008
7.12718e-008
7.12854e-008
7.12986e-008
7.13133e-008
7.13294e-008
7.13463e-008
7.13654e-008
7.13865e-008
7.14052e-008
7.14216e-008
7.14372e-008
7.14536e-008
7.14699e-008
7.1486e-008
7.15022e-008
7.1518e-008
7.1533e-008
7.15483e-008
7.1563e-008
7.15779e-008
7.15925e-008
7.1607e-008
7.16218e-008
7.16357e-008
7.16502e-008
7.16639e-008
7.16778e-008
7.16913e-008
7.1705e-008
7.17178e-008
7.17305e-008
7.17461e-008
7.17556e-008
7.17742e-008
7.17801e-008
7.1794e-008
7.1799e-008
7.18096e-008
7.18205e-008
7.18359e-008
7.18509e-008
7.18525e-008
7.18647e-008
7.18723e-008
7.18888e-008
7.18915e-008
7.1902e-008
7.19149e-008
7.19178e-008
7.19286e-008
7.19342e-008
7.19387e-008
7.19451e-008
7.19561e-008
7.19677e-008
7.19758e-008
7.19788e-008
7.19841e-008
7.19871e-008
7.19909e-008
7.19941e-008
7.19966e-008
7.19985e-008
7.19994e-008
7.2e-008
7.19989e-008
7.19989e-008
7.19946e-008
7.19919e-008
7.19856e-008
7.19803e-008
7.19704e-008
7.19633e-008
7.19534e-008
7.19448e-008
7.19343e-008
7.19229e-008
7.19105e-008
7.18982e-008
7.18855e-008
7.18711e-008
7.18549e-008
7.18375e-008
7.18187e-008
7.17932e-008
7.1646e-008
7.13516e-008
7.18237e-008
7.22057e-008
6.96483e-008
7.34512e-008
7.2055e-008
6.27189e-008
1.99458e-007
6.46625e-006
0.0004128
0.0129987
0.102419
0.31244
5.78804e-008
5.79093e-008
5.79093e-008
5.79106e-008
5.79283e-008
5.79562e-008
5.79735e-008
5.79813e-008
5.79854e-008
5.79938e-008
5.80107e-008
5.80341e-008
5.80366e-008
5.80389e-008
5.80508e-008
5.80803e-008
5.81201e-008
5.8128e-008
5.81327e-008
5.81623e-008
5.82059e-008
5.82409e-008
5.82443e-008
5.82406e-008
5.82507e-008
5.82704e-008
5.82781e-008
5.82935e-008
5.83229e-008
5.83431e-008
5.83568e-008
5.83648e-008
5.83668e-008
5.83889e-008
5.84154e-008
5.84375e-008
5.8456e-008
5.84734e-008
5.84906e-008
5.85073e-008
5.85236e-008
5.85395e-008
5.85554e-008
5.85724e-008
5.85911e-008
5.86124e-008
5.86315e-008
5.86454e-008
5.86558e-008
5.86709e-008
5.869e-008
5.87092e-008
5.87264e-008
5.87429e-008
5.8759e-008
5.8775e-008
5.87901e-008
5.88059e-008
5.88207e-008
5.88364e-008
5.88511e-008
5.88662e-008
5.88813e-008
5.88959e-008
5.89103e-008
5.89246e-008
5.8939e-008
5.89516e-008
5.89663e-008
5.89795e-008
5.89908e-008
5.90083e-008
5.90171e-008
5.90344e-008
5.90402e-008
5.90547e-008
5.90585e-008
5.90673e-008
5.90806e-008
5.90894e-008
5.91039e-008
5.91127e-008
5.91253e-008
5.91349e-008
5.9152e-008
5.91565e-008
5.91598e-008
5.91712e-008
5.9181e-008
5.91873e-008
5.91903e-008
5.92033e-008
5.92177e-008
5.92292e-008
5.92318e-008
5.92357e-008
5.92377e-008
5.9244e-008
5.92474e-008
5.92524e-008
5.92539e-008
5.92564e-008
5.92573e-008
5.92576e-008
5.92583e-008
5.92568e-008
5.92571e-008
5.92533e-008
5.92516e-008
5.92463e-008
5.92432e-008
5.92359e-008
5.92308e-008
5.92228e-008
5.92156e-008
5.92056e-008
5.91957e-008
5.91835e-008
5.91718e-008
5.91595e-008
5.91458e-008
5.91306e-008
5.91152e-008
5.90985e-008
5.90944e-008
5.94327e-008
5.98929e-008
5.88918e-008
5.82514e-008
6.26603e-008
5.66672e-008
5.81354e-008
2.77322e-007
1.72993e-005
0.000895543
0.0211923
0.133614
0.367092
0.624863
5.20377e-008
5.20407e-008
5.20556e-008
5.2072e-008
5.20801e-008
5.21022e-008
5.21281e-008
5.21324e-008
5.21208e-008