/*--------------------------------*- C++ -*----------------------------------*\
| =========                 |                                                 |
| \\      /  F ield         | OpenFOAM: The Open Source CFD Toolbox           |
|  \\    /   O peration     | Version:  5.x                                   |
|   \\  /    A nd           | Web:      www.OpenFOAM.org                      |
|    \\/     M anipulation  |                                                 |
\*---------------------------------------------------------------------------*/
/*   Windows 32 and 64 bit porting by blueCAPE: http://www.bluecape.com.pt   *\
|  Based on Windows porting (2.0.x v4) by Symscape: http://www.symscape.com   |
\*---------------------------------------------------------------------------*/
FoamFile
{
    version     2.0;
    format      ascii;
    class       volScalarField;
    location    "330";
    object      p;
}
// * * * * * * * * * * * * * * * * * * * * * * * * * * * * * * * * * * * * * //

dimensions      [0 2 -2 0 0 0 0];

internalField   nonuniform List<scalar> 
43900
(
0.339278
0.33893
0.338888
0.338761
0.338558
0.338333
0.338129
0.337796
0.337554
0.337229
0.336905
0.336575
0.336229
0.335868
0.335498
0.335119
0.33473
0.334332
0.333926
0.333512
0.333092
0.332664
0.33223
0.33179
0.331344
0.330895
0.330439
0.329978
0.329514
0.33727
0.345354
0.339213
0.342506
0.339992
0.340745
0.339834
0.339655
0.339205
0.338773
0.338369
0.337934
0.337499
0.33707
0.336637
0.336199
0.335758
0.335314
0.334866
0.334415
0.333959
0.333499
0.333036
0.332567
0.332096
0.331618
0.331136
0.330652
0.330162
0.330432
0.352222
0.34113
0.347375
0.342294
0.34486
0.342469
0.342807
0.341716
0.3413
0.34071
0.340146
0.339607
0.339073
0.338544
0.338021
0.337502
0.336987
0.336478
0.335967
0.335458
0.334953
0.334444
0.333936
0.333428
0.332917
0.332407
0.331893
0.331374
0.325662
0.353319
0.346592
0.346388
0.346033
0.345613
0.344527
0.344484
0.343691
0.343314
0.34275
0.342231
0.341708
0.341184
0.340658
0.340132
0.339606
0.33908
0.33855
0.338021
0.337495
0.336962
0.336431
0.335901
0.335366
0.334833
0.334297
0.333756
0.33322
0.328295
0.352119
0.347113
0.346503
0.346479
0.346051
0.345857
0.345624
0.345096
0.344788
0.344354
0.343931
0.343504
0.34306
0.342604
0.342135
0.341657
0.341169
0.340673
0.34017
0.339653
0.339133
0.338607
0.338067
0.337522
0.336973
0.336416
0.335856
0.335286
0.333319
0.351391
0.348357
0.348047
0.347972
0.347561
0.347285
0.347033
0.346812
0.346539
0.346165
0.345817
0.345443
0.34505
0.344644
0.344225
0.343788
0.343338
0.342875
0.342397
0.341913
0.341413
0.340894
0.340373
0.339841
0.339292
0.338733
0.338165
0.337587
0.339533
0.353481
0.351667
0.351132
0.351083
0.350938
0.350604
0.350149
0.349825
0.349591
0.349258
0.348896
0.348529
0.34814
0.347737
0.34732
0.346891
0.346445
0.345983
0.345509
0.345016
0.344511
0.344001
0.343468
0.342918
0.342363
0.341799
0.34122
0.340624
0.346444
0.357658
0.356512
0.355899
0.35572
0.355579
0.355364
0.355012
0.354549
0.354104
0.353762
0.353393
0.352977
0.35255
0.352109
0.351653
0.351176
0.350686
0.350183
0.349658
0.349119
0.348569
0.347996
0.347405
0.346813
0.346199
0.345557
0.344906
0.344245
0.354331
0.363327
0.362627
0.361993
0.361712
0.361501
0.361249
0.36094
0.360545
0.360025
0.359502
0.359079
0.358636
0.358149
0.357648
0.357133
0.356603
0.356048
0.355472
0.354885
0.35428
0.353652
0.35301
0.352355
0.351675
0.350975
0.350273
0.349568
0.348831
0.363525
0.370408
0.370006
0.369364
0.369001
0.368719
0.368408
0.368053
0.367651
0.367181
0.3666
0.365978
0.365443
0.364905
0.364338
0.363753
0.363146
0.362523
0.361874
0.361197
0.360513
0.359802
0.35907
0.358317
0.357548
0.356766
0.355952
0.355121
0.354275
0.372943
0.378888
0.378595
0.377925
0.377495
0.377149
0.376776
0.376357
0.375894
0.375383
0.374805
0.374131
0.373395
0.372734
0.372077
0.371401
0.370709
0.369981
0.369234
0.36847
0.367667
0.36684
0.366003
0.365137
0.364246
0.363334
0.362401
0.361457
0.360482
0.383053
0.388487
0.388245
0.387541
0.387055
0.386651
0.386221
0.385741
0.385212
0.384631
0.383994
0.383288
0.382496
0.381639
0.380828
0.380032
0.37922
0.37839
0.377525
0.376631
0.375702
0.374752
0.373784
0.372774
0.37175
0.370711
0.369623
0.368516
0.36739
0.394308
0.399053
0.398841
0.398116
0.397577
0.397117
0.39663
0.396092
0.395499
0.394849
0.394137
0.393359
0.392503
0.391556
0.39054
0.38956
0.388599
0.387622
0.386623
0.385581
0.384518
0.383423
0.382294
0.381148
0.379972
0.378759
0.377547
0.376307
0.375014
0.406337
0.410561
0.410353
0.409601
0.40901
0.408494
0.407948
0.407348
0.40669
0.405968
0.405177
0.404313
0.403371
0.402341
0.40121
0.400013
0.398852
0.397701
0.396538
0.39534
0.394104
0.392844
0.391566
0.390231
0.388864
0.387491
0.386051
0.384584
0.383112
0.419075
0.422923
0.422702
0.421918
0.421276
0.420703
0.420099
0.419435
0.418708
0.417911
0.417037
0.416082
0.41504
0.413909
0.412677
0.411335
0.409932
0.408548
0.407164
0.405763
0.404324
0.402851
0.401318
0.399767
0.398207
0.39655
0.3949
0.393226
0.391481
0.432408
0.436004
0.435761
0.434938
0.434244
0.433613
0.432945
0.432214
0.431411
0.430532
0.429568
0.428512
0.427359
0.426106
0.424748
0.423277
0.421687
0.420032
0.418384
0.416723
0.415063
0.413345
0.411605
0.409832
0.407987
0.406144
0.404234
0.402314
0.400398
0.446276
0.449714
0.449445
0.448581
0.447836
0.447147
0.446418
0.44562
0.444745
0.443785
0.442731
0.441577
0.440316
0.438945
0.437459
0.435856
0.434125
0.432271
0.430356
0.42845
0.426529
0.424609
0.422648
0.420625
0.418565
0.416439
0.414312
0.412128
0.409857
0.460574
0.463928
0.463633
0.462726
0.46193
0.461188
0.4604
0.459536
0.458588
0.457548
0.456407
0.455156
0.453789
0.452299
0.450685
0.448943
0.447069
0.445056
0.442915
0.440718
0.438504
0.43628
0.434024
0.4317
0.429338
0.426925
0.424433
0.421919
0.419359
0.475182
0.478516
0.478196
0.477242
0.476395
0.475597
0.474747
0.473815
0.472789
0.471663
0.470424
0.469065
0.467577
0.465956
0.464194
0.462291
0.460243
0.458045
0.45569
0.453198
0.450631
0.448045
0.445442
0.442784
0.440072
0.43735
0.434572
0.431718
0.428865
0.490003
0.493371
0.493027
0.492026
0.491128
0.490276
0.489365
0.488361
0.487257
0.486044
0.484709
0.483242
0.481634
0.47988
0.477972
0.475906
0.473681
0.471294
0.46874
0.466013
0.463139
0.460204
0.457227
0.454232
0.451216
0.448116
0.444963
0.441747
0.438503
0.504927
0.508371
0.508007
0.506958
0.50601
0.505106
0.504138
0.503069
0.501891
0.500591
0.499159
0.497584
0.495858
0.493971
0.491918
0.489695
0.487297
0.484723
0.481972
0.479037
0.475914
0.472644
0.469285
0.465869
0.462437
0.458938
0.455337
0.451711
0.448024
0.519847
0.523403
0.523021
0.521923
0.520926
0.519969
0.51894
0.517801
0.516542
0.515153
0.513623
0.511938
0.510087
0.508064
0.505859
0.503469
0.500889
0.498116
0.495149
0.491987
0.488622
0.485051
0.481317
0.477484
0.473582
0.469644
0.465645
0.4616
0.457533
0.53466
0.538355
0.537957
0.536811
0.535766
0.534758
0.53367
0.532463
0.531127
0.529649
0.528016
0.526214
0.524235
0.522068
0.519708
0.517146
0.514379
0.511403
0.508218
0.504821
0.501214
0.497391
0.493343
0.489133
0.484812
0.480418
0.475976
0.471456
0.46686
0.549274
0.553133
0.552722
0.551527
0.550434
0.549374
0.548226
0.546948
0.545527
0.543952
0.54221
0.54029
0.538179
0.535865
0.533341
0.530601
0.527638
0.524451
0.521036
0.517393
0.513524
0.50943
0.505106
0.50055
0.4958
0.490923
0.485941
0.4809
0.47578
0.563594
0.567639
0.567215
0.565971
0.56483
0.563718
0.562506
0.561154
0.559649
0.557979
0.556127
0.554081
0.551825
0.549352
0.546652
0.54372
0.540548
0.537133
0.533472
0.529565
0.525411
0.521015
0.516377
0.511497
0.506372
0.501029
0.495549
0.489959
0.48431
0.57755
0.581801
0.581366
0.580074
0.578886
0.577722
0.576447
0.575019
0.573425
0.57165
0.569677
0.567492
0.565085
0.562444
0.559559
0.556422
0.553027
0.54937
0.545448
0.541261
0.536809
0.532095
0.527123
0.521897
0.516417
0.510675
0.504721
0.498598
0.492329
0.591068
0.595545
0.5951
0.593759
0.592524
0.591307
0.589966
0.588458
0.586769
0.584884
0.582785
0.58046
0.577893
0.575072
0.571987
0.56863
0.564995
0.561077
0.556874
0.552385
0.54761
0.542553
0.537218
0.531612
0.525739
0.519598
0.513196
0.50657
0.499723
0.604094
0.608814
0.608359
0.606971
0.605689
0.604418
0.603011
0.601421
0.599634
0.597635
0.595405
0.592927
0.590186
0.58717
0.58387
0.580276
0.576381
0.572181
0.567672
0.562855
0.557729
0.552299
0.54657
0.540548
0.534243
0.527661
0.520809
0.513703
0.50637
0.616578
0.621558
0.621095
0.61966
0.618334
0.61701
0.615535
0.613861
0.611973
0.609853
0.607481
0.60484
0.601916
0.598696
0.595168
0.591319
0.587145
0.582639
0.577798
0.572623
0.567116
0.561279
0.55512
0.548646
0.54187
0.534802
0.527457
0.519838
0.512014
0.628481
0.633735
0.633264
0.631784
0.630415
0.629039
0.627494
0.625733
0.623739
0.621494
0.618977
0.61617
0.613055
0.609618
0.605844
0.601722
0.597246
0.59241
0.587211
0.581647
0.575723
0.569441
0.562811
0.555843
0.548549
0.540946
0.533051
0.52488
0.516453
0.639774
0.645314
0.644834
0.643311
0.641903
0.640476
0.638864
0.637016
0.634916
0.632543
0.629877
0.626895
0.623577
0.619907
0.615872
0.611461
0.606663
0.601472
0.595885
0.589901
0.583521
0.576753
0.569606
0.562091
0.554225
0.546027
0.537518
0.528723
0.519656
0.650435
0.656268
0.655778
0.654217
0.652772
0.651298
0.649619
0.647686
0.645479
0.642978
0.640157
0.636993
0.633464
0.629555
0.62525
0.620533
0.615392
0.609822
0.603816
0.597375
0.590501
0.583201
0.575485
0.567368
0.558868
0.550008
0.540815
0.531316
0.521536
0.660448
0.666577
0.666078
0.664481
0.663005
0.661486
0.659743
0.657725
0.655411
0.652779
0.649802
0.646454
0.642712
0.638556
0.633967
0.628928
0.623426
0.617452
0.610999
0.604068
0.596659
0.588779
0.580442
0.571663
0.562464
0.552873
0.54292
0.53264
0.522068
0.669808
0.67623
0.675719
0.674092
0.67259
0.671031
0.669227
0.667127
0.66471
0.66195
0.658817
0.655284
0.651324
0.646912
0.642027
0.636652
0.63077
0.62437
0.617443
0.609986
0.602001
0.593494
0.58448
0.574977
0.56501
0.554611
0.543817
0.532672
0.52122
0.678515
0.685222
0.684697
0.683045
0.681524
0.679929
0.678069
0.675892
0.673375
0.670489
0.667202
0.663483
0.659301
0.654629
0.649443
0.643722
0.637445
0.630597
0.623167
0.615149
0.606545
0.597361
0.587611
0.577316
0.566505
0.555216
0.543493
0.531388
0.518957
0.686574
0.693554
0.693012
0.691342
0.689808
0.688183
0.686271
0.684021
0.681407
0.678399
0.674959
0.671055
0.666651
0.661718
0.656227
0.65015
0.643464
0.636148
0.628188
0.619576
0.610311
0.600397
0.589849
0.578691
0.566956
0.554687
0.541937
0.528768
0.515252
0.693996
0.701233
0.700671
0.698991
0.697451
0.695802
0.693843
0.691525
0.68882
0.685693
0.682105
0.678018
0.673395
0.668199
0.662396
0.655954
0.648845
0.641043
0.63253
0.623291
0.613322
0.602625
0.591215
0.579117
0.566369
0.553022
0.539138
0.524793
0.510073
0.700796
0.708275
0.707689
0.706006
0.704468
0.7028
0.7008
0.69842
0.695629
0.692389
0.688658
0.684393
0.679553
0.674094
0.667977
0.661165
0.653623
0.645319
0.636227
0.626328
0.615611
0.604075
0.591734
0.578613
0.564755
0.550219
0.535081
0.519432
0.503379
0.70699
0.7147
0.714085
0.712409
0.71088
0.709198
0.707163
0.704725
0.701854
0.698507
0.694637
0.690199
0.685143
0.679424
0.672994
0.66581
0.657828
0.649009
0.639317
0.628725
0.617216
0.604783
0.591436
0.5772
0.562124
0.546275
0.529745
0.512646
0.495111
0.712595
0.720534
0.719886
0.718223
0.716711
0.715021
0.712955
0.710466
0.70752
0.704071
0.700069
0.695461
0.690196
0.68422
0.67748
0.669923
0.661496
0.65215
0.641839
0.630526
0.618182
0.604792
0.59036
0.57491
0.558493
0.541188
0.523105
0.504385
0.485194
0.717627
0.72581
0.72512
0.723476
0.721987
0.720294
0.718203
0.715669
0.712654
0.70911
0.704981
0.700211
0.694744
0.688519
0.681474
0.673547
0.664675
0.654797
0.643854
0.631794
0.618575
0.604168
0.588567
0.571792
0.553894
0.534967
0.515142
0.494594
0.473538
0.7221
0.73056
0.729818
0.728198
0.726738
0.725046
0.722933
0.720359
0.717281
0.713648
0.7094
0.704477
0.698817
0.692353
0.685014
0.676729
0.667421
0.657014
0.645435
0.632611
0.618482
0.603002
0.586147
0.567927
0.548394
0.52765
0.505855
0.48323
0.46005
0.72603
0.734819
0.734008
0.732416
0.730988
0.7293
0.727171
0.724561
0.721427
0.717712
0.713355
0.70829
0.702451
0.695763
0.688149
0.679523
0.669798
0.658879
0.646672
0.633083
0.618024
0.601423
0.583235
0.563449
0.54211
0.519328
0.495292
0.470281
0.444657
0.729433
0.738621
0.737716
0.736153
0.734761
0.733079
0.730937
0.728298
0.725116
0.72133
0.716875
0.711686
0.705688
0.698802
0.69094
0.682006
0.671897
0.6605
0.647694
0.633355
0.617364
0.599616
0.580027
0.558558
0.535236
0.510167
0.483572
0.455799
0.427327
0.732335
0.741992
0.740963
0.73943
0.738077
0.736404
0.734255
0.731595
0.728375
0.724532
0.72
0.71471
0.708584
0.701538
0.693474
0.684283
0.673843
0.662021
0.648665
0.633619
0.616724
0.597828
0.576798
0.553547
0.528064
0.500443
0.470921
0.439927
0.4081
0.73477
0.744953
0.743765
0.742267
0.740957
0.739298
0.73715
0.734481
0.73124
0.727362
0.722783
0.717429
0.711222
0.704071
0.695866
0.686486
0.675791
0.663623
0.649799
0.63412
0.616384
0.596379
0.573905
0.548804
0.521003
0.490551
0.457692
0.422928
0.387106
0.736786
0.747519
0.746137
0.744687
0.743425
0.741787
0.739655
0.736997
0.733761
0.729884
0.7253
0.719937
0.71371
0.70652
0.698252
0.688773
0.677924
0.665518
0.651337
0.635145
0.616679
0.595654
0.571785
0.544817
0.514575
0.481011
0.444369
0.405202
0.364601
0.738441
0.749704
0.748101
0.746719
0.745514
0.743912
0.741817
0.739199
0.736006
0.732178
0.727645
0.722334
0.71616
0.709021
0.700794
0.691331
0.680453
0.667946
0.65356
0.63701
0.617969
0.596068
0.57092
0.542137
0.509398
0.472487
0.431589
0.387224
0.340917
0.739796
0.751526
0.749686
0.748402
0.747269
0.745722
0.743693
0.741154
0.73805
0.734322
0.729906
0.72473
0.718706
0.711728
0.703662
0.694346
0.683583
0.67113
0.656707
0.639983
0.620564
0.597991
0.571759
0.541307
0.506126
0.465728
0.420149
0.369618
0.316453
0.740913
0.753016
0.750935
0.749787
0.748739
0.747272
0.745342
0.742921
0.739956
0.736392
0.732169
0.727215
0.721439
0.714727
0.706936
0.697891
0.687376
0.675133
0.66085
0.644155
0.624595
0.601618
0.574589
0.542741
0.505335
0.461456
0.410933
0.353227
0.291766
0.741842
0.754213
0.751899
0.750925
0.749975
0.748612
0.746812
0.744547
0.741769
0.738425
0.734455
0.729787
0.724324
0.717946
0.710504
0.701816
0.691658
0.679759
0.665785
0.649328
0.629886
0.606817
0.579366
0.54653
0.507327
0.460215
0.404778
0.33896
0.267592
0.742621
0.755167
0.75263
0.751865
0.751019
0.749779
0.748133
0.74605
0.743485
0.740387
0.736691
0.732323
0.727186
0.721158
0.714089
0.705795
0.696049
0.684573
0.671022
0.654964
0.635859
0.612998
0.585523
0.552188
0.511792
0.461974
0.402081
0.327498
0.244642
0.743282
0.755934
0.753184
0.752652
0.751908
0.750801
0.749315
0.747419
0.745063
0.742196
0.738753
0.734658
0.729814
0.7241
0.717367
0.709433
0.700073
0.689008
0.675891
0.660278
0.641611
0.619127
0.591909
0.558472
0.517467
0.465574
0.401964
0.318448
0.222655
0.743846
0.756568
0.753612
0.753324
0.752672
0.751694
0.750358
0.748627
0.74645
0.743774
0.740535
0.736652
0.73203
0.72655
0.720064
0.712394
0.703319
0.692562
0.679778
0.664515
0.646209
0.624051
0.597099
0.56365
0.522292
0.468664
0.401812
0.309343
0.19876
0.744257
0.757048
0.753893
0.753843
0.753261
0.752393
0.751177
0.749573
0.747529
0.744988
0.741885
0.738138
0.733652
0.728307
0.721959
0.714432
0.705506
0.694905
0.682282
0.66718
0.649022
0.626954
0.60001
0.566268
0.524326
0.468656
0.398223
0.295288
0.165739
0.744307
0.757176
0.753823
0.753974
0.753423
0.752621
0.751469
0.749929
0.747948
0.74547
0.742427
0.738737
0.734304
0.729007
0.722702
0.715211
0.706311
0.695725
0.683097
0.667957
0.64971
0.627448
0.60017
0.565696
0.522677
0.464187
0.389345
0.271492
0.116929
0.74408
0.756983
0.75344
0.753732
0.753169
0.752372
0.751211
0.749654
0.747651
0.74515
0.742082
0.738369
0.733911
0.728585
0.722246
0.714709
0.705748
0.695075
0.682326
0.667009
0.648506
0.625847
0.59799
0.562477
0.518027
0.456206
0.376793
0.240737
0.0537223
0.745778
0.758613
0.755037
0.755441
0.754943
0.754228
0.753139
0.751634
0.749656
0.747147
0.744042
0.740264
0.735718
0.730288
0.723828
0.716159
0.70705
0.696211
0.683268
0.667714
0.648908
0.625832
0.5974
0.560955
0.515176
0.450726
0.368435
0.22297
0.0111983
0.754527
0.767586
0.764411
0.765111
0.765163
0.765125
0.764812
0.764103
0.762866
0.760986
0.758369
0.75493
0.750586
0.745243
0.738778
0.731033
0.721801
0.710808
0.697695
0.681969
0.662996
0.639787
0.611176
0.574788
0.528294
0.464771
0.381638
0.264722
0.169999
0.32896
0.328317
0.327667
0.327008
0.326344
0.325673
0.324996
0.324313
0.323623
0.322927
0.322226
0.321519
0.320805
0.320086
0.319362
0.31863
0.317896
0.317158
0.316413
0.315664
0.314911
0.314158
0.313403
0.312643
0.311883
0.311127
0.310366
0.309598
0.308834
0.308071
0.307306
0.306543
0.305778
0.305011
0.304244
0.30348
0.302717
0.301955
0.301195
0.300437
0.29968
0.298926
0.298174
0.297426
0.296681
0.29594
0.295201
0.294467
0.293735
0.293008
0.292285
0.291565
0.290851
0.290141
0.289436
0.288736
0.288041
0.287352
0.286669
0.285992
0.28532
0.284655
0.283997
0.283345
0.282701
0.282063
0.281433
0.28081
0.280195
0.279588
0.278989
0.278398
0.277816
0.277243
0.276679
0.276123
0.275576
0.27504
0.274512
0.273996
0.273488
0.272989
0.272501
0.272022
0.27155
0.27109
0.27064
0.2702
0.26977
0.26935
0.26894
0.26854
0.268152
0.267774
0.267407
0.267051
0.266706
0.266373
0.26605
0.265738
0.265438
0.265148
0.26487
0.264603
0.264347
0.264102
0.263867
0.263644
0.263432
0.263233
0.263044
0.262866
0.262699
0.262543
0.262397
0.262261
0.262135
0.262019
0.261912
0.261814
0.261725
0.261644
0.261572
0.261508
0.261452
0.261404
0.261363
0.26133
0.261303
0.261285
0.261273
0.261266
0.261271
0.261275
0.261304
0.261319
0.261382
0.261394
0.261549
0.32958
0.328905
0.32822
0.327529
0.326833
0.326129
0.325421
0.324707
0.323987
0.323261
0.322532
0.3218
0.321063
0.320322
0.319578
0.318833
0.318086
0.317334
0.316582
0.31583
0.31508
0.31432
0.313556
0.312792
0.312021
0.311246
0.310471
0.309696
0.308923
0.308145
0.307361
0.306574
0.305793
0.305015
0.304243
0.30347
0.302696
0.301921
0.301146
0.300372
0.299598
0.298825
0.298056
0.297291
0.29653
0.295772
0.295016
0.294262
0.293511
0.292764
0.29202
0.29128
0.290544
0.289814
0.289088
0.288368
0.287653
0.286944
0.286241
0.285544
0.284854
0.28417
0.283493
0.282823
0.28216
0.281505
0.280857
0.280218
0.279587
0.278963
0.278351
0.277745
0.27715
0.276567
0.275992
0.275427
0.274871
0.274324
0.273786
0.273242
0.272704
0.272183
0.271674
0.271177
0.270692
0.270216
0.269742
0.269271
0.268815
0.268375
0.26795
0.267536
0.267134
0.266743
0.266364
0.265997
0.265643
0.2653
0.26497
0.264652
0.264346
0.264053
0.263771
0.263501
0.263244
0.262999
0.262766
0.262546
0.262337
0.262139
0.261954
0.261781
0.26162
0.26147
0.261332
0.261204
0.261086
0.260978
0.26088
0.260792
0.260714
0.260645
0.260584
0.260533
0.260491
0.260458
0.260431
0.260412
0.260401
0.260385
0.260388
0.260371
0.260388
0.260351
0.260398
0.260343
0.260391
0.260322
0.260281
0.330764
0.330054
0.329339
0.328623
0.327898
0.327169
0.326436
0.325696
0.324952
0.324205
0.323455
0.322697
0.321936
0.321171
0.320401
0.319626
0.318849
0.318068
0.317285
0.316485
0.315676
0.314875
0.314092
0.313307
0.312498
0.311682
0.31086
0.310038
0.309212
0.308384
0.307581
0.306776
0.305946
0.305114
0.304287
0.303468
0.302653
0.30184
0.30103
0.300223
0.299418
0.298616
0.297813
0.297008
0.296202
0.295397
0.294596
0.2938
0.29301
0.292224
0.291444
0.290669
0.289898
0.289133
0.288373
0.287619
0.286871
0.286129
0.285393
0.284663
0.283941
0.283225
0.282517
0.281816
0.281122
0.280437
0.279758
0.279087
0.278424
0.277769
0.27712
0.276479
0.275846
0.275217
0.274597
0.273986
0.273378
0.272778
0.272196
0.271629
0.271076
0.27053
0.269996
0.269471
0.268953
0.268448
0.267954
0.267479
0.267015
0.266559
0.266114
0.265681
0.26526
0.264854
0.264463
0.264084
0.263718
0.263364
0.263023
0.262695
0.26238
0.262079
0.261791
0.261517
0.261256
0.261009
0.260776
0.260556
0.26035
0.260158
0.259977
0.25981
0.259656
0.259515
0.259387
0.259271
0.259168
0.259079
0.259003
0.258941
0.258891
0.258854
0.258829
0.258816
0.258816
0.258825
0.258848
0.258878
0.258926
0.258982
0.259062
0.259113
0.259201
0.2593
0.259313
0.259516
0.259357
0.259836
0.259375
0.332582
0.331839
0.331097
0.330347
0.32959
0.328826
0.328056
0.327279
0.326494
0.325697
0.324891
0.324081
0.323262
0.322434
0.321603
0.32077
0.31993
0.319074
0.318209
0.317368
0.316519
0.315654
0.314758
0.313859
0.312988
0.312126
0.311283
0.31046
0.309611
0.308735
0.30784
0.306947
0.306072
0.305199
0.304314
0.303425
0.302539
0.301655
0.300773
0.299892
0.299015
0.298142
0.297273
0.296408
0.295546
0.29469
0.293837
0.292984
0.292133
0.291288
0.290449
0.289614
0.288784
0.287959
0.287139
0.286325
0.285516
0.284714
0.283919
0.283132
0.282351
0.281578
0.280813
0.280056
0.279307
0.278566
0.277834
0.277109
0.276393
0.275687
0.274987
0.274299
0.273619
0.272948
0.272284
0.271634
0.270993
0.270358
0.269734
0.269129
0.268537
0.267956
0.267382
0.266825
0.266288
0.265763
0.265258
0.264771
0.264297
0.263833
0.26338
0.262937
0.262506
0.262084
0.261672
0.261276
0.260894
0.260526
0.260173
0.259834
0.25951
0.259201
0.258907
0.258629
0.258365
0.258116
0.257882
0.257662
0.257456
0.257264
0.257085
0.256919
0.256767
0.256629
0.256507
0.256405
0.256322
0.256258
0.256213
0.256188
0.256183
0.256198
0.256234
0.256291
0.256367
0.256468
0.256581
0.256717
0.256876
0.257032
0.257192
0.257529
0.257461
0.258228
0.257474
0.259362
0.257358
0.26077
0.256803
0.334605
0.333816
0.333016
0.332202
0.331385
0.330561
0.329723
0.328874
0.328022
0.327165
0.326304
0.325432
0.324563
0.323684
0.322788
0.321881
0.320978
0.320107
0.319216
0.318278
0.317345
0.316412
0.315488
0.314561
0.31361
0.312647
0.311684
0.31071
0.30976
0.308825
0.307857
0.306891
0.305926
0.304959
0.304007
0.303069
0.302129
0.301183
0.300235
0.299286
0.298336
0.297386
0.296439
0.295494
0.294554
0.293617
0.29268
0.291743
0.29081
0.289883
0.288959
0.28804
0.28713
0.286228
0.285333
0.284446
0.283566
0.282693
0.281829
0.280973
0.280125
0.279285
0.278454
0.277632
0.27682
0.276018
0.275227
0.274448
0.27368
0.272926
0.272183
0.271454
0.270739
0.270036
0.26935
0.268673
0.268016
0.267372
0.266735
0.266108
0.265485
0.264877
0.264276
0.263682
0.263098
0.262525
0.26197
0.261422
0.260883
0.260365
0.259861
0.259373
0.258905
0.258457
0.258028
0.257614
0.257217
0.256839
0.256477
0.256131
0.2558
0.255484
0.255183
0.254897
0.254626
0.254371
0.25413
0.253904
0.253695
0.253502
0.253328
0.253174
0.25304
0.252928
0.252835
0.252763
0.252711
0.25268
0.252671
0.252683
0.252717
0.252773
0.252852
0.252955
0.253081
0.253232
0.253433
0.253636
0.253882
0.2543
0.254306
0.255338
0.254511
0.257272
0.254298
0.26041
0.253056
0.265453
0.248235
0.336904
0.336095
0.335261
0.334425
0.333574
0.332696
0.331811
0.330926
0.330032
0.329122
0.32819
0.327244
0.32627
0.325319
0.324422
0.323484
0.322482
0.321453
0.320426
0.319415
0.318407
0.31739
0.316358
0.315317
0.314285
0.313263
0.312222
0.311145
0.310061
0.309003
0.307963
0.306916
0.305868
0.304815
0.303762
0.302708
0.301651
0.3006
0.299555
0.298513
0.297473
0.296434
0.295393
0.294353
0.293315
0.292279
0.291245
0.290215
0.28919
0.288167
0.287164
0.286185
0.285215
0.284249
0.283288
0.282333
0.281385
0.280444
0.279511
0.278587
0.277671
0.276765
0.275869
0.274983
0.274109
0.273246
0.272394
0.271555
0.270729
0.269913
0.269108
0.268313
0.267525
0.266747
0.265976
0.265207
0.264448
0.263705
0.262976
0.262267
0.261589
0.260922
0.260278
0.25966
0.259059
0.258481
0.257914
0.25736
0.256828
0.25631
0.255799
0.255304
0.25482
0.254344
0.253882
0.253431
0.252991
0.252563
0.252148
0.251757
0.251382
0.25103
0.2507
0.250387
0.250091
0.249806
0.249539
0.249293
0.24907
0.248868
0.248689
0.248532
0.248398
0.248284
0.248193
0.248122
0.248073
0.248045
0.248041
0.24806
0.248106
0.248177
0.248279
0.248416
0.248586
0.248785
0.24903
0.249376
0.249489
0.250326
0.249881
0.25182
0.250109
0.253792
0.250088
0.256112
0.248461
0.262593
0.232119
0.3399
0.339044
0.33818
0.337293
0.336365
0.33543
0.334489
0.333511
0.332502
0.331488
0.330469
0.329469
0.328461
0.327388
0.326251
0.325136
0.324064
0.322978
0.321887
0.320777
0.319652
0.318531
0.31742
0.316306
0.315162
0.313998
0.312839
0.311713
0.310598
0.309439
0.30826
0.307088
0.305916
0.30475
0.303577
0.302396
0.301221
0.300052
0.298884
0.297719
0.296559
0.295407
0.294264
0.293128
0.292001
0.290883
0.289776
0.28867
0.287569
0.286479
0.285384
0.284277
0.283179
0.282099
0.281034
0.27998
0.278938
0.277908
0.276889
0.275881
0.274885
0.273901
0.272927
0.271965
0.271013
0.270073
0.269141
0.268219
0.267307
0.266403
0.265516
0.26464
0.26378
0.262937
0.262113
0.261312
0.260529
0.259777
0.259031
0.258287
0.257559
0.256847
0.25614
0.255434
0.254748
0.254076
0.253413
0.252778
0.252162
0.251553
0.250974
0.250412
0.24987
0.249357
0.248858
0.248382
0.247925
0.247487
0.247069
0.24666
0.246267
0.245889
0.245519
0.24517
0.24484
0.244535
0.244253
0.24399
0.243747
0.243526
0.243323
0.243142
0.242982
0.242844
0.242728
0.242635
0.242565
0.242522
0.242503
0.242513
0.24255
0.242617
0.24271
0.242833
0.24299
0.243168
0.243307
0.243683
0.243589
0.244355
0.243835
0.245086
0.244167
0.245657
0.244937
0.245827
0.245121
0.252166
0.219914
0.343461
0.342542
0.341578
0.340583
0.339588
0.338578
0.33752
0.336451
0.335386
0.334297
0.333183
0.332027
0.330858
0.329699
0.328537
0.327366
0.326154
0.324926
0.323693
0.322461
0.321231
0.319969
0.318685
0.317405
0.316126
0.314856
0.313597
0.312325
0.311027
0.309727
0.308449
0.307164
0.305875
0.304588
0.303294
0.302002
0.300723
0.299441
0.298156
0.296874
0.295597
0.294325
0.293057
0.291793
0.29053
0.289274
0.288021
0.28678
0.285547
0.284326
0.283117
0.281913
0.280736
0.27958
0.278425
0.277275
0.276136
0.275006
0.273889
0.272783
0.27169
0.270609
0.26954
0.268484
0.26744
0.26641
0.26539
0.264386
0.263396
0.262421
0.261463
0.260517
0.25959
0.258676
0.25778
0.256902
0.25604
0.255189
0.25435
0.253539
0.25275
0.251975
0.251213
0.250479
0.249757
0.249051
0.248368
0.247686
0.24702
0.246387
0.245753
0.245132
0.244536
0.243949
0.243387
0.242843
0.242314
0.241803
0.241315
0.240848
0.240404
0.239979
0.239577
0.239199
0.23884
0.238508
0.238194
0.237902
0.237631
0.237378
0.237147
0.236937
0.236748
0.236581
0.236436
0.236314
0.236215
0.236138
0.236084
0.236049
0.236034
0.236036
0.236052
0.236076
0.236111
0.236192
0.236151
0.236383
0.236219
0.23662
0.236366
0.236869
0.236661
0.236914
0.237556
0.237006
0.237114
0.244101
0.214491
0.347925
0.34686
0.345789
0.344705
0.343577
0.342417
0.341259
0.340081
0.338855
0.337612
0.336352
0.335099
0.333834
0.332513
0.331169
0.329804
0.328442
0.327106
0.325739
0.32434
0.322922
0.321503
0.320109
0.318711
0.317278
0.315839
0.314392
0.312937
0.311476
0.310007
0.308535
0.307074
0.305613
0.30415
0.302713
0.301314
0.299914
0.298502
0.297091
0.295687
0.294286
0.292889
0.291499
0.290117
0.288738
0.287343
0.285957
0.284587
0.283228
0.281883
0.28055
0.279237
0.277927
0.27663
0.275356
0.274099
0.272855
0.271623
0.270404
0.269198
0.268006
0.266826
0.265662
0.264511
0.263377
0.262259
0.261162
0.260076
0.259008
0.257955
0.256913
0.25589
0.254885
0.253898
0.252926
0.251967
0.251022
0.250096
0.249195
0.248307
0.247436
0.246597
0.245771
0.244946
0.244154
0.243394
0.242643
0.241913
0.241216
0.240537
0.239879
0.239247
0.238629
0.23802
0.23743
0.236855
0.236295
0.235756
0.235233
0.234728
0.234238
0.233775
0.233325
0.232895
0.232489
0.232096
0.23173
0.231383
0.231057
0.230751
0.230468
0.230204
0.229963
0.229739
0.229538
0.229353
0.229188
0.229038
0.228901
0.228781
0.22867
0.228572
0.228489
0.22841
0.228334
0.228317
0.2282
0.228287
0.228122
0.228324
0.228107
0.228395
0.228391
0.2281
0.228582
0.227623
0.226255
0.23318
0.207234
0.35328
0.352098
0.350864
0.3496
0.348317
0.347013
0.345662
0.344278
0.342892
0.341492
0.340042
0.338558
0.337067
0.33557
0.334092
0.332615
0.331085
0.329505
0.327929
0.326382
0.324847
0.323268
0.321641
0.32001
0.318399
0.316808
0.315215
0.313619
0.312025
0.310425
0.308827
0.307234
0.305646
0.304046
0.302419
0.300776
0.299129
0.297508
0.295915
0.294339
0.292773
0.291216
0.289665
0.288123
0.286569
0.285046
0.283557
0.28207
0.280611
0.279151
0.277704
0.276262
0.274814
0.273377
0.271961
0.270571
0.269199
0.267846
0.266509
0.265189
0.263884
0.262595
0.26132
0.260062
0.258819
0.257585
0.256366
0.255166
0.25398
0.25282
0.251692
0.250585
0.249508
0.248459
0.247431
0.24643
0.245456
0.24449
0.243539
0.242604
0.241695
0.240794
0.239902
0.239034
0.238177
0.237338
0.236525
0.235724
0.234944
0.234191
0.233458
0.232743
0.232045
0.231382
0.230742
0.230115
0.229516
0.228948
0.228401
0.227865
0.227361
0.226872
0.226404
0.225951
0.225512
0.225101
0.224696
0.224315
0.223952
0.223608
0.223277
0.22297
0.222673
0.222397
0.22213
0.221885
0.221646
0.221425
0.221218
0.221019
0.220839
0.220667
0.220512
0.220378
0.220224
0.220161
0.219974
0.220009
0.219786
0.219892
0.219722
0.219694
0.219979
0.219607
0.219604
0.218876
0.217501
0.223576
0.200979
0.359294
0.357893
0.356493
0.355042
0.353546
0.35203
0.350507
0.348957
0.347348
0.345724
0.344114
0.342514
0.340869
0.33918
0.337445
0.335685
0.333965
0.332281
0.330526
0.32871
0.326898
0.325108
0.323326
0.321554
0.319752
0.317918
0.31608
0.314236
0.312401
0.310577
0.30874
0.306896
0.305085
0.303337
0.301611
0.299854
0.298091
0.296334
0.294577
0.292821
0.291076
0.289344
0.287626
0.285933
0.28426
0.282575
0.280866
0.27918
0.277525
0.275891
0.274273
0.272678
0.27112
0.269582
0.268075
0.26658
0.26509
0.263614
0.262156
0.260715
0.259297
0.257896
0.256518
0.255158
0.253818
0.252506
0.251215
0.249949
0.248703
0.247478
0.246268
0.245068
0.243883
0.242718
0.241577
0.240453
0.23936
0.238312
0.237281
0.236262
0.235282
0.234352
0.233431
0.232524
0.231655
0.230818
0.229992
0.229179
0.228392
0.227611
0.226846
0.226096
0.225368
0.224655
0.223947
0.223264
0.222612
0.221979
0.221353
0.220758
0.220181
0.21963
0.219096
0.218581
0.218094
0.217615
0.217169
0.216728
0.216312
0.215909
0.215525
0.215151
0.214802
0.214458
0.214136
0.213821
0.213527
0.213244
0.212973
0.212725
0.212483
0.212262
0.212054
0.211885
0.21168
0.211583
0.211396
0.211362
0.211216
0.211215
0.211145
0.211013
0.211135
0.210559
0.210157
0.209557
0.208474
0.213686
0.193882
0.36607
0.364499
0.362843
0.361165
0.35949
0.357781
0.356003
0.354246
0.352494
0.350649
0.348738
0.346823
0.344883