/*--------------------------------*- C++ -*----------------------------------*\
| =========                 |                                                 |
| \\      /  F ield         | OpenFOAM: The Open Source CFD Toolbox           |
|  \\    /   O peration     | Version:  5.x                                   |
|   \\  /    A nd           | Web:      www.OpenFOAM.org                      |
|    \\/     M anipulation  |                                                 |
\*---------------------------------------------------------------------------*/
/*   Windows 32 and 64 bit porting by blueCAPE: http://www.bluecape.com.pt   *\
|  Based on Windows porting (2.0.x v4) by Symscape: http://www.symscape.com   |
\*---------------------------------------------------------------------------*/
FoamFile
{
    version     2.0;
    format      ascii;
    class       surfaceScalarField;
    location    "330";
    object      phi;
}
// * * * * * * * * * * * * * * * * * * * * * * * * * * * * * * * * * * * * * //

dimensions      [0 3 -1 0 0 0 0];

internalField   nonuniform List<scalar> 
87341
(
0.365604
39.5574
0.529258
39.7594
0.495671
39.9566
0.600999
39.8177
0.636615
39.8874
0.680573
39.8791
0.716851
39.8868
0.754301
39.8856
0.791066
39.8863
0.822288
39.8918
0.854198
39.8911
0.879465
39.8978
0.901035
39.9015
0.923003
39.9011
0.94052
39.9055
0.957753
39.9058
0.978809
39.902
0.996336
39.9055
1.0109
39.9085
1.02549
39.9084
1.03807
39.9105
1.05132
39.9098
1.0636
39.9108
1.07506
39.9116
1.08909
39.909
1.10113
39.911
1.10895
39.9152
1.11667
39.9153
39.9152
1.12453
0.969875
38.5876
1.36164
39.3676
1.47258
39.8457
1.60941
39.6809
1.64866
39.8482
1.80651
39.7212
1.90593
39.7873
2.03467
39.7569
2.12758
39.7934
2.22878
39.7906
2.32244
39.7975
2.41674
39.8035
2.50437
39.8138
2.58014
39.8253
2.65527
39.8304
2.72931
39.8318
2.78795
39.8433
2.83919
39.8543
2.89447
39.8532
2.94641
39.8565
2.99781
39.8591
3.04587
39.8617
3.088
39.8686
3.12571
39.8739
3.15414
39.8806
3.17996
39.8852
3.21362
39.8816
3.25204
39.8769
39.8812
3.28599
2.03822
36.5493
3.35772
38.0481
4.14024
39.0632
4.22773
39.5934
4.38921
39.6867
4.32806
39.7824
4.36571
39.7497
4.34568
39.7769
4.3741
39.7649
4.40016
39.7645
4.4327
39.7649
4.47478
39.7614
4.52504
39.7636
4.5778
39.7725
4.63182
39.7764
4.68235
39.7812
4.73694
39.7888
4.80057
39.7906
4.85684
39.7969
4.90904
39.8043
4.96263
39.8055
5.01212
39.8122
5.06049
39.8203
5.11426
39.8201
5.17772
39.8171
5.24542
39.8175
5.3073
39.8197
5.34976
39.8344
39.843
5.38794
1.70109
34.8482
3.50617
36.243
4.96158
37.6078
5.8533
38.7017
6.15829
39.3817
6.24915
39.6915
6.26748
39.7314
6.30212
39.7422
6.32243
39.7446
6.3377
39.7493
6.35068
39.7519
6.35688
39.7552
6.36325
39.7572
6.38081
39.755
6.40299
39.7542
6.42243
39.7618
6.446
39.7652
6.47253
39.7641
6.50666
39.7628
6.54666
39.7643
6.58298
39.7691
6.623
39.7722
6.67527
39.768
6.72818
39.7672
6.77106
39.7742
6.80548
39.7831
6.8335
39.7917
6.8743
39.7936
39.7821
6.93526
1.09164
33.7566
2.46198
34.8727
4.03845
36.0313
5.5071
37.233
6.58209
38.3067
7.17412
39.0995
7.38611
39.5194
7.43362
39.6947
7.47867
39.6996
7.52221
39.7057
7.5593
39.7149
7.60119
39.7133
7.64299
39.7154
7.67412
39.7238
7.70941
39.7189
7.75333
39.7179
7.798
39.7205
7.84017
39.7219
7.87823
39.7247
7.91878
39.7237
7.97219
39.7157
8.02944
39.715
8.07606
39.7214
8.11105
39.7322
8.14135
39.7439
8.19005
39.7344
8.25599
39.7257
8.3317
39.7179
39.729
8.38482
0.8594
32.8972
1.87762
33.8545
3.05289
34.856
4.38961
35.8963
5.75135
36.945
6.89646
37.9544
7.6317
38.7841
7.99346
39.333
8.13116
39.5619
8.22022
39.6167
8.31297
39.6221
8.39771
39.6286
8.47664
39.6365
8.56039
39.6401
8.64028
39.639
8.7151
39.6431
8.7999
39.6357
8.89
39.6318
8.97289
39.6418
9.05534
39.6413
9.12719
39.6439
9.19209
39.6501
9.25938
39.6541
9.34369
39.6479
9.4457
39.6419
9.53852
39.6415
9.61611
39.6481
9.67567
39.6584
39.6635
9.74113
0.755456
32.1418
1.61214
32.9978
2.57241
33.8957
3.64018
34.8285
4.80501
35.7801
6.02771
36.7317
7.14939
37.6624
7.9875
38.4949
8.4544
39.095
8.66058
39.4105
8.78168
39.501
8.90577
39.5045
9.03028
39.512
9.14668
39.5237
9.26402
39.5217
9.38672
39.5204
9.49434
39.5281
9.59629
39.5299
9.71723
39.5209
9.83437
39.5242
9.94095
39.5373
10.0543
39.5367
10.1735
39.5349
10.2818
39.5397
10.3779
39.5458
10.4677
39.5518
10.56
39.5558
10.6559
39.5625
39.5676
10.7518
0.701143
31.4406
1.472
32.2269
2.31593
33.0518
3.23525
33.9092
4.22746
34.7879
5.28371
35.6754
6.38906
36.5571
7.47156
37.4124
8.35339
38.2131
8.91924
38.8447
9.19321
39.2271
9.34738
39.3503
9.50517
39.3542
9.66592
39.3629
9.81347
39.3741
9.96477
39.369
10.1259
39.367
10.2752
39.3806
10.4059
39.3902
10.5405
39.3895
10.6968
39.381
10.8479
39.3856
10.9859
39.3969
11.1205
39.4051
11.2533
39.413
11.3837
39.4213
11.5188
39.4207
11.6624
39.4189
39.4164
11.8135
0.672751
30.7679
1.39623
31.5035
2.17466
32.2734
3.01007
33.0738
3.90198
33.896
4.84694
34.7305
5.83752
35.5665
6.85786
36.392
7.87871
37.1923
8.77539
37.948
9.4139
38.5885
9.75197
39.0122
9.94531
39.1608
10.1374
39.1708
10.3318
39.1798
10.5126
39.1882
10.6875
39.1922
10.8713
39.1968
11.0512
39.2103
11.226
39.2146
11.3833
39.2238
11.5392
39.2297
11.7066
39.2295
11.8776
39.2341
12.0476
39.2429
12.2143
39.2547
12.3729
39.2621
12.5196
39.2723
39.2856
12.6504
0.656522
30.1113
1.35571
30.8043
2.0972
31.5319
2.88268
32.2883
3.71237
33.0663
4.58476
33.8581
5.49609
34.6552
6.43939
35.4487
7.40307
36.2286
8.36832
36.9827
9.2639
37.693
9.95128
38.3248
10.3484
38.7637
10.5762
38.9431
10.7928
38.9632
11.0074
38.9735
11.22
38.9796
11.422
38.9947
11.635
38.9973
11.8437
39.0059
12.0477
39.0198
12.2478
39.0296
12.4417
39.0356
12.6339
39.0418
12.8242
39.0527
13.0115
39.0674
13.2005
39.0731
13.4021
39.0706
39.0898
13.5979
0.654006
29.4573
1.34229
30.116
2.06556
30.8086
2.82453
31.5294
3.61913
32.2717
4.44828
33.0289
5.30971
33.7938
6.19957
34.5588
7.11182
35.3164
8.03701
36.0575
8.95866
36.7713
9.8419
37.4416
10.551
38.0546
10.9883
38.5057
11.2481
38.7035
11.4898
38.7318
11.726
38.7435
11.9758
38.7449
12.2034
38.7698
12.4391
38.7702
12.6829
38.7759
12.924
38.7884
13.1495
38.8102
13.3615
38.8298
13.5762
38.8381
13.7913
38.8523
13.9917
38.8726
14.1648
38.8975
38.906
14.3487
0.657993
28.7993
1.34458
29.4294
2.06136
30.0919
2.80854
30.7822
3.5858
31.4945
4.39205
32.2227
5.22539
32.9604
6.08297
33.7013
6.96069
34.4387
7.85249
35.1657
8.74906
35.8748
9.63425
36.5564
10.4908
37.1981
11.2085
37.788
11.6708
38.2411
11.9604
38.4422
12.2251
38.4788
12.4782
38.4917
12.7485
38.4995
12.9994
38.5194
13.2364
38.5389
13.4787
38.5461
13.724
38.5649
13.9688
38.585
14.2003
38.6065
14.4356
38.617
14.6853
38.6229
14.9395
38.6433
38.6807
15.1647
0.664982
28.1344
1.35664
28.7377
2.07506
29.3734
2.82018
30.037
3.59156
30.7231
4.38827
31.426
5.20868
32.14
6.05047
32.8595
6.91051
33.5786
7.78456
34.2917
8.66677
34.9925
9.54866
35.6745
10.4173
36.3294
11.2593
36.946
11.9861
37.5143
12.4659
37.9624
12.7834
38.1613
13.0806
38.1946
13.3652
38.2149
13.6519
38.2327
13.934
38.2567
14.187
38.2932
14.4546
38.2973
14.7271
38.3125
15.0098
38.3238
15.2574
38.3695
15.4818
38.3985
15.7029
38.4223
38.4275
15.9561
0.675484
27.4589
1.37517
28.038
2.09939
28.6492
2.84797
29.2885
3.62013
29.9509
4.41492
30.6312
5.23102
31.3239
6.06646
32.024
6.91869
32.7264
7.78451
33.4258
8.65978
34.1173
9.53902
34.7953
10.4146
35.4538
11.2752
36.0854
12.1093
36.6803
12.8405
37.2311
13.3278
37.674
13.66
37.8624
13.9781
37.8968
14.2852
37.9256
14.5843
37.9577
14.8986
37.9788
15.1929
38.0031
15.4719
38.0334
15.7454
38.0503
16.042
38.0729
16.3461
38.0944
16.6269
38.1415
38.1943
16.8601
0.687601
26.7713
1.39774
27.3279
2.13045
27.9165
2.8857
28.5332
3.6628
29.1738
4.4605
29.8335
5.27752
30.5069
6.11225
31.1893
6.96254
31.8761
7.82574
32.5626
8.69859
33.2444
9.57705
33.9168
10.4558
34.5751
11.3277
35.2136
12.1822
35.8258
13.0107
36.4026
13.7448
36.9399
14.2339
37.3734
14.5805
37.5502
14.9199
37.5862
15.2578
37.6197
15.5837
37.6528
15.9239
37.6629
16.2501
37.7073
16.5592
37.7411
16.8382
37.794
17.0905
37.842
17.3869
37.8451
37.8644
17.7168
0.702377
26.0689
1.42608
26.6042
2.17104
27.1715
2.93707
27.7672
3.7238
28.3871
4.53017
29.0271
5.35466
29.6824
6.19579
30.3482
7.05182
31.0201
7.92057
31.6939
8.79945
32.3655
9.68533
33.031
10.5743
33.686
11.4615
34.3264
12.3401
34.9472
13.2005
35.5421
14.0371
36.1033
14.783
36.6275
15.2862
37.047
15.6523
37.22
16.0254
37.2467
16.3834
37.2948
16.7043
37.342
17.0331
37.3784
17.3597
37.4145
17.6863
37.4675
18.0259
37.5024
18.2996
37.5713
37.609
18.555
0.71732
25.3516
1.45518
25.8663
2.21345
26.4133
2.99176
26.9889
3.78965
27.5892
4.60647
28.2103
5.44092
28.8479
6.29135
29.4977
7.15612
30.1553
8.0333
30.8167
8.92069
31.4782
9.81571
32.1359
10.7153
32.7864
11.6158
33.426
12.5123
34.0506
13.3987
34.6558
14.2659
35.2361
15.1082
35.7852
15.8536
36.3016
16.3634
36.7102
16.7332
36.8769
17.108
36.9201
17.4702
36.9797
17.8035
37.0452
18.1291
37.0889
18.4492
37.1474
18.7688
37.1828
19.1201
37.2201
37.2794
19.4496
0.73125
24.6203
1.48246
25.1151
2.2534
25.6423
3.04363
26.1987
3.85248
26.7804
4.67923
27.3835
5.52291
28.0043
6.38205
28.6386
7.25496
29.2824
8.13987
29.9318
9.03467
30.5833
9.93701
31.2336
10.8442
31.8793
11.7531
32.5171
12.6599
33.1438
13.5599
33.7558
14.4469
34.3491
15.3129
34.9192
16.1526
35.4619
16.8877
35.9751
17.3937
36.3709
17.7674
36.5463
18.1467
36.6005
18.5421
36.6498
18.9251
36.7058
19.3137
36.7588
19.671
36.8256
19.9819
36.9091
36.9319
20.3295
0.744829
23.8755
1.50917
24.3508
2.29277
24.8587
3.09518
25.3962
3.91573
25.9598
4.75355
26.5457
5.60767
27.1501
6.47683
27.7694
7.35938
28.3998
8.25365
29.0375
9.15781
29.6792
10.0698
30.3216
10.9871
30.9619
11.9073
31.597
12.8271
32.224
13.743
32.8399
14.6505
33.4416
15.5442
34.0255
16.4182
34.5879
17.267
35.1263
18
35.6379
18.5214
36.0249
18.9296
36.1922
19.3254
36.2541
19.7172
36.3139
20.0871
36.3889
20.4763
36.4364
20.8553
36.5301
36.602
21.1852
0.757366
23.1181
1.53395
23.5742
2.32946
24.0632
3.14342
24.5823
3.97517
25.1281
4.82385
25.697
5.68845
26.2855
6.56785
26.89
7.46056
27.5071
8.36487
28.1332
9.27906
28.765
10.2012
29.3995
11.1293
30.0338
12.061
30.6653
12.9937
31.2913
13.9244
31.9092
14.8497
32.5163
15.7654
33.1097
16.6667
33.6866
17.5487
34.2443
18.403
34.7836
19.1273
35.3006
19.6406
35.679
20.0626
35.832
20.4712
35.9053
20.8639
35.9962
21.2234
36.0769
21.5842
36.1693
36.2719
21.9144
0.768575
22.3496
1.55611
22.7867
2.36229
23.2571
3.18661
23.758
4.02843
24.2863
4.88686
24.8386
5.76087
25.4115
6.64932
26.0016
7.55093
26.6055
8.46407
27.2201
9.38703
27.842
10.318
28.4685
11.2551
29.0968
12.1961
29.7243
13.1388
30.3486
14.0805
30.9674
15.0184
31.5784
15.9491
32.179
16.8688
32.767
17.7732
33.3399
18.6605
33.8964
19.5219
34.4392
20.2364
34.9645
20.7436
35.3248
21.1612
35.4877
21.5741
35.5833
21.9728
35.6783
22.3854
35.7567
35.8674
22.7899
0.77846
21.5711
1.57568
21.9895
2.39132
22.4414
3.22489
22.9244
4.07572
23.4354
4.94296
23.9713
5.82561
24.5289
6.72248
25.1047
7.63231
25.6957
8.55364
26.2988
9.48479
26.9109
10.4241
27.5292
11.3696
28.1512
12.3195
28.7744
13.2717
29.3965
14.2238
30.0153
15.1735
30.6287
16.1179
31.2345
17.0542
31.8307
17.9791
32.415
18.89
32.9855
19.7882
33.541
20.663
34.0897
21.3639
34.6238
21.8616
34.9901
22.2835
35.1614
22.6686
35.2931
23.032
35.3933
35.4956
23.4037
0.786928
20.7842
1.59241
21.184
2.41612
21.6177
3.25756
22.083
4.11605
22.5769
4.99077
23.0966
5.8807
23.6389
6.78467
24.2008
7.70141
24.779
8.62953
25.3706
9.56744
25.973
10.5135
26.5832
11.4659
27.1988
12.4229
27.8174
13.3824
28.4369
14.3425
29.0552
15.3008
29.6703
16.2551
30.2802
17.2027
30.8831
18.1407
31.4769
19.0662
32.06
19.9765
32.6308
20.8772
33.189
21.7524
33.7486
22.434
34.3085
22.9027
34.6927
23.337
34.8588
23.7324
34.9979
35.1248
24.1033
0.793839
19.9903
1.60609
20.3717
2.43637
20.7874
3.2842
21.2351
4.14892
21.7122
5.02971
22.2158
5.92557
22.7431
6.83535
23.291
7.75779
23.8565
8.69149
24.4369
9.63492
25.0295
10.5864
25.6317
11.5442
26.2409
12.5066
26.8551
13.4716
27.4719
14.4373
28.0895
15.4016
28.706
16.3624
29.3195
17.3172
29.9282
18.2636
30.5306
19.1988
31.1248
20.12
31.7096
21.0249
32.2841
21.9252
32.8483
22.8072
33.4265
23.4979
34.002
23.9515
34.4051
24.3807
34.5687
34.7061
24.7994
0.799429
19.1909
1.61707
19.5541
2.45258
19.9519
3.30549
20.3822
4.17514
20.8426
5.06071
21.3303
5.96122
21.8426
6.87551
22.3767
7.80228
22.9297
8.74015
23.4991
9.68762
24.0821
10.6431
24.6763
11.6048
25.2792
12.5711
25.8888
13.5401
26.5029
14.5099
27.1197
15.4786
27.7373
16.4441
28.354
17.4042
28.9681
18.3568
29.578
19.2994
30.1822
20.2298
30.7793
21.1456
31.3683
22.0449
31.949
22.9468
32.5245
23.8364
33.1124
24.5205
33.7211
24.9572
34.132
34.3154
25.3479
0.803419
18.3875
1.62489
18.7326
2.46407
19.1127
3.32048
19.5258
4.19351
19.9695
5.08234
20.4414
5.986
20.9389
6.90335
21.4593
7.83314
22
8.77397
22.5582
9.72437
23.1317
10.6827
23.718
11.6472
24.3147
12.6161
24.9199
13.5876
25.5314
14.5599
26.1474
15.5311
26.7661
16.4992
27.3859
17.4621
28.0051
18.4179
28.6223
19.3642
29.2358
20.2989
29.8445
21.2201
30.4472
22.1258
31.0433
23.017
31.6333
23.9115
32.218
24.803
32.8296
25.4809
33.454
33.8971
25.8992
0.805971
17.5815
1.6298
17.9088
2.47117
18.2714
3.32965
18.6673
4.20464
19.0945
5.09536
19.5507
6.00085
20.0334
6.92
20.5402
7.85152
21.0684
8.79402
21.6157
9.746
22.1797
10.7058
22.7581
11.6718
23.3488
12.6421
23.9496
13.6148
24.5586
14.5882
25.174
15.5604
25.794
16.5293
26.417
17.493
27.0415
18.4494
27.6658
19.3966
28.2886
20.3325
28.9086
21.2552
29.5245
22.163
30.1355
23.0552
30.741
23.9321
31.3411
24.8212
31.9405
25.7034
32.5719
33.2313
26.3692
0.806964
16.7745
1.63158
17.0842
2.47358
17.4294
3.33256
17.8083
4.20798
18.2191
5.09908
18.6596
6.00493
19.1276
6.92443
19.6207
7.85629
20.1366
8.79911
20.6729
9.75136
21.2274
10.7114
21.7981
11.6775
22.3827
12.6479
22.9792
13.6207
23.5858
14.594
24.2007
15.5658
24.8222
16.5342
25.4486
17.4972
26.0785
18.4527
26.7103
19.3987
27.3426
20.3332
27.974
21.2544
28.6034
22.1605
29.2294
23.0501
29.8514
23.9225
30.4687
24.7804
31.0827
25.6532
31.6991
32.3684
26.5161
0.806323
15.9682
1.63008
16.2604
2.47103
16.5884
3.32886
16.9505
4.20307
17.3449
5.09294
17.7698
5.99758
18.2229
6.91591
18.7023
7.8467
19.2058
8.78857
19.731
9.73999
20.276
10.6993
20.8387
11.6648
21.4172
12.6345
22.0095
13.6065
22.6138
14.5788
23.2284
15.5493
23.8516
16.5161
24.4819
17.477
25.1176
18.4301
25.7572
19.3732
26.3995
20.3043
27.0429
21.2214
27.6862
22.1227
28.3281
23.0065
28.9676
23.8714
29.6038
24.7175
30.2366
25.5493
30.8673
31.5098
26.4079
0.804057
15.1642
1.62529
15.4392
2.46354
15.7502
3.31857
16.0955
4.18997
16.4735
5.07708
16.8826
5.97907
17.321
6.8949
17.7865
7.82336
18.2773
8.76304
18.7914
9.7124
19.3267
10.6698
19.8813
11.6334
20.4536
12.6012
21.0417
13.5714
21.6437
14.5418
22.258
15.5104
22.8831
16.4749
23.5173
17.4332
24.1593
18.3831
24.8074
19.3224
25.4602
20.2489
26.1164
21.1605
26.7746
22.0553
27.4334
22.9312
28.0916
23.7867
28.7483
24.6207
29.4026
25.4334
30.0546
30.7052
26.238
0.800065
14.3641
1.61701
14.6222
2.45079
14.9164
3.30125
15.245
4.16809
15.6067
5.05072
16
5.9484
16.4233
6.86012
16.8748
7.78472
17.3527
8.72082
17.8552
9.66688
18.3806
10.6212
18.927
11.582
19.4928
12.5473
20.0763
13.5151
20.6759
14.4832
21.2899
15.4494
21.9169
16.4113
22.5554
17.3666
23.2039
18.3131
23.8609
19.2482
24.5251
20.1698
25.1949
21.0754
25.869
21.9629
26.5459
22.8302
27.2244
23.6753
27.9031
24.4968
28.5811
25.2939
29.2576
29.9322
26.0669
0.79432
13.5698
1.60519
13.8114
2.43267
14.0889
3.27676
14.4009
4.13725
14.7462
5.01367
15.1236
5.90535
15.5316
6.81138
15.9688
7.73064
16.4335
8.66182
16.9241
9.60344
17.439
10.5538
17.9766
11.5112
18.5355
12.4735
19.1141
13.4385
19.7109
14.4039
20.3245
15.3674
20.9534
16.3267
21.5962
17.2791
22.2515
18.2221
22.9179
19.1532
23.5939
20.0699
24.2782
20.9696
24.9693
21.8498
25.6656
22.7084
26.3658
23.5431
27.0684
24.3521
27.7721
25.1341
28.4756
29.1778
25.8885
0.786807
12.783
1.58979
13.0084
2.40915
13.2695
3.24505
13.565
4.09742
13.8938
4.96592
14.2551
5.84998
14.6475
6.7488
15.0699
7.66135
15.5209
8.58638
15.999
9.52243
16.5029
10.4678
17.0312
11.4207
17.5826
12.379
18.1557
13.3405
18.7493
14.303
19.362
15.2638
19.9925
16.2204
20.6395
17.1702
21.3017
18.1103
21.9778
19.038
22.6663
19.9504
23.3658
20.8447
24.0749
21.7183
24.792
22.5685
25.5156
23.393
26.244
24.1895
26.9756
24.9564
27.7088
28.4419
25.6923
0.777496
12.0055
1.57076
12.2151
2.38015
12.4601
3.20601
12.7392
4.04842
13.0514
4.90721
13.3963
5.78192
13.7728
6.67187
14.18
7.57614
14.6166
8.49355
15.0816
9.4227
15.5738
10.3619
16.092
11.3094
16.6351
12.2631
17.202
13.2208
17.7917
14.18
18.4028
15.1382
19.0344
16.0925
19.6852
17.0401
20.3542
17.978
21.04
18.903
21.7413
19.812
22.4568
20.7019
23.185
21.5697
23.9242
22.4125
24.6729
23.2273
25.4291
24.0118
26.1911
24.7636
26.9569
27.7244
25.4811
0.766375
11.2391
1.54808
11.4334
2.34564
11.6626
3.15961
11.9252
3.99026
12.2208
4.83755
12.549
5.70118
12.9092
6.58061
13.3006
7.47502
13.7222
8.38335
14.1733
9.3043
14.6528
10.2363
15.16
11.1776
15.6938
12.1262
16.2535
13.0797
16.8381
14.0356
17.4469
14.9912
18.0788
15.9435
18.7329
16.8894
19.4082
17.8257
20.1037
18.749
20.8181
19.6557
21.5501
20.5424
22.2983
21.4057
23.061
22.242
23.8365
23.0482
24.6229
23.8213
25.418
24.5588
26.2195
27.025
25.2582
0.753433
10.4857
1.52174
10.6651
2.30566
10.8787
3.10593
11.1249
3.92303
11.4037
4.75709
11.7149
5.60797
12.0583
6.47527
12.4333
7.35834
12.8392
8.25624
13.2754
9.16779
13.7413
10.0915
14.2363
11.0257
14.7596
11.9683
15.3109
12.917
15.8894
13.8693
16.4946
14.8223
17.1258
15.7729
17.7823
16.7179
18.4633
17.6536
19.168
18.5763
19.8954
19.4821
20.6442
20.3671
21.4133
21.2272
22.2009
22.0586
23.0051
22.8575
23.824
23.6204
24.655
24.3442
25.4956
26.343
25.0262
0.73865
9.74701
1.49175
9.912
2.26021
10.1102
3.04501
10.3401
3.84681
10.6019
4.66591
10.8958
5.50236
11.2219
6.35592
11.5797
7.2261
11.969
8.1121
12.3894
9.01288
12.8405
9.92708
13.3221
10.853
13.8337
11.7888
14.3751
12.7321
14.9461
13.6805
15.5463
14.6309
16.1753
15.5803
16.8329
16.525
17.5186
17.4612
18.2318
18.3848
18.9718
19.2914
19.7377
20.1765
20.5282
21.0354
21.3419
21.8637
22.1769
22.6569
23.0308
23.411
23.901
24.1221
24.7845
25.6779
24.7872
0.721992
9.02502
1.45807
9.17593
2.20929
9.35899
2.97687
9.57252
3.76163
9.81713
4.56408
10.0934
5.38441
10.4015
6.22258
10.7415
7.07824
11.1133
7.95079
11.5168
8.83933
11.952
9.74266
12.4187
10.6593
12.9171
11.5874
13.447
12.5248
14.0087
13.469
14.6021
14.417
15.2273
15.3655
15.8844
16.3108
16.5733
17.2488
17.2938
18.1748
18.0457
19.0841
18.8284
19.9714
19.6409
20.8315
20.4818
21.6589
21.3494
22.4486
22.2412
23.1954
23.1542
23.8951
24.0848
25.0291
24.5438
0.703429
8.32159
1.42068
8.45868
2.15291
8.62676
2.90153
8.82391
3.66753
9.05112
4.45159
9.30934
5.25409
9.59904
6.07516
9.92046
6.91465
10.2738
7.77213
10.6593
8.6469
11.0772
9.53796
11.5277
10.444
12.011
11.3633
12.5277
12.294
13.078
13.2336
13.6626
14.179
14.2819
15.1271
14.9363
16.0738
15.6265
17.0148
16.3528
17.9452
17.1153
18.8596
17.9141
19.7519
18.7485
20.616
19.6177
21.4456
20.5198
22.2344
21.4524
22.9763
22.4122
23.666
23.3951
24.3961
24.299
0.682945
7.63865
1.37959
7.76204
2.09107
7.91527
2.81896
8.09602
3.56443
8.30566
4.3283
8.54548
5.11114
8.8162
5.91326
9.11834
6.73471
9.45237
7.57528
9.81877
8.43447
10.218
9.31152
10.6506
10.2053
11.1172
11.1145
11.6185
12.0372
12.1553
12.9712
12.7286
13.9137
13.3393
14.8614
13.9886
15.8105
14.6775
16.7561
15.4071
17.6932
16.1783
18.6154
16.9918
19.5162
17.8477
20.3883
18.7456
21.224
19.6841
22.0157
20.6607
22.7559
21.672
23.438
22.713
23.7776
24.0565
0.66057
6.97808
1.33483
7.08778
2.0238
7.2263
2.72914
7.39068
3.45217
7.58263
4.19388
7.80377
4.95501
8.05507
5.73606
8.33729
6.53728
8.65115
7.35867
8.99737
8.2
9.37668
9.06076
9.78987
9.94015
10.2378
10.8371
10.7216
11.7501
11.2423
12.6772
11.8014
13.6159
12.4006
14.5631
13.0414
15.515
13.7257
16.4667
14.4554
17.4126
15.2324
18.3461
16.0583
19.2595
16.9343
20.1443
17.8608
20.9914
18.837
21.7912
19.8609
22.5345
20.9287
23.2127
22.0348
23.1716
23.8188
0.636393
6.34168
1.28653
6.43764
1.95112
6.56171
2.63195
6.70985
3.33046
6.88411
4.0478
7.08643
4.78486
7.31801
5.54234
7.57981
6.32069
7.8728
7.12016
8.1979
7.94077
8.55607
8.78234
8.9483
9.64444
9.37572
10.5264
9.83965
11.4271
10.3416
12.3451
10.8834
13.2784
11.4673
14.224
12.0958
15.1784
12.7713
16.1369
13.4969
17.0937
14.2756
18.0415
15.1105
18.972
16.0039
19.8751
16.9576
20.74
17.9721
21.5549
19.046
22.3079
20.1757
22.9878
21.3548
22.574
23.5854
0.610566
5.73112
1.2348
5.81341
1.87307
5.92345
2.52725
6.05566
3.19892
6.21244
3.88936
6.396
4.59963
6.60774
5.33059
6.84885
6.08292
7.12047
6.85711
7.42372
7.65349
7.75969
8.47224
8.12955
9.31337
8.53459
10.1767
8.97635
11.0616
9.45667
11.9672
9.97778
12.8921
10.5424
13.834
11.1539
14.7896
11.8156
15.7546
12.5319
16.7232
13.3071
17.6879
14.1457
18.6395
15.0523
19.5667
16.0304
20.4566
17.0822
21.2946
18.208
22.0656
19.4047
22.7549
20.6656
21.9791
23.3498
0.583272
5.14785
1.17981
5.21687
1.78964
5.31362
2.41485
5.43045
3.05712
5.57017
3.71784
5.73528
4.39823
5.92734
5.09934
6.14774
5.82204
6.39777
6.56708
6.67867
7.33515
6.99163
8.12682
7.33787
8.94262
7.71879
9.78286
8.1361
10.6477
8.59187
11.5368
9.08869
12.4494
9.62978
13.3841
10.2192
14.3382
10.8615
15.3078
11.5623
16.2876
12.3273
17.2701
13.1632
18.2456
14.0768
19.2017
15.0743
20.1233
16.1606
20.993
17.3383
21.7915
18.6063
22.4992
19.9578
21.3793
23.099
0.554672
4.59317
1.12162
4.64992
1.70083
4.73441
2.29463
4.83666
2.90479
4.96001
3.53282
5.10724
4.18009
5.28008
4.84778
5.48004
5.537
5.70855
6.24881
5.96686
6.98425
6.25619
7.74435
6.57776
8.53016
6.93299
9.34261
7.32365
10.1825
7.752
11.0503
8.22091
11.946
8.73408
12.8689
9.29627
13.8172
9.91326
14.7878
10.5916
15.7761
11.3389
16.7753
12.1641
17.7754
13.0767
18.7634
14.0863
19.7223
15.2016
20.6315
16.4291
21.4668
17.771
22.2027
19.2219
20.7663
22.8157
0.524858
4.06832
1.06034
4.11443
1.60676
4.18799
2.16678
4.27664
2.74222
4.38456
3.33469
4.51477
3.94567
4.6691
4.57654
4.84918
5.22864
5.05645
5.90335
5.29215
6.60211
5.55743
7.32642
5.85345
8.07786
6.18155
8.85798
6.54353
9.66823
6.94176
10.5098
7.37935
11.3834
7.86051
12.289
8.39066
13.2259
8.9763
14.1924
9.62514
15.1848
10.3466
16.1971
11.1518
17.2201
12.0537
18.2405
13.0659
19.2399
14.2023
20.1943
15.4747
21.075
16.8904
21.8486
18.4483
20.1317
22.4832
0.493859
3.57446
0.996136
3.61216
1.50787
3.67626
2.03209
3.75242
2.5706
3.84605
3.12508
3.9603
3.69714
4.09704
4.28836
4.25796
4.90035
4.44446
5.53484
4.65766
6.19368
4.8986
6.87883
5.16829
7.59238
5.46801
8.33636
5.79954
9.11275
6.16537
9.92318
6.56892
10.769
7.01465
11.6515
7.5082
12.5712
8.05663
13.5274
8.66892
14.5178
9.35619
15.5377
10.1319
16.5791
11.0122
17.6294
12.0156
18.6696
13.162
19.6732
14.4711
20.6061
15.9575
21.4255
17.6288
19.4676
22.0895
0.461719
3.11274
0.929443
3.14443
1.40518
3.20052
1.89222
3.26538
2.39231
3.34596
2.90719
3.44542
3.43861
3.56562
3.98836
3.70821
4.55833
3.87448
5.15062
4.06537
5.76746
4.28176
6.41119
4.52456
7.08423
4.79498
7.78887
5.09489
8.52749
5.42676
9.3024
5.794
10.1159
6.20119
10.97
6.65406
11.8664
7.16025
12.8055
7.72976
13.7867
8.37508
14.8069
9.11171
15.86
9.95901
16.935
10.9407
18.0137
12.0833
19.0676
13.4172
20.0578
14.9673
20.93
16.7567
18.7667
21.6309
0.428629
2.68411
0.861122
2.71194
1.30035
2.76129
1.74975
2.81597
2.21091
2.88481
2.68565
2.97069
3.17585
3.07541
3.68354
3.20052
4.21088
3.34715
4.76022
3.51602
5.33409
3.7079
5.93499
3.92365
6.56556
4.1644
7.22861
4.43185
7.92694
4.72843
8.66339
5.05755
9.44082
5.42375
10.2619
5.83295
11.1291
6.29306
12.0442
6.81464
13.0082
7.4111
14.0202
8.09972
15.0766
8.90264
16.1686
9.84868
17.2805
10.9714
18.3832
12.3145
19.4351
13.9154
20.3665
15.8252
18.0213
21.1119
0.395043
2.28906
0.792478
2.31451
1.19564
2.35813
1.60792
2.4037
2.03071
2.46202
2.46591
2.53548
2.91554
2.62578
3.38178
2.73428
3.867
2.86193
4.37362
3.0094
4.90439
3.17713
5.46219
3.36585
6.04991
3.57669
6.67055
3.8112
7.32718
4.0718
8.02294
4.3618
8.76107
4.68562
9.54479
5.04923
10.3773
5.46054
11.2617
5.9302
12.2007
6.47212
13.1956
7.10484
14.2457
7.85255
15.3454
8.74895
16.4832
9.83371
17.6307
11.1669
18.7474
12.7987
19.7452
14.8274
17.222
20.5445
0.361679
1.92739
0.725099
1.95109
1.09354
1.98968
1.47014
2.0271
1.85611
2.07605
2.25341
2.13818
2.66412
2.21507
3.09048
2.30793
3.53496
2.41745
4.00027
2.5441
4.48924
2.68815
5.00485
2.85024
5.55011
3.03143
6.12811
3.2332
6.74205
3.45786
7.39529
3.70856
8.09137
3.98954
8.83401
4.30659
9.62714
4.6674
10.475
5.08237
11.3817
5.56538
12.3509
6.13566
13.3851
6.81837
14.4824
7.65159
15.6374
8.67878
16.8239
9.98036
18.0084
11.6143
19.0805
13.7553
16.3534
19.9491
0.329396
1.59799
0.660575
1.61991
0.996383
1.65388
1.33948
1.684
1.69092
1.72461
2.05269
1.77641
2.42687
1.84089
2.81578
1.91902
3.22199
2.01124
3.64824
2.11785
4.09734
2.23904
4.57223
2.37536
5.07593
2.52773
5.61155
2.69758
6.18238
2.88703
6.79191
3.09902
7.44393
3.33752
8.14257
3.60795
8.89243
3.91754
9.69861
4.27619
10.5667
4.69725
11.5024
5.19996
12.5118
5.80906
13.5969
6.56646
14.7602
7.51544
15.9793
8.76127
17.2354
10.3581
18.3943
12.5965
15.3884
19.3593
0.299
1.29899
0.600205
1.3187
0.905946
1.34814
1.21815
1.37181
1.53781
1.40494
1.86691
1.44731
2.20753
1.50027
2.56199
1.56456
2.93281
1.64042
3.32265
1.72801
3.73423
1.82746
4.17037
1.93921
4.63401
2.06409
5.1282
2.20339
5.65622
2.35901
6.22164
2.5336
6.82842
2.73074
7.48104
2.95533
8.18464
3.21394
8.94515
3.51569
9.76947
3.87293
10.6653
4.30417
11.6421
4.83225
12.7064
5.5021
13.8702
6.3517
15.1166
7.5148
16.4508
9.02393
17.7219
11.3254
14.2772
18.833
0.271074
1.02792
0.544814
1.04496
0.823287
1.06966
1.10739
1.08771
1.39823
1.1141
1.69773
1.1478
2.00792
1.19008
2.33105
1.24143
2.66952
1.30195
3.02583
1.3717
3.40255
1.45075
3.80231
1.53945
4.2279
1.63851
4.68223
1.74905
5.16851
1.87273
5.69031
2.01181
6.25167
2.16938
6.85732
2.34968
7.51285
2.5584
8.22492
2.80362
9.00162
3.09622
9.85258
3.45321
10.7905
3.89434
11.827
4.46555
12.9839
5.19482
14.2565
6.24222
15.6766
7.60388
17.112
9.88999
12.9365
18.4527
0.245916
0.782
0.494724
0.796154
0.74874
0.815647
1.00749
0.828953
1.27243
0.849166
1.54532
0.874907
1.82811
0.907295
2.12293
0.946606
2.43202
0.992862
2.75769
1.04603
3.10229
1.10614
3.46825
1.17349
3.85812
1.24864
4.27465
1.33252
4.72091
1.42647
5.20037
1.53234
5.71711
1.65265
6.27596
1.79083
6.88281
1.95155
7.54493
2.1415
8.27145
2.3697
9.0738
2.65086
9.96717
3.00097
10.9697
3.46307
12.1106
4.05384
13.41
4.94284
14.9184
6.09549
16.6193
8.18912
11.2548
18.301
0.223656
0.558344
0.449844
0.569966
0.68204
0.583451
0.918009
0.592983
1.15972
0.607459
1.40873
0.625892
1.66689
0.649138
1.93617
0.677321
2.21864
0.710397
2.51637
0.748297
2.83148
0.791037
3.16615
0.838819
3.52271
0.892084
3.9037
0.951531
4.31199
1.01817
4.75094
1.0934
5.22449
1.17909
5.73749
1.27783
6.29592
1.39312
6.90741
1.53002
7.58173
1.69538
8.33194
1.90065
9.1749
2.15801
10.135
2.50296
11.2456
2.94323
12.5604
3.62803
14.1431
4.51284
16.21
6.12221
9.11088
18.3539
0.204342
0.354002
0.409725
0.364583
0.622485
0.370691
0.837929
0.377539
1.05878
0.386611
1.28632
0.39835
1.52228
0.413173
1.76849
0.431119
2.02677
0.452111
2.29899
0.476079
2.58701
0.50302
2.89276
0.533069
3.21832
0.566521
3.56601
0.603842
3.93848
0.645703
4.33886
0.693018
4.77094
0.747018
5.23938
0.809388
5.75007
0.882432
6.31063
0.969458
6.93099
1.07502
7.62496
1.20668
8.4104
1.37257
9.31583
1.59753
10.3761
1.88296
11.6675
2.33663
13.2801
2.90028
15.6339
3.76839
6.49157
18.2532
0.187653
0.166349
0.373628
0.178607
0.569157
0.175162
0.765952
0.180745
0.967956
0.184606
1.17606
0.190246
1.39191
0.197323
1.61714
0.205885
1.85339
0.215865
2.10225
0.227215
2.36535
0.239929
2.64434
0.254072
2.94107
0.269791
3.2576
0.287316
3.59632
0.306976
3.96013
0.329216
4.35251
0.35463
4.77787
0.38403
5.24177
0.418536
5.75151
0.459714
6.31669
0.509846
6.95093
0.572437
7.6719
0.651597
8.50954
0.759892
9.4969
0.895598
10.7156
1.1179
12.2465
1.36942
14.5827
1.43222
3.60847
17.4658
0.166349
0.344957
0.520118
0.700863
0.88547
1.07572
1.27304
1.47892
1.69479
1.922
2.16193
2.416
2.68579
2.97311
3.28009
3.6093
3.96393
4.34796
4.7665
5.22621
5.73606
6.3085
6.96009
7.71998
8.61558
9.73348
11.1029
12.5351
16.1436
1.13581
54.129
1.14998
54.1261
1.15963
54.1306
1.15661
54.1433
1.14947
54.1474
1.15461
54.1351
1.17011
54.1247
1.17962
54.1307
1.17179
54.1481
1.15323
54.1588
1.14474
54.1487
1.15261
54.1324
1.15694
54.1359
1.13644
54.1607
1.10788
54.1688
1.10214
54.146
1.12057
54.1218
1.14188
54.1189
1.14561
54.1365
1.14913
54.1367
1.17602
54.1134
1.22159
54.0947
1.26664
54.0952
1.28846
54.1184
1.29503
54.1337
1.29746
54.1378
1.29678
54.1409
1.29749
54.1395
1.31706
54.1207
1.35285
54.1044
1.39522
54.0979
1.42289
54.1126
1.42698
54.1361
1.42948
54.1377
1.43297
54.1367
1.43703
54.1362
1.44151
54.1358
1.44622
54.1355
1.45111
54.1354
1.45609
54.1353
1.46094
54.1354
1.46529
54.1359
1.46852
54.137
1.47051
54.1382
1.47153
54.1392
1.47215
54.1396
1.47255
54.1398
1.47312
54.1397
1.4734
54.14
1.47359
54.14
1.47346
54.1404
1.47313
54.1406
1.47225
54.1411
1.47077
54.1417
1.46879
54.1422
1.46632
54.1427
1.46286
54.1437
1.45897
54.1441
1.45411
54.1451
1.44886
54.1455
1.44285
54.1462
1.43616
54.1469
1.42907
54.1473
1.42098
54.1483
1.41262
54.1486
1.40337
54.1495
1.39371
54.1499
1.38268
54.1513
1.37175
54.1512
1.35992
54.1521
1.34765
54.1525
1.33554
54.1523
1.32064
54.1551
1.30731
54.1536
1.29187
54.1557
1.2767
54.1554
1.26162
54.1553
1.24436
54.1575
1.22706
54.1575
1.21219
54.1551
1.19258
54.1598
1.17033
54.1625
1.14824
54.1623
1.12604
54.1624
1.10399
54.1623
1.08195
54.1623
1.06618
54.156
1.04989
54.1565
1.0289
54.1612
1.00558
54.1636
0.98142
54.1644
0.95791
54.1637
0.934878
54.1633
0.911871
54.1632
0.888569
54.1635
0.865346
54.1635
0.841284
54.1643
0.817546
54.164
0.793305
54.1645
0.768973
54.1646
0.744483
54.1647
0.719831
54.1649
0.6951
54.165
0.670209
54.1651
0.645431
54.165
0.620511
54.1652
0.595929
54.1648
0.571185
54.165
0.546741
54.1647
0.52234
54.1646
0.498114
54.1645
0.473844
54.1645
0.449726
54.1644
0.425509
54.1645
0.401372
54.1644
0.377192
54.1644
0.353065
54.1644
0.328997
54.1643
0.304842
54.1644
0.280672
54.1644
0.256379
54.1645
0.232121
54.1645
0.207787
54.1646
0.183318