/*--------------------------------*- C++ -*----------------------------------*\
| =========                 |                                                 |
| \\      /  F ield         | OpenFOAM: The Open Source CFD Toolbox           |
|  \\    /   O peration     | Version:  5.x                                   |
|   \\  /    A nd           | Web:      www.OpenFOAM.org                      |
|    \\/     M anipulation  |                                                 |
\*---------------------------------------------------------------------------*/
/*   Windows 32 and 64 bit porting by blueCAPE: http://www.bluecape.com.pt   *\
|  Based on Windows porting (2.0.x v4) by Symscape: http://www.symscape.com   |
\*---------------------------------------------------------------------------*/
FoamFile
{
    version     2.0;
    format      ascii;
    class       volVectorField;
    location    "330";
    object      U;
}
// * * * * * * * * * * * * * * * * * * * * * * * * * * * * * * * * * * * * * //

dimensions      [0 1 -1 0 0 0 0];

internalField   nonuniform List<vector> 
43900
(
(1.16163 -0.000736206 -1.61606e-027)
(1.16714 0.00217769 -4.33076e-027)
(1.16972 0.000363726 1.4407e-030)
(1.16838 0.00182715 2.81359e-030)
(1.16974 0.000794532 3.65352e-030)
(1.16991 0.00198776 3.66736e-030)
(1.17011 0.00117785 5.78155e-027)
(1.17052 0.00187056 -1.15429e-026)
(1.17042 0.00164053 9.68475e-030)
(1.17008 0.00179657 -1.15142e-026)
(1.17007 0.00190374 1.15372e-026)
(1.17011 0.00194335 1.15611e-029)
(1.17 0.00197963 -1.14783e-026)
(1.16993 0.00202157 2.49939e-029)
(1.17 0.00210733 2.55937e-029)
(1.17012 0.00210495 2.62782e-029)
(1.16998 0.0021593 -2.28499e-026)
(1.16976 0.00222052 5.49496e-029)
(1.1698 0.00222189 2.28766e-026)
(1.16987 0.00229057 2.8521e-029)
(1.17001 0.0022981 2.90124e-029)
(1.17004 0.00232639 2.94757e-029)
(1.16988 0.0023782 2.98566e-029)
(1.16991 0.002369 3.0279e-029)
(1.16997 0.00242672 3.06183e-029)
(1.16995 0.00245375 -2.25793e-026)
(1.17 0.00245153 6.26913e-029)
(1.17 0.00250679 6.32077e-029)
(1.16993 0.00249436 9.01252e-026)
(1.1587 0.0114642 0)
(1.16551 -0.00498219 0)
(1.17145 0.00906967 0)
(1.16661 -0.000184938 0)
(1.16847 0.00620249 0)
(1.16802 0.00274072 0)
(1.16837 0.00491629 0)
(1.16772 0.00463525 0)
(1.16817 0.00463834 0)
(1.1686 0.00533049 0)
(1.16862 0.00532298 0)
(1.16887 0.00551416 0)
(1.16912 0.00582436 0)
(1.16912 0.00604583 0)
(1.16926 0.00613058 0)
(1.16912 0.00635518 0)
(1.16901 0.00653011 0)
(1.16939 0.00660197 0)
(1.1695 0.00679121 0)
(1.16941 0.00687076 0)
(1.16937 0.0069893 0)
(1.16929 0.00715931 0)
(1.16947 0.00719311 0)
(1.16947 0.00735037 0)
(1.16925 0.00741026 0)
(1.16936 0.00742173 0)
(1.16954 0.0075763 0)
(1.16952 0.00759094 0)
(1.16956 0.00769651 0)
(1.10202 0.0321413 0)
(1.14469 -0.0175753 0)
(1.16303 0.0288269 0)
(1.16318 -0.00367332 0)
(1.16631 0.0209217 0)
(1.16424 0.00402699 0)
(1.16577 0.0150722 0)
(1.16648 0.00842966 0)
(1.16662 0.0119002 0)
(1.16657 0.0106555 0)
(1.16675 0.0108267 0)
(1.16675 0.0111827 0)
(1.16693 0.0111953 0)
(1.16735 0.0112723 0)
(1.16732 0.0114663 0)
(1.16731 0.0115991 0)
(1.16785 0.0116888 0)
(1.16795 0.0118959 0)
(1.16766 0.0120078 0)
(1.16784 0.0121091 0)
(1.16789 0.0123376 0)
(1.1679 0.0123731 0)
(1.16798 0.0125312 0)
(1.16821 0.0126646 0)
(1.16871 0.0127418 0)
(1.16879 0.0130144 0)
(1.16834 0.0131034 0)
(1.16804 0.013244 0)
(1.16825 0.0133774 1.58473e-027)
(1.04069 0.0199864 0)
(1.08656 -0.0067058 0)
(1.12947 0.0201188 0)
(1.15547 0.00821737 0)
(1.1632 0.0222777 0)
(1.16588 0.0107848 0)
(1.16464 0.0206174 0)
(1.16345 0.0137015 0)
(1.16448 0.0181882 0)
(1.16459 0.0158096 0)
(1.16466 0.0169182 0)
(1.16493 0.0166238 0)
(1.16503 0.0166668 0)
(1.16506 0.0167181 0)
(1.16537 0.0167377 0)
(1.16566 0.0168229 0)
(1.16548 0.0168964 0)
(1.16549 0.0169103 0)
(1.16606 0.0169923 0)
(1.16623 0.0171859 0)
(1.16621 0.0171692 0)
(1.16651 0.0173075 0)
(1.16679 0.017478 0)
(1.1665 0.0175311 0)
(1.16576 0.0177484 0)
(1.16559 0.0178088 0)
(1.16605 0.017853 0)
(1.16711 0.0180005 0)
(1.16733 0.0180976 1.69146e-027)
(1.00335 0.0101888 3.38843e-027)
(1.03884 -0.000898795 0)
(1.0757 0.0108293 0)
(1.11397 0.0129096 0)
(1.14433 0.0183252 0)
(1.15994 0.0173733 0)
(1.16324 0.0228548 0)
(1.1643 0.0185831 0)
(1.16335 0.0217077 0)
(1.16358 0.0203777 0)
(1.16363 0.0208198 0)
(1.16343 0.0211515 0)
(1.16366 0.0210513 0)
(1.16377 0.0211649 0)
(1.16356 0.0212862 0)
(1.16377 0.0213898 0)
(1.16426 0.0214771 0)
(1.16428 0.0216508 0)
(1.16383 0.0217915 0)
(1.16383 0.0217768 0)
(1.16416 0.0219959 0)
(1.16406 0.0221904 0)
(1.16359 0.0222225 0)
(1.16378 0.0224276 0)
(1.16485 0.0224877 0)
(1.16563 0.0225544 0)
(1.16566 0.0227824 0)
(1.16472 0.0229378 0)
(1.16387 0.0231126 -7.11958e-027)
(0.976031 0.00684622 -3.53631e-027)
(1.00591 0.000679892 0)
(1.03713 0.00760889 0)
(1.06953 0.0110594 0)
(1.10198 0.0149364 0)
(1.13231 0.0182496 0)
(1.15266 0.0222072 0)
(1.16096 0.0223448 0)
(1.16221 0.024635 0)
(1.16198 0.023099 0)
(1.16218 0.0244834 0)
(1.16237 0.0243354 0)
(1.16209 0.0246162 0)
(1.16225 0.024855 0)
(1.16247 0.0251132 0)
(1.16214 0.0253404 0)
(1.16196 0.0255564 0)
(1.1622 0.0258643 0)
(1.16277 0.0259991 0)
(1.16277 0.0264054 0)
(1.16222 0.0265865 0)
(1.16226 0.0266328 0)
(1.16309 0.0270143 0)
(1.16359 0.0271705 0)
(1.16325 0.0273584 0)
(1.16219 0.0277821 0)
(1.16174 0.0279426 0)
(1.16221 0.028158 0)
(1.16385 0.0284044 3.77017e-027)
(0.952816 0.00528359 0)
(0.979136 0.00143431 0)
(1.00671 0.00646011 0)
(1.03535 0.00968972 0)
(1.06447 0.0130272 0)
(1.0934 0.0166634 0)
(1.12146 0.0204331 0)
(1.14479 0.0233318 0)
(1.15638 0.0260165 0)
(1.15961 0.0265655 0)
(1.15955 0.026521 0)
(1.15948 0.0274591 0)
(1.15991 0.0275755 0)
(1.15961 0.0280199 0)
(1.15948 0.0283892 0)
(1.16 0.0286951 0)
(1.15974 0.029191 0)
(1.15936 0.0293288 0)
(1.15939 0.029865 0)
(1.15946 0.0300916 0)
(1.16009 0.0304036 0)
(1.16045 0.0309549 0)
(1.15998 0.0311431 0)
(1.1591 0.0314425 0)
(1.15905 0.0318995 0)
(1.16016 0.0321346 0)
(1.16109 0.0324716 0)
(1.16131 0.0326981 0)
(1.16016 0.0329277 0)
(0.931646 0.00444214 0)
(0.955604 0.00190141 0)
(0.980721 0.00602456 0)
(1.00682 0.0090839 0)
(1.03353 0.0121363 0)
(1.06042 0.0154389 0)
(1.08698 0.0189928 0)
(1.11244 0.0225686 0)
(1.13569 0.0258987 0)
(1.15046 0.0283007 0)
(1.15561 0.0301121 0)
(1.15579 0.0298679 0)
(1.15554 0.0307316 0)
(1.15606 0.0311352 0)
(1.15598 0.0317662 0)
(1.15554 0.0322103 0)
(1.15616 0.0325929 0)
(1.15642 0.0333025 0)
(1.15593 0.0335565 0)
(1.15611 0.0341251 0)
(1.15621 0.0346067 0)
(1.15585 0.0349858 0)
(1.15611 0.0354655 0)
(1.15722 0.0361337 0)
(1.15766 0.0364016 0)
(1.15685 0.0367472 0)
(1.15616 0.0371975 0)
(1.15634 0.0377281 0)
(1.15783 0.03822 0)
(0.911684 0.00386828 0)
(0.93389 0.00231337 0)
(0.95717 0.00592901 0)
(0.981373 0.00892093 0)
(1.00622 0.0118707 0)
(1.03139 0.014994 0)
(1.05653 0.0183251 0)
(1.08121 0.0218103 0)
(1.10492 0.0253552 0)
(1.12696 0.0286431 0)
(1.14372 0.031473 0)
(1.15044 0.0335628 0)
(1.15088 0.0336263 0)
(1.15056 0.0344874 0)
(1.15096 0.0351634 0)
(1.15136 0.0358645 0)
(1.15077 0.0364602 0)
(1.15115 0.0369225 0)
(1.15215 0.0378161 0)
(1.152 0.0381778 0)
(1.15141 0.0388368 0)
(1.15212 0.0394479 0)
(1.15255 0.0399698 0)
(1.15187 0.0403954 0)
(1.15185 0.0411205 0)
(1.15323 0.0416691 0)
(1.15413 0.042438 0)
(1.15398 0.0427295 0)
(1.15243 0.0431653 0)
(0.89229 0.00337837 0)
(0.913172 0.00272403 0)
(0.935059 0.00604046 0)
(0.957811 0.00902709 0)
(0.981199 0.0119625 0)
(1.00497 0.0150246 0)
(1.02887 0.0182566 0)
(1.05259 0.0216328 0)
(1.07579 0.025118 0)
(1.09806 0.0286452 0)
(1.11875 0.0320082 0)
(1.1364 0.0349954 0)
(1.1443 0.0375038 0)
(1.14506 0.0377926 0)
(1.14485 0.0388254 0)
(1.14492 0.0395862 0)
(1.1458 0.0402526 0)
(1.14553 0.0411638 0)
(1.14547 0.0417232 0)
(1.146 0.042643 0)
(1.14723 0.0434404 0)
(1.14687 0.0439696 0)
(1.14638 0.0448273 0)
(1.1474 0.0454982 0)
(1.14796 0.0463032 0)
(1.14715 0.0467645 0)
(1.14663 0.0475026 0)
(1.14727 0.0482083 0)
(1.14963 0.0490702 -9.95162e-027)
(0.873106 0.00321552 0)
(0.892908 0.00304149 0)
(0.913695 0.0063061 0)
(0.935309 0.00935642 0)
(0.957554 0.0123475 0)
(0.980215 0.0154371 0)
(1.00307 0.0186712 0)
(1.02588 0.0220321 0)
(1.0484 0.0254955 0)
(1.07033 0.0290359 0)
(1.09128 0.0326017 0)
(1.11064 0.0360346 0)
(1.12807 0.0391674 0)
(1.1374 0.0419569 0)
(1.13833 0.0424595 0)
(1.13846 0.0437215 0)
(1.13825 0.0445901 0)
(1.13927 0.0451382 0)
(1.13942 0.0466803 0)
(1.13961 0.0469964 0)
(1.13936 0.0481861 0)
(1.14035 0.0490974 0)
(1.14116 0.0500596 0)
(1.14055 0.050665 0)
(1.14066 0.0516896 0)
(1.14232 0.0523325 0)
(1.14341 0.0534887 0)
(1.14282 0.0539253 0)
(1.1416 0.0545258 1.04997e-026)
(0.853953 0.00317696 0)
(0.872823 0.00335157 0)
(0.892658 0.00667164 0)
(0.913312 0.00984128 0)
(0.934607 0.0129463 0)
(0.956351 0.0161326 0)
(0.978348 0.0194463 0)
(1.0004 0.0228732 0)
(1.02229 0.0263924 0)
(1.04381 0.0299835 0)
(1.0647 0.0336206 0)
(1.08461 0.037252 0)
(1.10311 0.0407489 0)
(1.11991 0.0440065 0)
(1.12998 0.0468941 0)
(1.13083 0.0478586 0)
(1.13172 0.0490975 0)
(1.13107 0.0501258 0)
(1.13215 0.0508036 0)
(1.13196 0.0523518 0)
(1.13282 0.053136 0)
(1.13259 0.0539532 0)
(1.13305 0.0551465 0)
(1.1349 0.056023 0)
(1.13523 0.0572073 0)
(1.13434 0.0577711 0)
(1.13457 0.0590149 0)
(1.13639 0.0597032 0)
(1.13849 0.0612776 1.15414e-026)
(0.834598 0.00310537 0)
(0.852664 0.00371383 0)
(0.87168 0.00712475 0)
(0.891509 0.0104502 0)
(0.911987 0.0137166 0)
(0.932946 0.0170543 0)
(0.954209 0.0205083 0)
(0.975599 0.0240672 0)
(0.996939 0.0277127 0)
(1.01805 0.0314278 0)
(1.03872 0.0351932 0)
(1.05875 0.0389823 0)
(1.07784 0.0427461 0)
(1.0956 0.046375 0)
(1.1118 0.0497742 0)
(1.12208 0.0528604 0)
(1.12274 0.0541167 0)
(1.12407 0.0553474 0)
(1.12356 0.0567986 0)
(1.12472 0.0574379 0)
(1.12512 0.0593487 0)
(1.12596 0.0600558 0)
(1.12655 0.0612143 0)
(1.12615 0.0625562 0)
(1.12711 0.0633674 0)
(1.12873 0.0648455 0)
(1.12929 0.0660964 0)
(1.1287 0.0664823 0)
(1.12876 0.0676557 -1.2177e-026)
(0.814969 0.0030929 0)
(0.832293 0.00409254 0)
(0.850557 0.00764604 0)
(0.869644 0.0111607 0)
(0.889397 0.0146236 0)
(0.909654 0.0181515 0)
(0.930261 0.0217884 0)
(0.951056 0.025525 0)
(0.971881 0.0293449 0)
(0.992579 0.0332337 0)
(1.01299 0.0371755 0)
(1.03293 0.0411506 0)
(1.05222 0.0451329 0)
(1.07058 0.0490744 0)
(1.08768 0.052859 0)
(1.10343 0.0564483 0)
(1.11376 0.0597979 0)
(1.11388 0.061032 0)
(1.11546 0.0625422 0)
(1.11545 0.0640692 0)
(1.11639 0.0650893 0)
(1.11777 0.0667532 0)
(1.11766 0.0681075 0)
(1.11903 0.0692261 0)
(1.11867 0.0708654 0)
(1.11938 0.0714977 0)
(1.12037 0.0732281 0)
(1.12238 0.0744226 0)
(1.12346 0.0761262 -1.34203e-026)
(0.79502 0.00312888 0)
(0.811665 0.00448673 0)
(0.829241 0.0082289 0)
(0.847642 0.0119613 0)
(0.866736 0.01565 0)
(0.886366 0.0194009 0)
(0.906379 0.0232547 0)
(0.926636 0.0272048 0)
(0.94699 0.0312359 0)
(0.9673 0.0353351 0)
(0.987427 0.0394886 0)
(1.00722 0.0436797 0)
(1.02654 0.0478882 0)
(1.04518 0.0520869 0)
(1.06293 0.0562263 0)
(1.07947 0.0601778 0)
(1.09481 0.0640289 0)
(1.10494 0.0674827 0)
(1.10484 0.068873 0)
(1.10619 0.0705346 0)
(1.10726 0.0723975 0)
(1.10736 0.0736035 0)
(1.10873 0.0749964 0)
(1.1094 0.0775055 0)
(1.11092 0.0778597 0)
(1.11161 0.0799985 0)
(1.11233 0.0815089 0)
(1.11313 0.0819366 0)
(1.11474 0.083885 1.42006e-026)
(0.774676 0.00321566 0)
(0.79068 0.00491037 0)
(0.80762 0.00888997 0)
(0.825385 0.0128794 0)
(0.843856 0.0168296 0)
(0.862903 0.0208439 0)
(0.882375 0.0249606 0)
(0.902131 0.0291713 0)
(0.922042 0.0334636 0)
(0.941981 0.0378257 0)
(0.961821 0.0422458 0)
(0.981438 0.0467097 0)
(1.0007 0.0512004 0)
(1.01947 0.0556976 0)
(1.03758 0.0601736 0)
(1.05483 0.0645753 0)
(1.07093 0.0687892 0)
(1.08594 0.0729246 0)
(1.09568 0.0765947 0)
(1.09597 0.0781665 0)
(1.09671 0.0801127 0)
(1.09878 0.0820509 0)
(1.09873 0.0837937 0)
(1.10065 0.0848101 0)
(1.10101 0.0874575 0)
(1.10341 0.0882435 0)
(1.10486 0.0899185 0)
(1.10542 0.0924475 0)
(1.10573 0.0931141 0)
(0.753871 0.003339 0)
(0.769263 0.00535422 0)
(0.785593 0.00960499 0)
(0.802758 0.0138809 0)
(0.820638 0.0181198 0)
(0.839117 0.0224233 0)
(0.858069 0.0268324 0)
(0.877349 0.0313373 0)
(0.896831 0.0359241 0)
(0.916397 0.0405827 0)
(0.935932 0.0453019 0)
(0.955324 0.0500691 0)
(0.974461 0.0548696 0)
(0.993227 0.0596859 0)
(1.01149 0.0644976 0)
(1.02911 0.0692758 0)
(1.0459 0.0739615 0)
(1.06165 0.0784503 0)
(1.07638 0.0828704 0)
(1.08546 0.0867804 0)
(1.08589 0.0882861 0)
(1.08663 0.0909294 0)
(1.08949 0.0918315 0)
(1.08999 0.0950049 0)
(1.09201 0.095566 0)
(1.09276 0.0978696 0)
(1.09368 0.0999801 0)
(1.09676 0.100228 0)
(1.09804 0.103595 0)
(0.732648 0.00349173 0)
(0.747447 0.00581336 0)
(0.76319 0.0103604 0)
(0.779779 0.014943 0)
(0.797102 0.0194914 0)
(0.81504 0.0241034 0)
(0.833479 0.0288209 0)
(0.852297 0.0336371 0)
(0.871369 0.0385368 0)
(0.890581 0.0435091 0)
(0.909824 0.0485434 0)
(0.928994 0.0536275 0)
(0.947992 0.058747 0)
(0.966715 0.0638856 0)
(0.985058 0.0690247 0)
(1.00291 0.0741422 0)
(1.02013 0.0792058 0)
(1.03657 0.0841521 0)
(1.0521 0.0888902 0)
(1.06659 0.093627 0)
(1.07487 0.0974362 0)
(1.07631 0.0994872 0)
(1.07708 0.101824 0)
(1.08004 0.103137 0)
(1.08066 0.106658 0)
(1.08316 0.107612 0)
(1.08425 0.109946 0)
(1.08504 0.113055 0)
(1.08762 0.11334 0)
(0.711024 0.00367508 4.08328e-026)
(0.725245 0.00629592 0)
(0.740419 0.0111674 0)
(0.756452 0.0160826 0)
(0.77324 0.0209655 0)
(0.790669 0.0259143 0)
(0.808626 0.0309701 0)
(0.827 0.0361267 0)
(0.845674 0.0413695 0)
(0.864535 0.0466866 0)
(0.883487 0.0520689 0)
(0.902435 0.0575044 0)
(0.921284 0.0629797 0)
(0.939945 0.06848 0)
(0.958328 0.0739882 0)
(0.976338 0.0794854 0)
(0.993871 0.084949 0)
(1.01081 0.0903458 0)
(1.02705 0.0956099 0)
(1.04252 0.100707 0)
(1.05698 0.105685 0)
(1.06497 0.109816 0)
(1.06714 0.111942 0)
(1.06775 0.114879 0)
(1.07059 0.116217 0)
(1.07152 0.119759 0)
(1.07421 0.121088 0)
(1.07708 0.123117 0)
(1.07678 0.126678 0)
(0.689008 0.00388391 1.33089e-027)
(0.702661 0.00679935 0)
(0.717275 0.0120194 0)
(0.732762 0.0172892 0)
(0.749022 0.022528 0)
(0.765948 0.027836 0)
(0.783431 0.0332538 0)
(0.801368 0.0387758 0)
(0.819654 0.044389 0)
(0.83818 0.0500806 0)
(0.856844 0.0558393 0)
(0.875561 0.0616553 0)
(0.894242 0.0675155 0)
(0.912807 0.0734062 0)
(0.931175 0.0793118 0)
(0.949265 0.0852151 0)
(0.966991 0.0910968 0)
(0.984264 0.0969344 0)
(1.00099 0.102692 0)
(1.01709 0.108308 0)
(1.03264 0.113717 0)
(1.04717 0.119202 0)
(1.05429 0.122995 0)
(1.05704 0.125851 0)
(1.0578 0.128769 0)
(1.06114 0.130009 0)
(1.0619 0.133714 0)
(1.06565 0.135664 0)
(1.06929 0.137035 0)
(0.666646 0.00411525 -4.7118e-026)
(0.67974 0.00732287 0)
(0.693805 0.0129127 0)
(0.708756 0.0185567 0)
(0.724501 0.0241697 0)
(0.740938 0.0298551 0)
(0.757962 0.0356552 0)
(0.775471 0.0415623 0)
(0.793365 0.0475635 0)
(0.811548 0.0536474 0)
(0.829921 0.0598024 0)
(0.848401 0.0660176 0)
(0.866906 0.0722803 0)
(0.885358 0.0785768 0)
(0.903685 0.0848925 0)
(0.921813 0.0912109 0)
(0.93967 0.0975142 0)
(0.95718 0.103782 0)
(0.974267 0.109993 0)
(0.990859 0.116109 0)
(1.00694 0.122051 0)
(1.02265 0.12791 0)
(1.03729 0.133656 0)
(1.04334 0.137508 0)
(1.04682 0.140448 0)
(1.04896 0.14375 0)
(1.05204 0.145246 0)
(1.05379 0.148931 0)
(1.05738 0.15156 0)
(0.643973 0.00436715 0)
(0.656514 0.00786819 0)
(0.670035 0.0138492 0)
(0.684458 0.0198875 0)
(0.699693 0.0258945 0)
(0.715645 0.0319779 0)
(0.732214 0.0381812 0)
(0.749302 0.044496 0)
(0.766816 0.0509089 0)
(0.784664 0.0574089 0)
(0.802753 0.0639843 0)
(0.820999 0.0706229 0)
(0.839324 0.0773132 0)
(0.857656 0.0840413 0)
(0.875925 0.0907931 0)
(0.894067 0.0975531 0)
(0.912015 0.104305 0)
(0.929704 0.11103 0)
(0.947068 0.117709 0)
(0.964042 0.124322 0)
(0.980572 0.130834 0)
(0.996654 0.137167 0)
(1.01276 0.14349 0)
(1.02759 0.149722 0)
(1.03349 0.15329 0)
(1.03707 0.156684 0)
(1.04078 0.160133 0)
(1.04374 0.161607 0)
(1.04557 0.164902 0)
(0.621029 0.00463775 -5.75206e-026)
(0.633024 0.00843546 0)
(0.646008 0.0148277 0)
(0.659909 0.0212793 0)
(0.674642 0.0276986 0)
(0.690116 0.0341985 0)
(0.706239 0.0408239 0)
(0.722915 0.0475665 0)
(0.740052 0.0544108 0)
(0.757562 0.0613457 0)
(0.775359 0.0683602 0)
(0.793363 0.075442 0)
(0.8115 0.0825787 0)
(0.8297 0.0897566 0)
(0.847896 0.0969614 0)
(0.866027 0.104178 0)
(0.884032 0.111391 0)
(0.901852 0.118582 0)
(0.919428 0.125732 0)
(0.9367 0.132824 0)
(0.953614 0.139837 0)
(0.97013 0.146737 0)
(0.986267 0.153404 0)
(1.00281 0.160249 0)
(1.01828 0.166569 0)
(1.0244 0.170497 0)
(1.02809 0.173578 0)
(1.03204 0.1775 0)
(1.03579 0.179087 5.43679e-026)
(0.59786 0.00492487 -1.62492e-027)
(0.609313 0.00902416 0)
(0.621766 0.0158471 0)
(0.63515 0.0227302 0)
(0.649385 0.02958 0)
(0.664386 0.0365149 0)
(0.680064 0.0435817 0)
(0.696328 0.0507712 0)
(0.713092 0.0580674 0)
(0.730271 0.0654589 0)
(0.747786 0.0729344 0)
(0.765556 0.0804807 0)
(0.783507 0.0880839 0)
(0.801574 0.0957307 0)
(0.819693 0.103406 0)
(0.837804 0.111095 0)
(0.855852 0.118782 0)
(0.873781 0.126449 0)
(0.891538 0.134078 0)
(0.909069 0.141651 0)
(0.926326 0.149147 0)
(0.943265 0.156547 0)
(0.959871 0.163813 0)
(0.976164 0.170884 0)
(0.993432 0.17806 0)
(1.00964 0.184854 0)
(1.01612 0.18916 0)
(1.01961 0.192042 0)
(1.02381 0.196221 1.06516e-027)
(0.574508 0.0052296 6.62371e-026)
(0.585424 0.009637 0)
(0.597351 0.0169113 0)
(0.610223 0.0242457 0)
(0.623965 0.0315452 0)
(0.638498 0.038935 0)
(0.653736 0.0464634 0)
(0.669596 0.0541206 0)
(0.685993 0.0618899 0)
(0.702844 0.0697583 0)
(0.720073 0.0777142 0)
(0.737605 0.085744 0)
(0.755369 0.0938338 0)
(0.773302 0.10197 0)
(0.791342 0.110137 0)
(0.809431 0.118319 0)
(0.827516 0.1265 0)
(0.845544 0.134662 0)
(0.863465 0.142789 0)
(0.881231 0.150862 0)
(0.898797 0.15886 0)
(0.916122 0.166766 0)
(0.933181 0.174561 0)
(0.949976 0.182218 0)
(0.966682 0.189688 0)
(0.984337 0.19724 0)
(1.00168 0.204774 0)
(1.00832 0.208778 0)
(1.01141 0.211924 -6.21384e-026)
(0.551013 0.00554936 0)
(0.561398 0.0102714 0)
(0.572803 0.0180161 0)
(0.585168 0.0258194 0)
(0.598422 0.0335862 0)
(0.61249 0.0414489 0)
(0.627292 0.0494577 0)
(0.64275 0.057602 0)
(0.658781 0.0658646 0)
(0.675308 0.0742312 0)
(0.692258 0.0826901 0)
(0.70956 0.0912279 0)
(0.727143 0.0998287 0)
(0.744944 0.108477 0)
(0.762904 0.117156 0)
(0.780969 0.125852 0)
(0.799085 0.134545 0)
(0.817202 0.14322 0)
(0.835273 0.151858 0)
(0.853252 0.160441 0)
(0.871097 0.168949 0)
(0.888768 0.177364 0)
(0.906234 0.185667 0)
(0.923483 0.193842 0)
(0.940557 0.201873 0)
(0.957515 0.209683 0)
(0.976074 0.217821 0)
(0.993769 0.225614 0)
(1.0012 0.229652 0)
(0.527423 0.00588511 0)
(0.537281 0.0109288 0)
(0.54817 0.0191637 0)
(0.560032 0.0274545 0)
(0.572801 0.0357071 0)
(0.586406 0.0440623 0)
(0.600775 0.0525718 0)
(0.615832 0.0612243 0)
(0.631499 0.0700016 0)
(0.647703 0.078889 0)
(0.664373 0.0878735 0)
(0.681443 0.0969409 0)
(0.698846 0.106075 0)
(0.716518 0.115257 0)
(0.734404 0.124473 0)
(0.752448 0.133703 0)
(0.770599 0.14293 0)
(0.788808 0.152136 0)
(0.80703 0.161302 0)
(0.825219 0.170409 0)
(0.843333 0.179438 0)
(0.861335 0.188369 0)
(0.87919 0.197184 0)
(0.896875 0.205866 0)
(0.914385 0.214405 0)
(0.931737 0.222772 0)
(0.949176 0.23098 0)
(0.968457 0.23966 0)
(0.986888 0.247471 7.29535e-026)
(0.503779 0.00623545 0)
(0.513117 0.0116075 0)
(0.523494 0.0203514 0)
(0.534856 0.0291471 0)
(0.547142 0.0379029 0)
(0.560288 0.0467685 0)
(0.574225 0.0557979 0)
(0.588882 0.0649785 0)
(0.604188 0.0742913 0)
(0.620073 0.0837213 0)
(0.636467 0.0932533 0)
(0.653308 0.102872 0)
(0.670531 0.112561 0)
(0.688077 0.122302 0)
(0.70589 0.132077 0)
(0.723917 0.141867 0)
(0.742107 0.151652 0)
(0.760414 0.161412 0)
(0.77879 0.171127 0)
(0.797192 0.180778 0)
(0.815579 0.190343 0)
(0.833911 0.199803 0)
(0.852152 0.209137 0)
(0.870273 0.218328 0)
(0.888251 0.227361 0)
(0.90608 0.236219 0)
(0.92383 0.244898 0)
(0.941783 0.253435 0)
(0.962367 0.262611 9.38184e-028)
(0.48013 0.00659904 0)
(0.488952 0.0123057 0)
(0.498823 0.0215761 0)
(0.509689 0.0308923 0)
(0.521495 0.0401671 0)
(0.534181 0.0495601 0)
(0.547686 0.0591271 0)
(0.561943 0.0688548 0)
(0.576885 0.0787234 0)
(0.592447 0.0887172 0)
(0.608563 0.0988205 0)
(0.625175 0.109018 0)
(0.642223 0.119291 0)
(0.659646 0.12962 0)
(0.677391 0.139982 0)
(0.695406 0.150359 0)
(0.713643 0.160728 0)
(0.732054 0.171067 0)
(0.750594 0.181356 0)
(0.769219 0.191572 0)
(0.787888 0.201692 0)
(0.806561 0.211694 0)
(0.8252 0.221558 0)
(0.843771 0.231262 0)
(0.862244 0.240788 0)
(0.8806 0.250117 0)
(0.89885 0.259252 0)
(0.917069 0.268087 0)
(0.935966 0.277225 -1.64949e-025)
(0.456521 0.00697488 0)
(0.464837 0.0130225 0)
(0.474206 0.0228361 0)
(0.484579 0.0326876 0)
(0.495905 0.0424968 0)
(0.508132 0.0524342 0)
(0.521203 0.0625574 0)
(0.535057 0.0728524 0)
(0.549633 0.0832986 0)
(0.564868 0.0938795 0)
(0.580704 0.104579 0)
(0.597081 0.115379 0)
(0.613947 0.12626 0)
(0.631245 0.1372 0)
(0.648924 0.148178 0)
(0.666932 0.15917 0)
(0.685223 0.170154 0)
(0.703749 0.181104 0)
(0.722467 0.191996 0)
(0.741331 0.202805 0)
(0.760301 0.213506 0)
(0.779335 0.224075 0)
(0.798394 0.234486 0)
(0.817442 0.244718 0)
(0.836444 0.254747 0)
(0.855373 0.264552 0)
(0.874217 0.274121 0)
(0.892994 0.283434 0)
(0.911767 0.292421 -6.455e-028)
(0.433003 0.00736039 0)
(0.44082 0.0137548 0)
(0.449692 0.024126 0)
(0.459575 0.0345251 0)
(0.470422 0.0448815 0)
(0.482187 0.0553774 0)
(0.49482 0.0660725 0)
(0.508267 0.0769518 0)
(0.52247 0.0879943 0)
(0.537374 0.0991831 0)
(0.552924 0.110501 0)
(0.569065 0.121929 0)
(0.585747 0.133446 0)
(0.602918 0.145029 0)
(0.620527 0.156655 0)
(0.638528 0.168297 0)
(0.656874 0.17993 0)
(0.675522 0.191526 0)
(0.694426 0.203057 0)
(0.713544 0.214495 0)
(0.732834 0.225811 0)
(0.752254 0.236977 0)
(0.771763 0.247966 0)
(0.791322 0.258749 0)
(0.810894 0.269302 0)
(0.830444 0.279599 0)
(0.849948 0.289619 0)
(0.869395 0.299356 0)
(0.888789 0.308692 9.26823e-026)
(0.409627 0.00775307 0)
(0.416953 0.0145004 0)
(0.425336 0.0254415 0)
(0.43473 0.036398 0)
(0.445098 0.0473125 0)
(0.456399 0.0583795 0)
(0.468589 0.0696607 0)
(0.481619 0.0811405 0)
(0.495441 0.0927977 0)
(0.510002 0.104615 0)
(0.525254 0.116576 0)
(0.541146 0.128659 0)
(0.557633 0.140844 0)
(0.574668 0.153105 0)
(0.592204 0.165416 0)
(0.610195 0.177746 0)
(0.628599 0.190068 0)
(0.647373 0.20235 0)
(0.666474 0.214561 0)
(0.68586 0.226668 0)
(0.70549 0.23864 0)
(0.725321 0.250443 0)
(0.745311 0.262045 0)
(0.765419 0.273415 0)
(0.785604 0.284521 0)
(0.805826 0.295335 0)
(0.826051 0.305832 0)
(0.846251 0.315994 0)
(0.8664 0.325778 9.84311e-026)
(0.386445 0.00814994 0)
(0.393291 0.0152566 0)
(0.40119 0.0267777 0)
(0.410098 0.0382992 0)
(0.419985 0.0497807 0)
(0.430816 0.06143 0)
(0.442555 0.0733107 0)
(0.455161 0.0854067 0)
(0.468588 0.0976973 0)
(0.482793 0.110166 0)
(0.497731 0.122794 0)
(0.51336 0.13556 0)
(0.529635 0.148442 0)
(0.546519 0.161411 0)
(0.563968 0.17444 0)
(0.581942 0.187497 0)
(0.600399 0.20055 0)
(0.6193 0.213564 0)
(0.638604 0.226503 0)
(0.658271 0.23933 0)
(0.678258 0.252007 0)
(0.698525 0.264495 0)
(0.719028 0.276758 0)
(0.739724 0.288757 0)
(0.760567 0.300456 0)
(0.781514 0.311821 0)
(0.802522 0.32282 0)
(0.82355 0.333429 0)
(0.844555 0.343626 -1.03837e-025)
(0.363508 0.00854735 0)
(0.369885 0.01602 0)
(0.377308 0.0281281 0)
(0.385733 0.0402191 0)
(0.395135 0.0522737 0)
(0.405491 0.0645136 0)
(0.416769 0.077004 0)
(0.428936 0.0897289 0)
(0.441953 0.102668 0)
(0.455784 0.115805 0)
(0.470391 0.129122 0)
(0.485737 0.142598 0)
(0.501785 0.156206 0)
(0.5185 0.169919 0)
(0.535846 0.183706 0)
(0.553785 0.197534 0)
(0.572283 0.211366 0)
(0.591303 0.225162 0)
(0.610808 0.238883 0)
(0.63076 0.252485 0)
(0.651119 0.265925 0)
(0.671844 0.279156 0)
(0.692891 0.292135 0)
(0.714214 0.304815 0)
(0.735766 0.317155 0)
(0.757497 0.329112 0)
(0.779356 0.340648 0)
(0.801293 0.351729 0)
(0.823253 0.362329 1.09208e-025)
(0.340869 0.00894145 0)
(0.346791 0.0167866 0)
(0.353745 0.0294857 0)
(0.361688 0.0421475 0)
(0.370604 0.0547786 0)
(0.380476 0.0676149 0)
(0.391282 0.0807232 0)
(0.402995 0.0940876 0)
(0.415584 0.107689 0)
(0.429019 0.121512 0)
(0.443271 0.13554 0)
(0.458308 0.14975 0)
(0.474101 0.164116 0)
(0.490621 0.17861 0)
(0.507839 0.1932 0)
(0.525724 0.207846 0)
(0.544244 0.222508 0)
(0.563369 0.237143 0)
(0.583068 0.251705 0)
(0.603306 0.266145 0)
(0.624046 0.280411 0)
(0.645248 0.29445 0)
(0.666868 0.30821 0)
(0.688859 0.321635 0)
(0.711171 0.334673 0)
(0.73375 0.347273 0)
(0.756536 0.359388 0)
(0.77947 0.370973 0)
(0.802487 0.381995 -2.29874e-025)
(0.318582 0.00932832 0)
(0.324061 0.0175519 0)
(0.330554 0.0308428 0)
(0.338017 0.0440733 0)
(0.346442 0.0572816 0)
(0.355823 0.0707179 0)
(0.366144 0.0844501 0)
(0.377385 0.0984632 0)
(0.389524 0.11274 0)
(0.40254 0.127266 0)
(0.416408 0.142025 0)
(0.431106 0.156996 0)
(0.446611 0.172153 0)
(0.462902 0.187464 0)
(0.479959 0.202895 0)
(0.497758 0.218407 0)
(0.516277 0.233954 0)
(0.535489 0.249488 0)
(0.555368 0.264958 0)
(0.575885 0.280306 0)
(0.597009 0.295473 0)
(0.618701 0.310398 0)
(0.640921 0.325014 0)
(0.66362 0.339258 0)
(0.686747 0.353064 0)
(0.71024 0.366369 0)
(0.734036 0.379115 0)
(0.758061 0.391246 0)
(0.782244 0.402716 1.04486e-027)
(0.2967 0.00970405 0)
(0.30175 0.0183099 0)
(0.307789 0.0321894 0)
(0.314773 0.045983 0)
(0.322703 0.059766 0)
(0.331582 0.0738028 0)
(0.341403 0.0881621 0)
(0.352153 0.10283 0)
(0.363819 0.117791 0)
(0.376386 0.133034 0)
(0.389839 0.148544 0)
(0.404164 0.1643 0)
(0.419346 0.180276 0)
(0.435373 0.19644 0)
(0.452232 0.212756 0)
(0.469909 0.229182 0)
(0.488387 0.24567 0)
(0.507652 0.26217 0)
(0.527686 0.278621 0)
(0.548467 0.294959 0)
(0.569968 0.311115 0)
(0.592159 0.327013 0)
(0.615001 0.342578 0)
(0.638447 0.357729 0)
(0.662443 0.372387 0)
(0.686925 0.386474 0)
(0.711818 0.399914 0)
(0.73704 0.41264 0)
(0.762505 0.42459 1.47239e-027)
(0.275279 0.0100651 0)
(0.27991 0.0190527 0)
(0.285502 0.033514 0)
(0.292007 0.0478607 0)
(0.299437 0.0622121 0)
(0.307804 0.0768462 0)
(0.317109 0.0918319 0)
(0.327347 0.107157 0)
(0.338514 0.122809 0)
(0.350603 0.138779 0)
(0.363606 0.155054 0)
(0.377519 0.171615 0)
(0.392337 0.188437 0)
(0.408054 0.205489 0)
(0.424669 0.222734 0)
(0.442178 0.240131 0)
(0.460572 0.257626 0)
(0.479849 0.275164 0)
(0.500001 0.292677 0)
(0.521018 0.310095 0)
(0.542882 0.327336 0)
(0.56557 0.344313 0)
(0.58905 0.360934 0)
(0.613279 0.3771 0)
(0.638202 0.392712 0)
(0.66375 0.407673 0)
(0.689839 0.421886 0)
(0.716376 0.435265 0)
(0.743254 0.447733 1.32089e-025)
(0.254372 0.0104087 0)
(0.258594 0.0197708 0)
(0.263746 0.0348026 0)
(0.269771 0.0496877 0)
(0.276695 0.0645963 0)
(0.284538 0.0798198 0)
(0.293311 0.0954265 0)
(0.303016 0.111406 0)
(0.313658 0.12775 0)
(0.325236 0.144453 0)
(0.337753 0.161505 0)
(0.351212 0.178888 0)
(0.365616 0.196581 0)
(0.380972 0.214554 0)
(0.397286 0.232771 0)
(0.414569 0.25119 0)
(0.432825 0.269755 0)
(0.452062 0.288406 0)
(0.472286 0.307072 0)
(0.493499 0.325672 0)
(0.515698 0.344113 0)
(0.538872 0.362293 0)
(0.562999 0.380099 0)
(0.588042 0.397413 0)
(0.613948 0.41411 0)
(0.640647 0.430063 0)
(0.668045 0.44515 0)
(0.69603 0.45926 0)
(0.724476 0.47229 -1.34804e-025)
(0.234036 0.0107337 0)
(0.237856 0.0204531 0)
(0.242571 0.0360394 0)
(0.248116 0.0514419 0)
(0.254527 0.0668902 0)
(0.261836 0.0826882 0)
(0.27006 0.0989031 0)
(0.279211 0.115527 0)
(0.289299 0.132557 0)
(0.300334 0.14999 0)
(0.312326 0.16782 0)
(0.325286 0.186035 0)
(0.339227 0.204615 0)
(0.354165 0.223533 0)
(0.370118 0.242756 0)
(0.387109 0.262241 0)
(0.405157 0.281938 0)
(0.424285 0.301781 0)
(0.444515 0.321696 0)
(0.465867 0.341592 0)
(0.488356 0.361366 0)
(0.511988 0.380898 0)
(0.536756 0.400052 0)
(0.562636 0.418682 0)
(0.589583 0.436629 0)
(0.617523 0.453732 0)
(0.646356 0.469831 0)
(0.675949 0.484777 0)
(0.706147 0.498435 1.42169e-025)
(0.214329 0.0110406 0)
(0.217747 0.0210868 0)
(0.222029 0.0372067 0)
(0.227093 0.0530976 0)
(0.232987 0.0690593 0)
(0.239752 0.0854071 0)
(0.247413 0.102207 0)
(0.255989 0.119453 0)
(0.265498 0.137148 0)
(0.275957 0.155295 0)
(0.287384 0.173892 0)
(0.299798 0.19293 0)
(0.313222 0.212396 0)
(0.327681 0.232269 0)
(0.343203 0.252518 0)
(0.359825 0.273109 0)
(0.377584 0.293992 0)
(0.396517 0.315101 0)
(0.416667 0.336362 0)
(0.438077 0.357677 0)
(0.460786 0.378931 0)
(0.484824 0.399986 0)
(0.510209 0.420682 0)
(0.536936 0.440837 0)
(0.564972 0.460253 0)
(0.59425 0.478718 0)
(0.62466 0.49602 0)
(0.656049 0.511956 0)
(0.688222 0.526344 0)
(0.195303 0.0113323 0)
(0.198319 0.021659 0)
(0.202172 0.0382852 0)
(0.206758 0.0546248 0)
(0.212132 0.0710611 0)
(0.218346 0.0879203 0)
(0.225433 0.105265 0)
(0.233417 0.123095 0)
(0.242324 0.141418 0)
(0.252177 0.160242 0)
(0.263002 0.179572 0)
(0.274824 0.199406 0)
(0.287675 0.219736 0)
(0.301587 0.24055 0)
(0.316601 0.261826 0)
(0.332764 0.283536 0)
(0.350135 0.305637 0)
(0.368769 0.328074 0)
(0.388731 0.350767 0)
(0.410092 0.37362 0)
(0.432921 0.396507 0)
(0.457284 0.419275 0)
(0.483229 0.441736 0)
(0.510784 0.46367 0)
(0.539942 0.484827 0)
(0.570648 0.504933 0)
(0.602791 0.523701 0)
(0.636194 0.540853 0)
(0.670615 0.556133 1.45544e-025)
(0.177009 0.0116128 0)
(0.179623 0.0221566 0)
(0.183057 0.0392533 0)
(0.18717 0.0559875 0)
(0.192027 0.0728438 0)
(0.197689 0.0901581 0)
(0.204194 0.10799 0)
(0.211574 0.126343 0)
(0.219861 0.145231 0)
(0.229083 0.164671 0)
(0.239271 0.184672 0)
(0.250458 0.205242 0)
(0.262679 0.226384 0)
(0.275977 0.248094 0)
(0.290401 0.270365 0)
(0.30601 0.293177 0)
(0.322879 0.316502 0)
(0.341088 0.340295 0)
(0.360728 0.364486 0)
(0.381901 0.388978 0)
(0.404714 0.413644 0)
(0.429277 0.438316 0)
(0.455684 0.462783 0)
(0.484009 0.486782 0)
(0.514287 0.510005 0)
(0.546494 0.532098 0)
(0.580528 0.552679 0)
(0.616192 0.571357 0)
(0.653186 0.587771 -5.55123e-027)
(0.159494 0.0118849 0)
(0.161711 0.0225665 0)
(0.164742 0.0400859 0)
(0.168394 0.0571429 0)
(0.172743 0.0743455 0)
(0.177857 0.0920373 0)
(0.183782 0.110273 0)
(0.190553 0.129062 0)
(0.198207 0.148426 0)
(0.20678 0.168388 0)
(0.216304 0.188968 0)
(0.226816 0.210183 0)
(0.238355 0.232048 0)
(0.25097 0.254575 0)
(0.264718 0.277771 0)
(0.27967 0.301633 0)
(0.295913 0.326152 0)
(0.313556 0.351297 0)
(0.332716 0.377013 0)
(0.353531 0.403212 0)
(0.376155 0.429772 0)
(0.400747 0.456521 0)
(0.427465 0.483226 0)
(0.456449 0.509589 0)