/*--------------------------------*- C++ -*----------------------------------*\
| =========                 |                                                 |
| \\      /  F ield         | OpenFOAM: The Open Source CFD Toolbox           |
|  \\    /   O peration     | Version:  5.x                                   |
|   \\  /    A nd           | Web:      www.OpenFOAM.org                      |
|    \\/     M anipulation  |                                                 |
\*---------------------------------------------------------------------------*/
/*   Windows 32 and 64 bit porting by blueCAPE: http://www.bluecape.com.pt   *\
|  Based on Windows porting (2.0.x v4) by Symscape: http://www.symscape.com   |
\*---------------------------------------------------------------------------*/
FoamFile
{
    version     2.0;
    format      ascii;
    class       volScalarField;
    location    "200";
    object      epsilon;
}
// * * * * * * * * * * * * * * * * * * * * * * * * * * * * * * * * * * * * * //

dimensions      [0 2 -3 0 0 0 0];

internalField   nonuniform List<scalar> 
43900
(
0.00152925
0.0015191
0.00151979
0.00151971
0.00151968
0.00151967
0.00151967
0.00151967
0.00151967
0.00151967
0.00151967
0.00151967
0.00151968
0.00151968
0.00151968
0.00151968
0.00151968
0.00151969
0.00151969
0.00151969
0.00151969
0.00151969
0.00151969
0.00151969
0.00151969
0.00151969
0.00151969
0.00151969
0.00151969
0.000411832
3.81194e-005
3.16667e-005
3.15234e-005
3.27347e-005
3.27985e-005
3.28065e-005
3.27863e-005
3.27866e-005
3.27892e-005
3.27914e-005
3.2795e-005
3.27979e-005
3.28006e-005
3.28031e-005
3.28053e-005
3.28072e-005
3.28091e-005
3.28104e-005
3.28113e-005
3.28122e-005
3.28129e-005
3.28135e-005
3.28142e-005
3.28146e-005
3.28151e-005
3.28156e-005
3.28158e-005
3.28161e-005
0.0507547
0.00572603
0.000286421
1.13055e-005
1.69987e-006
1.32802e-006
1.3271e-006
1.41008e-006
1.41881e-006
1.41674e-006
1.41598e-006
1.41649e-006
1.41715e-006
1.41758e-006
1.41794e-006
1.41828e-006
1.41859e-006
1.41886e-006
1.41909e-006
1.41929e-006
1.41946e-006
1.41962e-006
1.41978e-006
1.4199e-006
1.42004e-006
1.42015e-006
1.42025e-006
1.42035e-006
1.42043e-006
0.146371
0.0436588
0.00962693
0.00130675
8.18192e-005
3.30356e-006
3.32694e-007
1.21449e-007
1.08358e-007
1.16726e-007
1.20143e-007
1.1989e-007
1.19429e-007
1.19543e-007
1.1968e-007
1.19714e-007
1.19742e-007
1.19776e-007
1.19806e-007
1.19834e-007
1.19862e-007
1.19886e-007
1.19908e-007
1.1993e-007
1.19948e-007
1.19965e-007
1.19982e-007
1.19996e-007
1.20008e-007
0.198023
0.084587
0.0338593
0.0112341
0.00262755
0.000347971
2.10362e-005
8.66174e-007
7.40716e-008
2.08755e-008
1.6367e-008
1.7791e-008
1.87339e-008
1.85717e-008
1.84099e-008
1.84419e-008
1.84695e-008
1.84758e-008
1.84809e-008
1.84858e-008
1.84901e-008
1.84947e-008
1.84991e-008
1.85023e-008
1.85059e-008
1.85095e-008
1.85123e-008
1.85155e-008
1.85178e-008
0.222812
0.108931
0.0530593
0.0248911
0.0103461
0.00322149
0.000660855
6.75872e-005
3.45412e-006
1.54822e-007
1.56081e-008
4.95165e-009
4.164e-009
4.60503e-009
4.7736e-009
4.69842e-009
4.66718e-009
4.67038e-009
4.67309e-009
4.67411e-009
4.67516e-009
4.6763e-009
4.67717e-009
4.678e-009
4.67888e-009
4.67978e-009
4.68063e-009
4.68138e-009
4.68197e-009
0.23553
0.124253
0.0663805
0.0354044
0.0183934
0.00888765
0.00352593
0.000940376
0.000139601
9.65705e-006
4.48758e-007
2.29184e-008
3.24535e-009
1.58486e-009
1.58927e-009
1.73804e-009
1.74806e-009
1.73702e-009
1.7351e-009
1.73535e-009
1.73569e-009
1.73604e-009
1.73637e-009
1.73659e-009
1.73694e-009
1.73735e-009
1.73759e-009
1.73789e-009
1.73813e-009
0.238208
0.131303
0.0736961
0.0417647
0.0235928
0.0130169
0.0067555
0.00303617
0.000950633
0.000178398
1.55463e-005
7.9353e-007
3.834e-008
2.92582e-009
8.97389e-010
7.10793e-010
7.92157e-010
8.17483e-010
8.16014e-010
8.15497e-010
8.15624e-010
8.1588e-010
8.16009e-010
8.16153e-010
8.16336e-010
8.16427e-010
8.16585e-010
8.16844e-010
8.16963e-010
0.238064
0.135812
0.0790564
0.0466856
0.0277403
0.0163953
0.00946755
0.00517744
0.00251423
0.000892831
0.000191692
1.99692e-005
1.16051e-006
5.99426e-008
3.65891e-009
6.96036e-010
4.01995e-010
4.14357e-010
4.27983e-010
4.29186e-010
4.29341e-010
4.29486e-010
4.29589e-010
4.29726e-010
4.29817e-010
4.29882e-010
4.29984e-010
4.30139e-010
4.30254e-010
0.234435
0.136712
0.0815636
0.049537
0.0304437
0.0187859
0.0115139
0.00689395
0.0039191
0.00199497
0.000773443
0.000179289
2.06978e-005
1.32682e-006
7.37019e-008
4.41244e-009
5.50917e-010
2.69466e-010
2.53429e-010
2.59424e-010
2.59895e-010
2.59885e-010
2.59943e-010
2.60009e-010
2.60085e-010
2.60156e-010
2.60229e-010
2.60335e-010
2.60405e-010
0.227995
0.135312
0.0821262
0.0508521
0.0319647
0.0202823
0.0128949
0.00812887
0.0049999
0.00291892
0.00153007
0.000623743
0.000149424
1.80542e-005
1.24574e-006
7.44812e-008
4.62232e-009
4.79038e-010
2.08745e-010
1.80648e-010
1.84186e-010
1.85127e-010
1.85216e-010
1.85267e-010
1.85318e-010
1.8539e-010
1.85472e-010
1.8553e-010
1.85591e-010
0.220468
0.132695
0.0817251
0.0513707
0.032842
0.0212554
0.0138504
0.00902073
0.00581151
0.00364439
0.00216414
0.00115209
0.000478085
0.000113375
1.35982e-005
9.79585e-007
6.2353e-008
4.0541e-009
4.11711e-010
1.80625e-010
1.56501e-010
1.54757e-010
1.54781e-010
1.54789e-010
1.54806e-010
1.54849e-010
1.54904e-010
1.54937e-010
1.5498e-010
0.211869
0.129061
0.0804567
0.0511825
0.033148
0.0217807
0.0144503
0.00962655
0.00639191
0.00418525
0.00265785
0.0015908
0.000847191
0.000345559
7.71737e-005
8.69259e-006
6.31996e-007
4.18586e-008
2.85458e-009
3.27178e-010
1.62681e-010
1.50969e-010
1.50017e-010
1.50001e-010
1.50002e-010
1.50021e-010
1.50039e-010
1.5005e-010
1.50076e-010
0.202403
0.12451
0.0783999
0.0504167
0.0329925
0.0219218
0.0147449
0.00998769
0.00677407
0.00456454
0.00302116
0.0019293
0.00115189
0.000602426
0.000229914
4.54332e-005
4.5793e-006
3.30265e-007
2.24806e-008
1.63633e-009
2.52476e-010
1.61082e-010
1.55154e-010
1.54781e-010
1.5478e-010
1.54816e-010
1.54755e-010
1.54756e-010
1.54767e-010
0.192396
0.119308
0.0757426
0.0491327
0.0324719
0.021786
0.0147995
0.0101537
0.00699563
0.00481025
0.00327297
0.00217611
0.0013854
0.000814048
0.000407529
0.000134634
2.1916e-005
1.95179e-006
1.40865e-007
9.97356e-009
8.5188e-010
2.24893e-010
1.82317e-010
1.79306e-010
1.79066e-010
1.79069e-010
1.78724e-010
1.78673e-010
1.78673e-010
0.18207
0.113683
0.0726695
0.0474784
0.0316262
0.0214164
0.0146882
0.0101684
0.00709109
0.00494979
0.0034348
0.00234675
0.00155577
0.000976738
0.000554386
0.000254814
6.57908e-005
8.43186e-006
6.96653e-007
5.20879e-008
4.01719e-009
5.24029e-010
2.73713e-010
2.55547e-010
2.53615e-010
2.53143e-010
2.5204e-010
2.51944e-010
2.51957e-010
0.17159
0.107796
0.0693317
0.0455839
0.0305645
0.0208485
0.014425
0.010085
0.00709436
0.00501168
0.00353014
0.00246013
0.00167715
0.00109876
0.000670553
0.000357713
0.000139866
2.65604e-005
2.75882e-006
2.25707e-007
1.79594e-008
1.78879e-009
5.50114e-010
4.55001e-010
4.46032e-010
4.43337e-010
4.40429e-010
4.39346e-010
4.39346e-010
0.161066
0.101761
0.0658255
0.0435338
0.0293685
0.0201614
0.014048
0.00990483
0.00703861
0.0050161
0.0035764
0.00253074
0.00176079
0.00118783
0.000759227
0.000440354
0.000209628
6.21298e-005
8.74037e-006
8.16794e-007
6.97629e-008
6.58153e-009
1.37326e-009
9.48391e-010
9.0797e-010
8.97871e-010
8.90142e-010
8.84992e-010
8.84978e-010
0.150596
0.0956698
0.0622283
0.0413896
0.028087
0.0194004
0.0136053
0.00966036
0.0069222
0.0049844
0.0035869
0.00256963
0.00181657
0.00125256
0.000826994
0.000506111
0.00026841
0.000102989
2.11135e-005
2.40884e-006
2.27318e-007
2.21392e-008
3.76234e-009
2.1444e-009
1.98948e-009
1.95774e-009
1.93675e-009
1.91486e-009
1.9072e-009
0.140241
0.0895833
0.0585939
0.039196
0.0267563
0.018595
0.0131243
0.00938174
0.0067716
0.00491726
0.00357539
0.00258943
0.00185503
0.00130144
0.000880608
0.000560062
0.000318554
0.000143134
3.93308e-005
5.74691e-006
6.17048e-007
6.48618e-008
1.0328e-008
5.08678e-009
4.53293e-009
4.42064e-009
4.35622e-009
4.29798e-009
4.28372e-009
0.130039
0.0835407
0.0549569
0.0369818
0.0253998
0.0177644
0.0126206
0.00908359
0.00660378
0.00483288
0.00354566
0.00259307
0.00188025
0.00133919
0.000924649
0.00060579
0.000362062
0.000180425
6.07277e-005
1.17036e-005
1.48653e-006
1.727e-007
2.77839e-008
1.23981e-008
1.07561e-008
1.04856e-008
1.02769e-008
9.98815e-009
9.89211e-009
0.120025
0.0775722
0.0513412
0.0347655
0.0240321
0.0169198
0.0121032
0.0087731
0.00642524
0.00473888
0.00350622
0.00259007
0.001899
0.00137101
0.000963491
0.000647222
0.000402424
0.000216345
8.50527e-005
1.98932e-005
3.00005e-006
3.98442e-007
7.01741e-008
3.16155e-008
2.60709e-008
2.5151e-008
2.50503e-008
2.5768e-008
2.56276e-008
0.110244
0.0717079
0.047768
0.032562
0.0226636
0.0160691
0.0115781
0.00845518
0.00624028
0.0046397
0.00346249
0.00258229
0.00191367
0.00139931
0.00099932
0.00068617
0.00044105
0.000251739
0.000112156
3.23677e-005
5.99085e-006
9.01697e-007
1.69489e-007
7.7695e-008
6.83096e-008
6.5943e-008
6.19585e-008
5.81313e-008
5.83909e-008
0.100739
0.0659767
0.0442555
0.0303832
0.0213025
0.0152177
0.0110493
0.00813284
0.00605128
0.00453725
0.00341621
0.00257219
0.00192687
0.00142672
0.0010347
0.000725038
0.000479957
0.000287708
0.00014135
4.71953e-005
1.00725e-005
1.72605e-006
3.39491e-007
1.36053e-007
1.0394e-007
1.0372e-007
1.07267e-007
1.07308e-007
1.03799e-007
0.091556
0.0604054
0.0408202
0.028239
0.0199543
0.0143691
0.0105186
0.00780725
0.00585905
0.00443224
0.00336828
0.00256142
0.00193995
0.00145457
0.00107103
0.000765361
0.000520901
0.000326465
0.000174865
6.86867e-005
1.77299e-005
3.36949e-006
6.55595e-007
2.21639e-007
1.58754e-007
1.42925e-007
1.36665e-007
1.37118e-007
1.41344e-007
0.0827414
0.0550215
0.0374778
0.0261382
0.0186238
0.0135251
0.00998683
0.00747816
0.00566293
0.00432385
0.00331786
0.00254912
0.00195235
0.00148247
0.00110799
0.000806761
0.000563268
0.000366933
0.000210923
9.42679e-005
2.87079e-005
6.32911e-006
1.27434e-006
3.5387e-007
2.03746e-007
1.8467e-007
1.79092e-007
1.73946e-007
1.69127e-007
0.0743425
0.0498532
0.0342453
0.0240904
0.0173162
0.0126885
0.00945472
0.00714556
0.0054624
0.00421137
0.00326423
0.00253468
0.00196369
0.0015103
0.00114577
0.000849752
0.000607899
0.000410261
0.000250257
0.000125468
4.48048e-005
1.1193e-005
2.42987e-006
6.11667e-007
2.69713e-007
2.11052e-007
2.05603e-007
2.04035e-007
2.02896e-007
0.0664017
0.0449271
0.0311386
0.0221052
0.0160369
0.0118621
0.00892351
0.00680962
0.00525707
0.0040941
0.00320659
0.00251731
0.00197328
0.00153753
0.00118397
0.000894092
0.000654718
0.000456625
0.000293651
0.000161944
6.78482e-005
2.0211e-005
4.73453e-006
1.13593e-006
3.97435e-007
2.53384e-007
2.27996e-007
2.24994e-007
2.23688e-007
0.0589545
0.0402661
0.0281726
0.0201919
0.0147916
0.0110489
0.0083947
0.00647079
0.00504675
0.0039715
0.00314419
0.0024962
0.00198034
0.00156346
0.00122208
0.000939398
0.000703422
0.000505692
0.000340456
0.000204393
9.78896e-005
3.42621e-005
9.16076e-006
2.23418e-006
6.59294e-007
3.25487e-007
2.56862e-007
2.4542e-007
2.44407e-007
0.0520266
0.0358889
0.0253599
0.0183589
0.0135856
0.010252
0.00786988
0.00612962
0.00483124
0.00384291
0.00307611
0.00247039
0.00198368
0.00158722
0.00125931
0.00098505
0.000753615
0.000557283
0.000390715
0.000250795
0.000136815
5.5843e-005
1.69911e-005
4.46484e-006
1.22378e-006
4.70168e-007
3.03461e-007
2.65886e-007
2.60649e-007
0.0456346
0.031809
0.0227111
0.0166137
0.0124238
0.00947481
0.00735081
0.0057868
0.00461049
0.00370768
0.00300131
0.00243841
0.00198197
0.00160715
0.00129423
0.00102981
0.000804236
0.000610562
0.000443913
0.000301293
0.000181044
8.77785e-005
3.11663e-005
8.91524e-006
2.44653e-006
7.88828e-007
3.90585e-007
3.00792e-007
2.76753e-007
0.039785
0.0280349
0.0202338
0.0149626
0.0113111
0.00872039
0.00683952
0.00544339
0.0043848
0.00356564
0.00291932
0.00239995
0.00197547
0.00162279
0.00132581
0.00107246
0.000854044
0.000664341
0.000498953
0.000355035
0.000230915
0.000127302
5.47305e-005
1.76439e-005
5.04744e-006
1.50843e-006
5.85221e-007
3.58274e-007
3.04038e-007
0.0344752
0.0245702
0.0179331
0.0134104
0.0102515
0.00799199
0.00633827
0.00510082
0.00415491
0.00341695
0.00282987
0.00235415
0.00196196
0.00163287
0.00135305
0.00111203
0.000902102
0.000717707
0.000554907
0.000411066
0.000284658
0.000175186
8.74336e-005
3.3784e-005
1.05006e-005
3.11261e-006
1.03858e-006
4.86353e-007
3.4522e-007
0.0296939
0.0214132
0.0158113
0.0119608
0.00924861
0.00729262
0.00584939
0.00476072
0.00392184
0.00326206
0.00273285
0.00230034
0.00194043
0.00163553
0.00137472
0.00114757
0.000947552
0.000769859
0.000611036
0.000468716
0.000341428
0.000228505
0.000131545
5.92638e-005
2.10855e-005
6.61004e-006
2.08284e-006
7.91169e-007
4.3426e-007
0.0254224
0.0185579
0.013868
0.0106157
0.00830515
0.00662495
0.00537512
0.00442481
0.00368672
0.0031016
0.00262847
0.00223857
0.00191136
0.00163196
0.00139035
0.00117813
0.000989386
0.000819841
0.000666454
0.000527149
0.000400637
0.000286075
0.000183785
9.84301e-005
4.05616e-005
1.39642e-005
4.47493e-006
1.51649e-006
6.48091e-007
0.021636
0.0159943
0.0121005
0.00937567
0.007423
0.0059912
0.00491757
0.00409481
0.00345084
0.00293641
0.00251722
0.00216907
0.00187465
0.00162154
0.00139969
0.00120318
0.00102676
0.000866624
0.000720056
0.000585205
0.000460948
0.000346711
0.000241972
0.000148498
7.40041e-005
2.8579e-005
9.78128e-006
3.24563e-006
1.16878e-006
0.0183054
0.0137093
0.0105039
0.00823989
0.00660324
0.00539319
0.00447863
0.00377242
0.00321556
0.00276744
0.00239961
0.00209184
0.00182952
0.00160187
0.00140014
0.00122106
0.00105838
0.000909005
0.000770641
0.000641672
0.000521107
0.00040851
0.000303881
0.000206768
0.000120658
5.60223e-005
2.09761e-005
7.22413e-006
2.44116e-006
0.0153981
0.0116873
0.00907148
0.00720634
0.00584616
0.00483224
0.00405999
0.00345928
0.00298227
0.00259577
0.00227635
0.00200722
0.00177618
0.00157421
0.00139448
0.00123217
0.00108368
0.000946049
0.000817124
0.000695423
0.000580021
0.000470505
0.000367044
0.000269897
0.000178517
9.86085e-005
4.28617e-005
1.59169e-005
5.43722e-006
0.0128795
0.00991095
0.0077951
0.00627191
0.0051513
0.00430922
0.00366305
0.00315692
0.00275238
0.00242255
0.00214829
0.00191578
0.0017149
0.00153817
0.00138007
0.00123448
0.00110147
0.000976736
0.000858497
0.000745437
0.000636689
0.000531824
0.000430939
0.000334602
0.000242988
0.000155751
8.11604e-005
3.38098e-005
1.22127e-005
0.010714
0.00836144
0.00666545
0.00543252
0.0045175
0.00382449
0.00328893
0.00286673
0.0025273
0.00224903
0.00201643
0.00181821
0.00164602
0.00149359
0.00135616
0.00122958
0.00111177
0.0010005
0.00089393
0.000790764
0.00069012
0.000591507
0.00049487
0.0004007
0.000309697
0.000221809
0.000137298
6.76296e-005
2.68249e-005
0.00886579
0.00701925
0.00567227
0.00468329
0.00394293
0.00337794
0.00293841
0.00258992
0.00230833
0.00207645
0.00188184
0.00171534
0.00157011
0.00144097
0.00132396
0.00121614
0.00111289
0.0010162
0.000922401
0.000830372
0.00073926
0.000648507
0.000557894
0.000467678
0.000378528
0.000291205
0.000205175
0.000122719
5.58586e-005
0.00729968
0.00586449
0.00480469
0.00401866
0.00342517
0.00296899
0.00261196
0.00232748
0.0020967
0.00190607
0.00174566
0.00160812
0.00148789
0.00138069
0.00128321
0.00119282
0.00110689
0.00102376
0.00094328
0.000863362
0.000783073
0.000701731
0.000618928
0.000534617
0.000449222
0.000363549
0.000277763
0.000193251
0.000108232
0.00598173
0.00487743
0.00405149
0.00343256
0.00296131
0.00259664
0.00230972
0.00208021
0.00189353
0.00173909
0.00160908
0.00149761
0.00140019
0.00131336
0.00123434
0.00116095
0.00109154
0.00102227
0.000955613
0.000888658
0.000820378
0.000749945
0.000676736
0.000600382
0.000520925
0.000438899
0.000354387
0.000270167
0.000181249
0.00487979
0.00403882
0.00340135
0.00291859
0.00254803
0.0022595
0.0020315
0.00184864
0.00169977
0.00157669
0.00147329
0.00138493
0.00130803
0.00123975
0.00117785
0.00112047
0.00106608
0.001013
0.000958653
0.000905316
0.000850029
0.000791864
0.000729983
0.000663686
0.000592544
0.000516644
0.000435721
0.000351866
0.000265152
0.00396393
0.0033303
0.00284313
0.00247021
0.00218172
0.00195587
0.00177684
0.0016331
0.00151623
0.00141995
0.00133951
0.00127131
0.0012125
0.00116084
0.00111448
0.00107191
0.00103183
0.000993218
0.000953465
0.000912702
0.000871014
0.000826213
0.000777255
0.000723106
0.000662824
0.000595872
0.000521592
0.000440188
0.000355506
0.00320682
0.00273467
0.00236613
0.0020809
0.0018586
0.00168381
0.00154501
0.00143369
0.00134355
0.00126982
0.00120889
0.00115796
0.00111483
0.00107772
0.00104518
0.00101599
0.000989068
0.000963518
0.000938466
0.000910478
0.000882414
0.000851699
0.000817021
0.000777019
0.000730258
0.000675437
0.000611375
0.000536265
0.000454104
0.00258386
0.00223611
0.00196024
0.0017443
0.00157487
0.00144121
0.00133509
0.0012503
0.00118218
0.00112717
0.00108252
0.00104612
0.00101628
0.00099165
0.000971094
0.000953667
0.000938521
0.000924928
0.000912149
0.000899135
0.000882803
0.000866845
0.000847564
0.000823511
0.000792938
0.000753804
0.00070414
0.000640357
0.000563849
0.00207332
0.00182035
0.0016161
0.00145438
0.00132673
0.00122587
0.00114599
0.00108265
0.00103242
0.000992684
0.000961403
0.000936992
0.000918188
0.000903985
0.000893532
0.000886174
0.000881212
0.000878214
0.000876606
0.000875958
0.000874495
0.000870975
0.000867468
0.000860622
0.000848528
0.000828541
0.000798072
0.000751746
0.000687047
0.00165629
0.0014747
0.00132526
0.00120552
0.00111056
0.00103557
0.000976537
0.000930308
0.000894422
0.00086697
0.000846472
0.000831766
0.000821917
0.00081623
0.00081405
0.000815073
0.000818541
0.000824706
0.000832867
0.000842827
0.000854423
0.000865185
0.000875916
0.000886755
0.000894527
0.000894944
0.000889037
0.000868991
0.000825496
0.00131653
0.00118807
0.00108011
0.00099258
0.000922948
0.000868157
0.000825507
0.000792799
0.000768286
0.000750602
0.000738701
0.000731754
0.000729041
0.000730194
0.000734521
0.000742467
0.000753184
0.00076681
0.000783197
0.000802329
0.000824293
0.000848875
0.000873943
0.000901748
0.000930278
0.000955816
0.00097843
0.000982928
0.000969904
0.00104032
0.0009509
0.000874013
0.000810932
0.000760746
0.000721619
0.000691783
0.00066974
0.000654253
0.000644354
0.000639353
0.000638665
0.000641485
0.00064817
0.000658261
0.000671732
0.000688391
0.000708368
0.000731786
0.00075891
0.000790047
0.000825602
0.000865767
0.000909487
0.000958265
0.00100855
0.00106299
0.00110469
0.00112589
0.000816158
0.000755047
0.000701185
0.000656523
0.000621212
0.000594266
0.000574584
0.000561163
0.000553081
0.000549638
0.000550441
0.00055468
0.000562766
0.000574313
0.000589322
0.000607894
0.000630039
0.000656071
0.000686269
0.000721308
0.000761446
0.000808321
0.00086233
0.000922726
0.000991332
0.00106499
0.00115432
0.00123179
0.00131214
0.000634585
0.0005937
0.000556764
0.000525974
0.000502197
0.00048507
0.000473932
0.000468103
0.000466765
0.000469253
0.000475413
0.00048496
0.000497938
0.000514532
0.000534912
0.0005594
0.000588089
0.000621798
0.000660759
0.00070657
0.000758638
0.000819317
0.000886606
0.000967738
0.00106161
0.00116607
0.00129995
0.00141021
0.00158039
0.000487976
0.000461361
0.00043691
0.00041684
0.000402579
0.00039428
0.000391477
0.000393586
0.000399481
0.000408963
0.000421473
0.000437117
0.000456249
0.00047975
0.000507997
0.000541887
0.000581523
0.000628366
0.000680899
0.000744107
0.000814265
0.000903193
0.000998071
0.00112341
0.00125843
0.00142263
0.00163439
0.00180031
0.00214857
0.000370548
0.000353985
0.000339102
0.000328103
0.000322964
0.000324335
0.000331538
0.000344224
0.000360396
0.000379788
0.000401856
0.000427157
0.000456702
0.000491913
0.0005339
0.000585283
0.00064607
0.000721742
0.000809547
0.000922662
0.00104652
0.00122046
0.00139329
0.00166363
0.00190964
0.00229026
0.00269174
0.00308187
0.0039138
0.000278557
0.000269324
0.000262622
0.000260763
0.000266299
0.000280456
0.000303052
0.000332712
0.000366885
0.000404184
0.000444444
0.000489116
0.00054061
0.000604754
0.000684319
0.000787254
0.000914379
0.00108371
0.00128813
0.00157528
0.00190039
0.00240621
0.00290872
0.00381531
0.00456699
0.00609845
0.00728283
0.00946749
0.012096
0.000210525
0.000207163
0.000208703
0.00021759
0.00023777
0.000271469
0.000319296
0.000380592
0.000453165
0.000536117
0.000628317
0.000733139
0.000857218
0.00101747
0.00122599
0.00151191
0.00188686
0.00241543
0.00309521
0.0040897
0.00531936
0.00721888
0.00938198
0.0130232
0.0166705
0.0236466
0.0299559
0.04375
0.056293
0.000166673
0.000168581
0.000179324
0.000202153
0.000242875
0.000306535
0.000399451
0.000527203
0.000692636
0.000899855
0.00115126
0.00145795
0.00184125
0.00235063
0.00303433
0.00398333
0.00526796
0.00706406
0.00946736
0.0128255
0.017265
0.0235056
0.0316517
0.0433143
0.0584603
0.0813195
0.111572
0.16359
0.227293
0.000147224
0.000154052
0.000175718
0.000215988
0.000284922
0.000394697
0.000563159
0.00081306
0.00116898
0.00166084
0.00231579
0.00317664
0.00430911
0.00582912
0.00787415
0.0106469
0.0143882
0.0194477
0.0262775
0.0354323
0.0478917
0.0644489
0.087576
0.118022
0.163498
0.222924
0.325859
0.456498
0.697056
0.00151969
0.00151969
0.00151969
0.00151969
0.00151969
0.00151969
0.00151969
0.00151969
0.00151969
0.00151969
0.00151969
0.00151969
0.00151969
0.00151969
0.00151969
0.0015197
0.0015197
0.0015197
0.0015197
0.0015197
0.0015197
0.0015197
0.0015197
0.0015197
0.0015197
0.0015197
0.0015197
0.0015197
0.0015197
0.0015197
0.0015197
0.0015197
0.0015197
0.0015197
0.0015197
0.0015197
0.0015197
0.0015197
0.0015197
0.0015197
0.0015197
0.0015197
0.0015197
0.0015197
0.0015197
0.0015197
0.0015197
0.0015197
0.0015197
0.0015197
0.0015197
0.0015197
0.0015197
0.0015197
0.0015197
0.0015197
0.0015197
0.0015197
0.0015197
0.0015197
0.0015197
0.0015197
0.0015197
0.0015197
0.0015197
0.0015197
0.00151971
0.00151971
0.00151971
0.00151971
0.00151971
0.00151971
0.00151971
0.00151971
0.00151971
0.00151971
0.00151971
0.00151971
0.00151971
0.00151971
0.00151971
0.00151971
0.00151971
0.00151971
0.00151971
0.00151971
0.00151971
0.00151971
0.00151971
0.00151971
0.00151971
0.00151971
0.00151971
0.00151971
0.00151971
0.00151971
0.00151971
0.00151971
0.00151971
0.00151971
0.00151971
0.00151971
0.00151971
0.00151971
0.00151971
0.00151971
0.00151971
0.00151971
0.00151971
0.00151971
0.00151971
0.00151971
0.00151971
0.00151971
0.00151971
0.00151971
0.0015197
0.0015197
0.0015197
0.0015197
0.00151971
0.00151971
0.00151971
0.00151971
0.00151971
0.00151971
0.00151971
0.00151971
0.00151971
0.00151971
0.00151971
0.00151971
0.00151971
0.00151971
0.00151971
0.00151972
0.00151972
0.00151973
0.00154205
3.28164e-005
3.28168e-005
3.28172e-005
3.28177e-005
3.28179e-005
3.2818e-005
3.28184e-005
3.28189e-005
3.28194e-005
3.28195e-005
3.28196e-005
3.28198e-005
3.28203e-005
3.28211e-005
3.28217e-005
3.28222e-005
3.28226e-005
3.28231e-005
3.28234e-005
3.28237e-005
3.28239e-005
3.28241e-005
3.28243e-005
3.28245e-005
3.28247e-005
3.2825e-005
3.28253e-005
3.28256e-005
3.28259e-005
3.28263e-005
3.28266e-005
3.28269e-005
3.28273e-005
3.28276e-005
3.28279e-005
3.28281e-005
3.28283e-005
3.28286e-005
3.28288e-005
3.28291e-005
3.28293e-005
3.28296e-005
3.28298e-005
3.28301e-005
3.28303e-005
3.28305e-005
3.28308e-005
3.2831e-005
3.28312e-005
3.28314e-005
3.28316e-005
3.28318e-005
3.2832e-005
3.28323e-005
3.28325e-005
3.28327e-005
3.28329e-005
3.28332e-005
3.28334e-005
3.28336e-005
3.28339e-005
3.28341e-005
3.28343e-005
3.28345e-005
3.28346e-005
3.28348e-005
3.2835e-005
3.28352e-005
3.28354e-005
3.28356e-005
3.28358e-005
3.28359e-005
3.28361e-005
3.28363e-005
3.28365e-005
3.28366e-005
3.28368e-005
3.28369e-005
3.28371e-005
3.28372e-005
3.28374e-005
3.28375e-005
3.28376e-005
3.28377e-005
3.28378e-005
3.28379e-005
3.28379e-005
3.28379e-005
3.2838e-005
3.28382e-005
3.28383e-005
3.28385e-005
3.28386e-005
3.28386e-005
3.28387e-005
3.28387e-005
3.28387e-005
3.28387e-005
3.28387e-005
3.28386e-005
3.28385e-005
3.28384e-005
3.28383e-005
3.28382e-005
3.28381e-005
3.28379e-005
3.28378e-005
3.28377e-005
3.28375e-005
3.28373e-005
3.28371e-005
3.28369e-005
3.28366e-005
3.28363e-005
3.28359e-005
3.28355e-005
3.28351e-005
3.28348e-005
3.28349e-005
3.28351e-005
3.28354e-005
3.28358e-005
3.28361e-005
3.28365e-005
3.28367e-005
3.28372e-005
3.28372e-005
3.28379e-005
3.28381e-005
3.28386e-005
3.284e-005
3.28405e-005
3.28419e-005
3.28453e-005
3.28439e-005
3.28485e-005
3.28633e-005
3.28607e-005
3.37055e-005
1.42053e-006
1.42066e-006
1.42075e-006
1.42083e-006
1.42091e-006
1.42101e-006
1.42109e-006
1.42115e-006
1.4212e-006
1.42126e-006
1.42134e-006
1.42142e-006
1.42148e-006
1.42152e-006
1.42156e-006
1.42161e-006
1.42166e-006
1.42172e-006
1.42177e-006
1.42183e-006
1.42189e-006
1.42196e-006
1.42203e-006
1.4221e-006
1.42217e-006
1.42224e-006
1.4223e-006
1.42236e-006
1.42242e-006
1.42248e-006
1.42254e-006
1.4226e-006
1.42266e-006
1.42272e-006
1.42278e-006
1.42283e-006
1.42288e-006
1.42293e-006
1.42298e-006
1.42303e-006
1.42308e-006
1.42313e-006
1.42318e-006
1.42323e-006
1.42328e-006
1.42333e-006
1.42338e-006
1.42343e-006
1.42348e-006
1.42353e-006
1.42358e-006
1.42362e-006
1.42367e-006
1.42372e-006
1.42376e-006
1.4238e-006
1.42385e-006
1.42389e-006
1.42393e-006
1.42396e-006
1.424e-006
1.42404e-006
1.42408e-006
1.42412e-006
1.42415e-006
1.42419e-006
1.42423e-006
1.42426e-006
1.4243e-006
1.42433e-006
1.42437e-006
1.4244e-006
1.42443e-006
1.42446e-006
1.42449e-006
1.42452e-006
1.42455e-006
1.42457e-006
1.4246e-006
1.42462e-006
1.42464e-006
1.42466e-006
1.42468e-006
1.4247e-006
1.42472e-006
1.42474e-006
1.42475e-006
1.42476e-006
1.42478e-006
1.42481e-006
1.42484e-006
1.42487e-006
1.42489e-006
1.42491e-006
1.42493e-006
1.42495e-006
1.42497e-006
1.42498e-006
1.42499e-006
1.425e-006
1.42501e-006
1.42501e-006
1.42501e-006
1.425e-006
1.425e-006
1.42499e-006
1.42497e-006
1.42495e-006
1.42493e-006
1.4249e-006
1.42487e-006
1.42483e-006
1.42479e-006
1.42474e-006
1.42468e-006
1.42463e-006
1.42458e-006
1.42455e-006
1.42454e-006
1.42453e-006
1.42451e-006
1.4245e-006
1.42444e-006
1.42444e-006
1.42435e-006
1.42435e-006
1.42428e-006
1.42422e-006
1.42422e-006
1.42421e-006
1.42419e-006
1.42439e-006
1.4241e-006
1.42454e-006
1.42536e-006
1.42644e-006
1.33422e-006
1.34596e-006
8.95323e-006
1.20024e-007
1.20041e-007
1.20056e-007
1.20072e-007
1.20086e-007
1.20096e-007
1.20107e-007
1.20121e-007
1.20135e-007
1.20147e-007
1.20156e-007
1.20164e-007
1.20175e-007
1.2019e-007
1.20205e-007
1.20218e-007
1.2023e-007
1.20242e-007
1.20254e-007
1.20265e-007
1.20276e-007
1.20287e-007
1.20297e-007
1.20307e-007
1.20318e-007
1.20329e-007
1.2034e-007
1.20353e-007
1.20365e-007
1.20378e-007
1.20391e-007
1.20404e-007
1.20417e-007
1.2043e-007
1.20443e-007
1.20456e-007
1.20468e-007
1.20481e-007
1.20493e-007
1.20505e-007
1.20517e-007
1.20529e-007
1.20541e-007
1.20553e-007
1.20565e-007
1.20577e-007
1.20588e-007
1.206e-007
1.20611e-007
1.20622e-007
1.20633e-007
1.20644e-007
1.20654e-007
1.20665e-007
1.20675e-007
1.20685e-007
1.20695e-007
1.20705e-007
1.20714e-007
1.20724e-007
1.20734e-007
1.20744e-007
1.20754e-007
1.20763e-007
1.20773e-007
1.20782e-007
1.20792e-007
1.20801e-007
1.2081e-007
1.20818e-007
1.20827e-007
1.20835e-007
1.20843e-007
1.20851e-007
1.20859e-007
1.20867e-007
1.20874e-007
1.20881e-007
1.20888e-007
1.20895e-007
1.20901e-007
1.20907e-007
1.20913e-007
1.20919e-007
1.20924e-007
1.20929e-007
1.20934e-007
1.20938e-007
1.20942e-007
1.20947e-007
1.20952e-007
1.20957e-007
1.20962e-007
1.20966e-007
1.20971e-007
1.20975e-007
1.20979e-007
1.20982e-007
1.20986e-007
1.20988e-007
1.20991e-007
1.20992e-007
1.20993e-007
1.20994e-007
1.20994e-007
1.20993e-007
1.20991e-007
1.20989e-007
1.20986e-007
1.20982e-007
1.20976e-007
1.20969e-007
1.20961e-007
1.20952e-007
1.20942e-007
1.2093e-007
1.20919e-007
1.20909e-007
1.20899e-007
1.2089e-007
1.20879e-007
1.20868e-007
1.20852e-007
1.20841e-007
1.20819e-007
1.20803e-007
1.20785e-007
1.20767e-007
1.20737e-007
1.20756e-007
1.2076e-007
1.20509e-007
1.20762e-007
1.21515e-007
1.17621e-007
1.10234e-007
3.87243e-007
4.15421e-005
0.00353369
1.85206e-008
1.85247e-008
1.8528e-008
1.85305e-008
1.85332e-008
1.85365e-008
1.85399e-008
1.85424e-008
1.85445e-008
1.85468e-008
1.85499e-008
1.85536e-008
1.85565e-008
1.8559e-008
1.85613e-008
1.85638e-008
1.85666e-008
1.85694e-008
1.85724e-008
1.85755e-008
1.85786e-008
1.85819e-008
1.85854e-008
1.85891e-008
1.85929e-008
1.85967e-008
1.86004e-008
1.8604e-008
1.86077e-008
1.86113e-008
1.8615e-008
1.86187e-008
1.86224e-008
1.86262e-008
1.86299e-008
1.86337e-008
1.86376e-008
1.86414e-008
1.86452e-008
1.86491e-008
1.86529e-008
1.86566e-008
1.86604e-008
1.86641e-008
1.86678e-008
1.86715e-008
1.86752e-008
1.86788e-008
1.86824e-008
1.86859e-008
1.86895e-008
1.8693e-008
1.86964e-008
1.86998e-008
1.87032e-008
1.87066e-008
1.87099e-008
1.87132e-008
1.87165e-008
1.87197e-008
1.8723e-008
1.87263e-008
1.87295e-008
1.87327e-008
1.87358e-008
1.87389e-008
1.87419e-008
1.87448e-008
1.87477e-008
1.87505e-008
1.87533e-008
1.87561e-008
1.87587e-008
1.87614e-008
1.87639e-008
1.87664e-008
1.87689e-008
1.87713e-008
1.87736e-008
1.87759e-008
1.87781e-008
1.87802e-008
1.87823e-008
1.87842e-008
1.87861e-008
1.8788e-008
1.87897e-008
1.87914e-008
1.87929e-008
1.87943e-008
1.87958e-008
1.87971e-008
1.87984e-008
1.87997e-008
1.88009e-008
1.88021e-008
1.88031e-008
1.88041e-008
1.8805e-008
1.88058e-008
1.88065e-008
1.88071e-008
1.88075e-008
1.88078e-008
1.88079e-008
1.88079e-008
1.88077e-008
1.88073e-008
1.88067e-008
1.88059e-008
1.88048e-008
1.88033e-008
1.88013e-008
1.87989e-008
1.87962e-008
1.87932e-008
1.87901e-008
1.87868e-008
1.87836e-008
1.87803e-008
1.87768e-008
1.87728e-008
1.87681e-008
1.87633e-008
1.87573e-008
1.87511e-008
1.87441e-008
1.87373e-008
1.87312e-008
1.87147e-008
1.86542e-008
1.90253e-008
1.87772e-008
1.64537e-008
2.19697e-008
2.84767e-007
2.64542e-005
0.00154838
0.0246348
4.683e-009
4.68399e-009
4.68485e-009
4.6859e-009
4.68697e-009
4.68779e-009
4.6885e-009
4.68937e-009
4.69056e-009
4.69171e-009
4.69263e-009
4.69336e-009
4.69418e-009
4.69525e-009
4.69661e-009
4.69783e-009
4.69901e-009
4.70018e-009
4.70138e-009
4.7026e-009
4.70385e-009
4.70511e-009
4.70637e-009
4.70761e-009
4.70881e-009
4.71004e-009
4.71132e-009
4.71265e-009
4.71403e-009
4.71543e-009
4.71686e-009
4.71829e-009
4.71973e-009
4.72116e-009
4.72261e-009