/*--------------------------------*- C++ -*----------------------------------*\
| =========                 |                                                 |
| \\      /  F ield         | OpenFOAM: The Open Source CFD Toolbox           |
|  \\    /   O peration     | Version:  5.x                                   |
|   \\  /    A nd           | Web:      www.OpenFOAM.org                      |
|    \\/     M anipulation  |                                                 |
\*---------------------------------------------------------------------------*/
/*   Windows 32 and 64 bit porting by blueCAPE: http://www.bluecape.com.pt   *\
|  Based on Windows porting (2.0.x v4) by Symscape: http://www.symscape.com   |
\*---------------------------------------------------------------------------*/
FoamFile
{
    version     2.0;
    format      ascii;
    class       volScalarField;
    location    "200";
    object      k;
}
// * * * * * * * * * * * * * * * * * * * * * * * * * * * * * * * * * * * * * //

dimensions      [0 2 -2 0 0 0 0];

internalField   nonuniform List<scalar> 
43900
(
0.000985503
0.000989447
0.000990251
0.00099018
0.000990129
0.000990119
0.000990121
0.000990116
0.000990117
0.000990119
0.000990121
0.000990124
0.000990126
0.000990128
0.00099013
0.000990132
0.000990133
0.000990134
0.000990135
0.000990136
0.000990137
0.000990137
0.000990138
0.000990138
0.000990138
0.000990139
0.000990139
0.000990139
0.000990139
0.00164026
5.58094e-005
3.89315e-005
3.8174e-005
4.08199e-005
4.09739e-005
4.09898e-005
4.09502e-005
4.09497e-005
4.0953e-005
4.09559e-005
4.09606e-005
4.09643e-005
4.09679e-005
4.09711e-005
4.0974e-005
4.09764e-005
4.09789e-005
4.09805e-005
4.09817e-005
4.09829e-005
4.09838e-005
4.09847e-005
4.09855e-005
4.09861e-005
4.09868e-005
4.09874e-005
4.09877e-005
4.09881e-005
0.293889
0.0537488
0.00405121
0.000115487
4.94008e-006
3.08376e-006
2.97844e-006
3.34636e-006
3.38153e-006
3.37303e-006
3.36914e-006
3.37048e-006
3.37234e-006
3.37331e-006
3.37409e-006
3.37489e-006
3.37563e-006
3.37625e-006
3.37679e-006
3.37726e-006
3.37767e-006
3.37807e-006
3.37843e-006
3.37874e-006
3.37905e-006
3.37932e-006
3.37956e-006
3.37981e-006
3.37998e-006
0.879256
0.375847
0.119516
0.0236082
0.00203511
7.92002e-005
3.85781e-006
5.8141e-007
4.54165e-007
5.08139e-007
5.35856e-007
5.33859e-007
5.29852e-007
5.30617e-007
5.31572e-007
5.31687e-007
5.3177e-007
5.31908e-007
5.32039e-007
5.32161e-007
5.32279e-007
5.32383e-007
5.3248e-007
5.32572e-007
5.32649e-007
5.32725e-007
5.32797e-007
5.32858e-007
5.32909e-007
1.29049
0.739218
0.39455
0.176183
0.0556761
0.0100504
0.000769663
3.31946e-005
1.47057e-006
2.04015e-007
1.25574e-007
1.35747e-007
1.49585e-007
1.4724e-007
1.44768e-007
1.45248e-007
1.45629e-007
1.45681e-007
1.45716e-007
1.45752e-007
1.45785e-007
1.4582e-007
1.45851e-007
1.45876e-007
1.45903e-007
1.45928e-007
1.45949e-007
1.45973e-007
1.4599e-007
1.5446
0.981151
0.613658
0.366865
0.196043
0.0805016
0.021669
0.0028642
0.000169742
7.65976e-006
3.97893e-007
7.72688e-008
5.16255e-008
5.85067e-008
6.3087e-008
6.11109e-008
6.02695e-008
6.035e-008
6.04029e-008
6.04185e-008
6.04315e-008
6.04443e-008
6.04553e-008
6.04657e-008
6.04755e-008
6.04867e-008
6.04968e-008
6.0505e-008
6.05121e-008
1.7171
1.15359
0.775424
0.515033
0.331018
0.198051
0.099352
0.0338126
0.00645291
0.000535193
2.68495e-005
1.28706e-006
9.56124e-008
3.3736e-008
2.8452e-008
3.37232e-008
3.4576e-008
3.4088e-008
3.39958e-008
3.40025e-008
3.40092e-008
3.40149e-008
3.40203e-008
3.40242e-008
3.40312e-008
3.40387e-008
3.40426e-008
3.40476e-008
3.40517e-008
1.80843
1.25381
0.874861
0.609885
0.420156
0.281154
0.177148
0.0985424
0.039771
0.00939867
0.00098598
5.45446e-005
2.69159e-006
1.5362e-007
3.06126e-008
1.9367e-008
2.0585e-008
2.21198e-008
2.20679e-008
2.2011e-008
2.20081e-008
2.20138e-008
2.20171e-008
2.2021e-008
2.2024e-008
2.20245e-008
2.20288e-008
2.20361e-008
2.20396e-008
1.87836
1.33365
0.955446
0.687265
0.492952
0.34916
0.240587
0.15716
0.0922836
0.0416667
0.0111867
0.00141128
8.98127e-005
4.82734e-006
2.74256e-007
2.98112e-008
1.492e-008
1.32775e-008
1.40636e-008
1.43129e-008
1.43362e-008
1.4342e-008
1.43459e-008
1.43511e-008
1.43532e-008
1.43535e-008
1.4357e-008
1.43627e-008
1.43663e-008
1.90521
1.37488
1.00332
0.737594
0.543541
0.398893
0.28889
0.203627
0.136415
0.0827748
0.0400708
0.0115284
0.00160408
0.000112459
6.50941e-006
3.82958e-007
3.32567e-008
1.30076e-008
1.06317e-008
1.04828e-008
1.05137e-008
1.0521e-008
1.05226e-008
1.05246e-008
1.05264e-008
1.05292e-008
1.0532e-008
1.05349e-008
1.05371e-008
1.90753
1.3926
1.02922
0.767834
0.576031
0.432498
0.322972
0.237775
0.170281
0.115953
0.0717757
0.0360785
0.0106406
0.00153217
0.000114612
7.11194e-006
4.41357e-007
3.63909e-008
1.16108e-008
9.8892e-009
9.69617e-009
9.67901e-009
9.67897e-009
9.67903e-009
9.67932e-009
9.68063e-009
9.68325e-009
9.6844e-009
9.68665e-009
1.89871
1.39931
1.0446
0.787979
0.598794
0.456712
0.348024
0.263336
0.196142
0.141911
0.0975129
0.0608847
0.0309372
0.00896785
0.001262
9.72768e-005
6.38826e-006
4.16858e-007
3.52959e-008
1.12861e-008
9.79844e-009
9.70755e-009
9.70348e-009
9.7035e-009
9.70361e-009
9.70449e-009
9.7068e-009
9.70788e-009
9.71e-009
1.87621
1.39385
1.04879
0.798112
0.612577
0.472768
0.365532
0.281826
0.215335
0.161615
0.117533
0.0809117
0.0503337
0.0251209
0.0068103
0.000881343
6.74834e-005
4.58015e-006
3.11585e-007
2.94834e-008
1.12377e-008
1.00826e-008
1.0012e-008
1.00091e-008
1.00091e-008
1.00097e-008
1.00101e-008
1.00104e-008
1.00114e-008
1.84144
1.37742
1.0437
0.799583
0.618449
0.481636
0.376484
0.294262
0.228876
0.176005
0.13257
0.0963817
0.065924
0.0402339
0.0189091
0.0044893
0.000504821
3.77077e-005
2.61013e-006
1.86275e-007
2.2851e-008
1.19971e-008
1.12893e-008
1.12409e-008
1.12379e-008
1.12381e-008
1.12265e-008
1.1224e-008
1.12241e-008
1.79733
1.35165
1.03031
0.794513
0.618245
0.484838
0.382196
0.301826
0.237826
0.186024
0.14343
0.107893
0.0778815
0.0523482
0.0306705
0.0126071
0.00241362
0.000230955
1.70195e-005
1.21505e-006
9.84424e-008
2.08957e-008
1.56016e-008
1.52224e-008
1.51736e-008
1.51623e-008
1.51168e-008
1.51029e-008
1.5103e-008
1.74608
1.3191
1.01021
0.783171
0.613346
0.483822
0.383806
0.305495
0.24308
0.19251
0.150896
0.116145
0.0867475
0.0616332
0.0400958
0.0217851
0.0069908
0.00101251
8.68054e-005
6.56689e-006
5.058e-007
6.11609e-008
2.9072e-008
2.67284e-008
2.64382e-008
2.63174e-008
2.61871e-008
2.61286e-008
2.61292e-008
1.6896
1.28159
0.985511
0.76728
0.603733
0.479149
0.382415
0.306234
0.245551
0.196345
0.155812
0.121932
0.0932323
0.0686522
0.0474577
0.0292097
0.0137163
0.00308779
0.000346603
2.89624e-005
2.32859e-006
2.32034e-007
7.00842e-008
5.75862e-008
5.6291e-008
5.56753e-008
5.53781e-008
5.51089e-008
5.49738e-008
1.6293
1.24046
0.957515
0.748436
0.591363
0.471446
0.378429
0.304961
0.246008
0.198231
0.158829
0.12584
0.0978491
0.073827
0.0530429
0.0350181
0.0195174
0.00699588
0.00110386
0.00010677
9.22958e-006
8.86432e-007
1.93493e-007
1.36718e-007
1.31141e-007
1.28847e-007
1.2804e-007
1.27096e-007
1.26453e-007
1.56629
1.19677
0.927159
0.72745
0.577058
0.461973
0.372503
0.301849
0.245077
0.198711
0.160461
0.128394
0.101137
0.0776898
0.0573346
0.0395834
0.0241729
0.0110546
0.00264536
0.000319448
3.05838e-005
3.03547e-006
5.53108e-007
3.33856e-007
3.12803e-007
3.05587e-007
3.02767e-007
2.99595e-007
2.9692e-007
1.50136
1.15126
0.895145
0.704973
0.561413
0.451286
0.365459
0.297519
0.242896
0.19823
0.161171
0.130027
0.103492
0.0806122
0.0606941
0.0432524
0.0279936
0.0147596
0.00477536
0.000762284
8.37738e-005
8.98269e-006
1.54185e-006
8.245e-007
7.49938e-007
7.26883e-007
7.16146e-007
7.07845e-007
7.02413e-007
1.435
1.10443
0.861949
0.681451
0.544848
0.439784
0.357686
0.292519
0.239983
0.196971
0.161149
0.130991
0.105219
0.0829257
0.0634475
0.0463144
0.0312229
0.0180092
0.00714382
0.0015387
0.00020325
2.41413e-005
4.186e-006
2.05521e-006
1.82892e-006
1.77447e-006
1.73328e-006
1.69319e-006
1.6742e-006
1.36759
1.05663
0.827886
0.657169
0.527623
0.427711
0.349416
0.287085
0.236687
0.195308
0.160825
0.131627
0.106602
0.0848892
0.0658531
0.0490376
0.0341361
0.0209823
0.00966633
0.00257084
0.000408346
5.58377e-005
1.05998e-005
5.26632e-006
4.51324e-006
4.35207e-006
4.30915e-006
4.35603e-006
4.32911e-006
1.29948
1.00814
0.79319
0.632328
0.509913
0.415224
0.340793
0.281352
0.233132
0.193409
0.16019
0.131998
0.107748
0.0866309
0.0680461
0.0515573
0.036866
0.0238062
0.0123054
0.00405655
0.000807737
0.000126829
2.60513e-005
1.33044e-005
1.19696e-005
1.15695e-005
1.09082e-005
1.03252e-005
1.03394e-005
1.23097
0.959193
0.758044
0.60707
0.491836
0.402422
0.33191
0.275407
0.229411
0.191382
0.159464
0.132283
0.108818
0.0883059
0.0701806
0.054026
0.0395517
0.0265848
0.0150092
0.0057769
0.00134049
0.000239411
5.11792e-005
2.31367e-005
1.86657e-005
1.86379e-005
1.91386e-005
1.91197e-005
1.86145e-005
1.16236
0.909993
0.722586
0.581493
0.473459
0.389357
0.322805
0.269285
0.225553
0.18926
0.158679
0.132535
0.109876
0.0899886
0.0723419
0.0565431
0.0423147
0.0294818
0.0179244
0.00807555
0.00230316
0.000461596
9.57308e-005
3.69295e-005
2.82629e-005
2.59705e-005
2.49755e-005
2.49911e-005
2.54921e-005
1.09394
0.860736
0.686941
0.555671
0.454824
0.376045
0.31348
0.262976
0.221548
0.187027
0.157819
0.132743
0.110916
0.0916756
0.0745254
0.0590964
0.0451245
0.0324367
0.020929
0.0106869
0.00363462
0.000853051
0.000182156
5.62953e-005
3.57634e-005
3.31528e-005
3.22904e-005
3.15971e-005
3.08236e-005
1.02605
0.811636
0.651244
0.529684
0.43597
0.362499
0.30393
0.256467
0.217375
0.184662
0.156865
0.132895
0.111935
0.093375
0.0767523
0.0617228
0.0480359
0.0355213
0.0240775
0.0136687
0.00549309
0.00147541
0.000335399
9.19227e-005
4.59116e-005
3.79643e-005
3.71957e-005
3.69538e-005
3.67254e-005
0.959028
0.762917
0.615636
0.503615
0.416942
0.348736
0.294154
0.249744
0.213012
0.182142
0.155792
0.132956
0.112912
0.0950721
0.0790134
0.0644184
0.0510533
0.0387547
0.0274226
0.0169553
0.00798884
0.00258775
0.000636194
0.000162711
6.39283e-005
4.47148e-005
4.119e-005
4.08094e-005
4.05969e-005
0.893211
0.714801
0.580262
0.477554
0.397787
0.334776
0.284151
0.242791
0.208436
0.179435
0.154563
0.132905
0.11381
0.0967354
0.081286
0.067167
0.0541615
0.0421162
0.0309342
0.020558
0.0110657
0.00426013
0.00120615
0.000308258
9.96979e-005
5.51855e-005
4.59841e-005
4.43106e-005
4.4174e-005
0.828914
0.667504
0.545264
0.451587
0.378555
0.320637
0.273919
0.235591
0.203618
0.176506
0.15315
0.132723
0.114608
0.0983315
0.0835316
0.069934
0.0573349
0.0455886
0.0345998
0.0243248
0.0147468
0.00669955
0.00218279
0.000597006
0.000174419
7.48387e-005
5.28337e-005
4.78063e-005
4.69653e-005
0.766429
0.62123
0.510781
0.425805
0.359297
0.306345
0.263458
0.228128
0.198528
0.173319
0.151503
0.132338
0.115247
0.0998107
0.0857003
0.0726658
0.0605191
0.0491227
0.0383828
0.0282524
0.0186772
0.0100229
0.00388213
0.00116217
0.000333007
0.000116842
6.45163e-005
5.28621e-005
4.96628e-005
0.70602
0.57617
0.476946
0.400299
0.340071
0.291928
0.252778
0.220393
0.193146
0.169837
0.149574
0.131685
0.115658
0.101105
0.0877289
0.075302
0.063653
0.0526551
0.0422195
0.0322943
0.022841
0.0138754
0.00651707
0.00224285
0.000665452
0.000210067
9.01132e-005
6.05112e-005
5.35842e-005
0.647916
0.532497
0.443887
0.37516
0.320937
0.277423
0.241896
0.212387
0.187456
0.166036
0.147329
0.130729
0.115765
0.102147
0.0895561
0.0777884
0.0666876
0.0561383
0.0460586
0.0363962
0.0271221
0.0181966
0.00997068
0.00413844
0.0013431
0.000414722
0.000148669
7.72641e-005
5.9018e-005
0.592311
0.490363
0.411723
0.350474
0.301958
0.26287
0.230833
0.204117
0.181453
0.161898
0.144744
0.12945
0.115606
0.102924
0.0911446
0.0800748
0.0695702
0.059523
0.0498558
0.0405171
0.0314772
0.0227081
0.0142607
0.00699886
0.00262944
0.000852057
0.000281541
0.000116428
7.05837e-005
0.539358
0.449899
0.380558
0.326326
0.283197
0.248315
0.219617
0.195594
0.175137
0.157415
0.141804
0.12783
0.115139
0.103417
0.0924745
0.0821361
0.072268
0.0627693
0.053567
0.0446117
0.035873
0.027326
0.0189522
0.0110436
0.00489746
0.00174828
0.000579725
0.000208176
9.78432e-005
0.489177
0.411215
0.350488
0.302793
0.264714
0.233802
0.208278
0.186836
0.168511
0.152577
0.138486
0.125819
0.114249
0.10349
0.0934457
0.0838919
0.0747117
0.0658139
0.057131
0.0486162
0.0402413
0.0319891
0.0238282
0.015793
0.00851624
0.00347592
0.00122543
0.000422297
0.000163156
0.441855
0.374402
0.321597
0.27995
0.246572
0.219379
0.196851
0.177864
0.161584
0.147381
0.134776
0.1234
0.112965
0.103242
0.0940751
0.0853182
0.0768552
0.0685989
0.0604836
0.0524625
0.0445066
0.0366027
0.0287444
0.0208843
0.0131573
0.00656845
0.00255463
0.000905667
0.000319829
0.397451
0.339532
0.293959
0.257865
0.22883
0.205097
0.185374
0.168704
0.15437
0.14183
0.130666
0.120559
0.111256
0.102568
0.0942586
0.0863391
0.078634
0.0710633
0.0635644
0.0560905
0.0486107
0.0411097
0.0335897
0.0260455
0.0184099
0.0109756
0.00508163
0.00194097
0.000682278
0.355995
0.306659
0.267638
0.236604
0.211549
0.191007
0.17389
0.159389
0.146891
0.135934
0.126156
0.11728
0.109082
0.101385
0.094028
0.0869402
0.0800117
0.0731594
0.0663202
0.0594452
0.0524996
0.0454631
0.0383335
0.0311224
0.0238127
0.0163331
0.00916861
0.00399303
0.00148185
0.317494
0.275822
0.242688
0.216224
0.194787
0.177163
0.162445
0.149955
0.139175
0.12971
0.121253
0.113561
0.106441
0.0997395
0.0933363
0.0870317
0.0809188
0.074825
0.0686909
0.0624674
0.0561161
0.0496107
0.0429396
0.0361111
0.0291352
0.0219796
0.0145832
0.00771969
0.00316056
0.281925
0.247041
0.219149
0.196779
0.178599
0.163619
0.15109
0.140446
0.131255
0.123184
0.11597
0.109406
0.103324
0.0975867
0.0920805
0.0866903
0.0813374
0.0760209
0.0706259
0.0651006
0.0594014
0.0534946
0.0473579
0.040987
0.034391
0.0275769
0.0204788
0.0131649
0.00638608
0.249245
0.220316
0.197051
0.178312
0.163039
0.15043
0.139876
0.13091
0.123174
0.116389
0.110333
0.104829
0.099733
0.0949257
0.0903073
0.0857991
0.0812255
0.0766948
0.072066
0.0672805
0.0622884
0.0570474
0.051524
0.0456976
0.0395646
0.0331337
0.0263671
0.0193617
0.0116986
0.219381
0.195627
0.176407
0.160858
0.148151
0.137649
0.128858
0.1214
0.114981
0.109367
0.104375
0.0998554
0.0956839
0.0917577
0.0879886
0.0843004
0.0806138
0.0767819
0.0729482
0.06894
0.0647053
0.0601947
0.0553635
0.0501743
0.0446041
0.0386472
0.0322599
0.025585
0.0182547
0.192237
0.172936
0.157216
0.144441
0.133977
0.125325
0.118092
0.111973
0.10673
0.10217
0.098143
0.0945221
0.0912037
0.0880995
0.0851329
0.0822365
0.0793518
0.076368
0.0732349
0.0700217
0.0665816
0.0628579
0.0587945
0.0543372
0.0494399
0.0440727
0.0381825
0.0318202
0.0250544
0.167693
0.152184
0.139461
0.129073
0.120549
0.113504
0.107631
0.102687
0.0984801
0.0948563
0.0916899
0.0888779
0.0863336
0.0839825
0.0817596
0.0796064
0.0774701
0.0753023
0.0729523
0.0704708
0.0678481
0.0649558
0.0617281
0.0580956
0.0539881
0.0493444
0.0440955
0.0381828
0.0318357
0.14561
0.133295
0.12311
0.114754
0.107889
0.102225
0.0975248
0.0935989
0.0902946
0.0874882
0.0850787
0.0829819
0.081127
0.0794527
0.0779049
0.0764342
0.0749952
0.0735436
0.0720314
0.0702898
0.0684414
0.0664079
0.0640709
0.0613482
0.0581487
0.0543771
0.0499354
0.0446827
0.0387621
0.125834
0.116178
0.108118
0.101474
0.0960123
0.0915211
0.0878211
0.0847658
0.0822357
0.0801332
0.0783776
0.0769019
0.0756492
0.0745701
0.0736211
0.0727623
0.0719569
0.0711679
0.0703553
0.0694698
0.0683429
0.0671418
0.0657295
0.0639835
0.0618017
0.0590597
0.0556168
0.0512634
0.0459687
0.108199
0.100729
0.0944302
0.0892111
0.0849239
0.0814179
0.0785605
0.0762403
0.0743653
0.0728593
0.0716594
0.0707127
0.0699749
0.069407
0.0689769
0.0686511
0.0684058
0.0682111
0.0680375
0.0678568
0.0675996
0.0671164
0.0666224
0.0658831
0.0647985
0.0632368
0.0610058
0.0578163
0.0534706
0.0925331
0.0868387
0.0819819
0.0779366
0.0746216
0.0719344
0.0697788
0.0680719
0.0667438
0.0657362
0.0650003
0.0644951
0.0641888
0.0640467
0.0640586
0.0641778
0.0644171
0.0647382
0.0651249
0.0655599
0.0660253
0.0664319
0.0666761
0.0669243
0.0669329
0.0666898
0.0659017
0.0641532
0.0611408
0.0786653
0.0743944
0.0707042
0.0676157
0.0650978
0.0630847
0.0615087
0.0603089
0.0594327
0.0588366
0.058483
0.0583383
0.0583879
0.058593
0.0589672
0.0594687
0.0601006
0.0608486
0.0617053
0.0626645
0.0637221
0.064868
0.0660158
0.0670672
0.0682367
0.0692816
0.0699243
0.0697441
0.0685814
0.0664297
0.0632839
0.0605272
0.0582117
0.0563433
0.0548835
0.0537857
0.0530049
0.0525015
0.0522443
0.0522041
0.0523471
0.0526825
0.0531807
0.0538385
0.0546406
0.0555871
0.0566755
0.0579075
0.0592883
0.0608281
0.0625339
0.0644283
0.0663967
0.0684507
0.0707295
0.0729852
0.0746543
0.0752011
0.0556707
0.0534017
0.0513855
0.0496928
0.0483562
0.0473563
0.0466606
0.0462329
0.0460409
0.0460667
0.0462693
0.0466619
0.047223
0.0479438
0.0488227
0.0498548
0.0510414
0.0523879
0.0539021
0.0556003
0.0575026
0.0596347
0.0620407
0.0647388
0.067737
0.0709036
0.0746874
0.0780799
0.0812709
0.046251
0.0446563
0.0432275
0.042044
0.0411578
0.0405601
0.0402235
0.0401087
0.0401891
0.0404426
0.0408596
0.0414356
0.0421661
0.0430517
0.0440937
0.0452939
0.0466543
0.0481868
0.0498986
0.0518214
0.0539729
0.0564111
0.0591748
0.0623362
0.066029
0.0701252
0.075088
0.0798326
0.086094
0.0380627
0.036984
0.0360327
0.0352904
0.0348221
0.0346158
0.0346382
0.0348202
0.0351485
0.0355946
0.0361633
0.0368636
0.0377039
0.038697
0.0398474
0.0411648
0.0426483
0.0443214
0.0461846
0.0482982
0.050646
0.0533561
0.0563781
0.0599514
0.064074
0.0688405
0.0750373
0.0806479
0.0903685
0.0310489
0.0303726
0.0298403
0.0295314
0.0295159
0.029751
0.0301749
0.0306771
0.0312222
0.0318052
0.0324561
0.0332089
0.0340928
0.0351442
0.0363736
0.0378046
0.0394273
0.0412946
0.0433775
0.0458309
0.048515
0.0518096
0.0552774
0.0598736
0.0645121
0.0704519
0.07756
0.0844713
0.0991965
0.0252348
0.0248948
0.0247842
0.0249734
0.0255152
0.0263251
0.0272427
0.0281197
0.0288896
0.0295782
0.0302612
0.0310186
0.0319194
0.0330518
0.0344421
0.0361653
0.038196
0.040704
0.0435692
0.0471288
0.0509588
0.0562548
0.0613498
0.0695093
0.07609
0.0881372
0.0975835
0.112541
0.132589
0.0207515
0.0207256
0.0210927
0.0219101
0.023189
0.0247642
0.0263915
0.0278662
0.0290679
0.0300295
0.0308965
0.0318264
0.0329711
0.0345552
0.0366657
0.039546
0.0431612
0.0480316
0.0538462
0.0619679
0.0710388
0.0845294
0.0977752
0.120052
0.137817
0.173817
0.198046
0.256595
0.286073
0.0177895
0.0180737
0.019008
0.0206022
0.0228342
0.0254774
0.0282373
0.0308734
0.0332109
0.0352727
0.0372559
0.0394279
0.042117
0.0458749
0.0510001
0.0581266
0.0672876
0.0795897
0.094588
0.114567
0.137894
0.169579
0.204473
0.254839
0.305464
0.389395
0.465166
0.625038
0.720278
0.0164645
0.0170476
0.0186293
0.0211327
0.0245616
0.0286959
0.0332636
0.0380451
0.042873
0.0477826
0.053036
0.0590196
0.0662747
0.0756694
0.0877967
0.103606
0.123425
0.14872
0.179595
0.218652
0.265579
0.325393
0.396235
0.489267
0.598799
0.753939
0.940436
1.2299
1.52166
0.00099014
0.00099014
0.00099014
0.00099014
0.000990141
0.000990141
0.000990141
0.000990141
0.000990142
0.000990142
0.000990142
0.000990142
0.000990142
0.000990143
0.000990143
0.000990144
0.000990144
0.000990145
0.000990145
0.000990145
0.000990145
0.000990145
0.000990145
0.000990145
0.000990146
0.000990146
0.000990146
0.000990146
0.000990147
0.000990147
0.000990147
0.000990147
0.000990148
0.000990148
0.000990148
0.000990148
0.000990148
0.000990149
0.000990149
0.000990149
0.000990149
0.000990149
0.000990149
0.00099015
0.00099015
0.00099015
0.00099015
0.00099015
0.00099015
0.000990151
0.000990151
0.000990151
0.000990151
0.000990151
0.000990151
0.000990152
0.000990152
0.000990152
0.000990152
0.000990152
0.000990152
0.000990153
0.000990153
0.000990153
0.000990153
0.000990153
0.000990153
0.000990153
0.000990154
0.000990154
0.000990154
0.000990154
0.000990154
0.000990154
0.000990154
0.000990154
0.000990155
0.000990155
0.000990155
0.000990155
0.000990155
0.000990155
0.000990155
0.000990155
0.000990155
0.000990155
0.000990156
0.000990156
0.000990156
0.000990156
0.000990156
0.000990156
0.000990156
0.000990156
0.000990156
0.000990156
0.000990156
0.000990156
0.000990156
0.000990156
0.000990156
0.000990156
0.000990156
0.000990156
0.000990155
0.000990155
0.000990155
0.000990155
0.000990155
0.000990155
0.000990155
0.000990155
0.000990154
0.000990154
0.000990154
0.000990153
0.000990153
0.000990153
0.000990153
0.000990153
0.000990153
0.000990154
0.000990154
0.000990154
0.000990155
0.000990155
0.000990155
0.000990156
0.000990156
0.000990156
0.000990158
0.000990158
0.00099016
0.000990162
0.000990161
0.000990165
0.000990165
0.000990174
0.00100826
4.09886e-005
4.09891e-005
4.09897e-005
4.09903e-005
4.09906e-005
4.09908e-005
4.09912e-005
4.09919e-005
4.09925e-005
4.09927e-005
4.09928e-005
4.09931e-005
4.09938e-005
4.09947e-005
4.09955e-005
4.09961e-005
4.09967e-005
4.09972e-005
4.09976e-005
4.0998e-005
4.09983e-005
4.09986e-005
4.09989e-005
4.09991e-005
4.09994e-005
4.09998e-005
4.10002e-005
4.10007e-005
4.10011e-005
4.10016e-005
4.1002e-005
4.10024e-005
4.10028e-005
4.10033e-005
4.10036e-005
4.10039e-005
4.10042e-005
4.10046e-005
4.10049e-005
4.10052e-005
4.10055e-005
4.10058e-005
4.10062e-005
4.10065e-005
4.10068e-005
4.10071e-005
4.10074e-005
4.10077e-005
4.10079e-005
4.10082e-005
4.10085e-005
4.10088e-005
4.1009e-005
4.10093e-005
4.10096e-005
4.10099e-005
4.10102e-005
4.10105e-005
4.10108e-005
4.10111e-005
4.10114e-005
4.10116e-005
4.10119e-005
4.10121e-005
4.10124e-005
4.10126e-005
4.10129e-005
4.10131e-005
4.10133e-005
4.10136e-005
4.10138e-005
4.1014e-005
4.10142e-005
4.10144e-005
4.10147e-005
4.10149e-005
4.10151e-005
4.10152e-005
4.10154e-005
4.10156e-005
4.10158e-005
4.10159e-005
4.10161e-005
4.10162e-005
4.10163e-005
4.10164e-005
4.10165e-005
4.10165e-005
4.10166e-005
4.10168e-005
4.1017e-005
4.10172e-005
4.10173e-005
4.10174e-005
4.10175e-005
4.10175e-005
4.10176e-005
4.10176e-005
4.10175e-005
4.10174e-005
4.10174e-005
4.10172e-005
4.10171e-005
4.1017e-005
4.10168e-005
4.10167e-005
4.10165e-005
4.10163e-005
4.10161e-005
4.10159e-005
4.10155e-005
4.10153e-005
4.1015e-005
4.10146e-005
4.10141e-005
4.10136e-005
4.10131e-005
4.10128e-005
4.10128e-005
4.10131e-005
4.10135e-005
4.10139e-005
4.10142e-005
4.10147e-005
4.10149e-005
4.10155e-005
4.10154e-005
4.10164e-005
4.10166e-005
4.10172e-005
4.10189e-005
4.10195e-005
4.10211e-005
4.10256e-005
4.10234e-005
4.10291e-005
4.10624e-005
4.10529e-005
4.13491e-005
3.38022e-006
3.38053e-006
3.38075e-006
3.38094e-006
3.38115e-006
3.38137e-006
3.38155e-006
3.3817e-006
3.38183e-006
3.38199e-006
3.38217e-006
3.38235e-006
3.38248e-006
3.38258e-006
3.38269e-006
3.38282e-006
3.38295e-006
3.38309e-006
3.38322e-006
3.38337e-006
3.38351e-006
3.38367e-006
3.38383e-006
3.384e-006
3.38416e-006
3.38432e-006
3.38447e-006
3.38462e-006
3.38477e-006
3.38492e-006
3.38506e-006
3.38521e-006
3.38535e-006
3.3855e-006
3.38563e-006
3.38576e-006
3.38588e-006
3.386e-006
3.38612e-006
3.38625e-006
3.38637e-006
3.3865e-006
3.38662e-006
3.38674e-006
3.38687e-006
3.38699e-006
3.38711e-006
3.38723e-006
3.38735e-006
3.38746e-006
3.38758e-006
3.38769e-006
3.3878e-006
3.38791e-006
3.38801e-006
3.38812e-006
3.38822e-006
3.38831e-006
3.38841e-006
3.3885e-006
3.38859e-006
3.38868e-006
3.38878e-006
3.38887e-006
3.38896e-006
3.38905e-006
3.38914e-006
3.38923e-006
3.38931e-006
3.38939e-006
3.38948e-006
3.38956e-006
3.38963e-006
3.38971e-006
3.38978e-006
3.38985e-006
3.38992e-006
3.38998e-006
3.39003e-006
3.39009e-006
3.39014e-006
3.39019e-006
3.39024e-006
3.39028e-006
3.39033e-006
3.39037e-006
3.3904e-006
3.39043e-006
3.39048e-006
3.39055e-006
3.39061e-006
3.39068e-006
3.39074e-006
3.39079e-006
3.39084e-006
3.39089e-006
3.39093e-006
3.39096e-006
3.39099e-006
3.39102e-006
3.39103e-006
3.39104e-006
3.39104e-006
3.39104e-006
3.39102e-006
3.391e-006
3.39097e-006
3.39093e-006
3.39088e-006
3.39082e-006
3.39073e-006
3.39063e-006
3.39053e-006
3.39042e-006
3.39029e-006
3.39015e-006
3.39004e-006
3.38997e-006
3.38992e-006
3.3899e-006
3.38986e-006
3.38982e-006
3.38968e-006
3.38967e-006
3.38944e-006
3.38944e-006
3.38926e-006
3.38913e-006
3.38909e-006
3.38908e-006
3.38902e-006
3.38961e-006
3.38884e-006
3.38936e-006
3.39399e-006
3.39784e-006
2.99838e-006
3.14153e-006
4.61173e-005
5.32977e-007
5.3305e-007
5.33116e-007
5.33183e-007
5.3324e-007
5.33285e-007
5.33334e-007
5.33391e-007
5.3345e-007
5.33498e-007
5.33536e-007
5.33575e-007
5.33624e-007
5.33686e-007
5.33746e-007
5.33801e-007
5.33852e-007
5.33902e-007
5.33951e-007
5.34e-007
5.34047e-007
5.34093e-007
5.34139e-007
5.34184e-007
5.34232e-007
5.34281e-007
5.34333e-007
5.34386e-007
5.34441e-007
5.34497e-007
5.34553e-007
5.3461e-007
5.34667e-007
5.34725e-007
5.34782e-007
5.34838e-007
5.34892e-007
5.34947e-007
5.35001e-007
5.35054e-007
5.35108e-007
5.35161e-007
5.35213e-007
5.35265e-007
5.35317e-007
5.35369e-007
5.35419e-007
5.35469e-007
5.35519e-007
5.35568e-007
5.35616e-007
5.35663e-007
5.35709e-007
5.35755e-007
5.35799e-007
5.35844e-007
5.35887e-007
5.3593e-007
5.35972e-007
5.36015e-007
5.36059e-007
5.36103e-007
5.36146e-007
5.36188e-007
5.36231e-007
5.36272e-007
5.36313e-007
5.36352e-007
5.36391e-007
5.36429e-007
5.36467e-007
5.36504e-007
5.3654e-007
5.36575e-007
5.36609e-007
5.36642e-007
5.36675e-007
5.36706e-007
5.36737e-007
5.36766e-007
5.36795e-007
5.36822e-007
5.36848e-007
5.36873e-007
5.36896e-007
5.36918e-007
5.36939e-007
5.36958e-007
5.36977e-007
5.36998e-007
5.37019e-007
5.3704e-007
5.37061e-007
5.37081e-007
5.37101e-007
5.37119e-007
5.37137e-007
5.37153e-007
5.37167e-007
5.3718e-007
5.3719e-007
5.37199e-007
5.37204e-007
5.37207e-007
5.37207e-007
5.37205e-007
5.37199e-007
5.3719e-007
5.37178e-007
5.37162e-007
5.37139e-007
5.37108e-007
5.37072e-007
5.37031e-007
5.36985e-007
5.36936e-007
5.36887e-007
5.3684e-007
5.36798e-007
5.36757e-007
5.36711e-007
5.36662e-007
5.36588e-007
5.3654e-007
5.36443e-007
5.36373e-007
5.36288e-007
5.3621e-007
5.36078e-007
5.36167e-007
5.363e-007
5.34296e-007
5.36203e-007
5.42199e-007
5.10119e-007
4.77721e-007
3.79562e-006
0.000509419
0.0274078
1.46011e-007
1.4604e-007
1.46064e-007
1.46083e-007
1.46103e-007
1.46128e-007
1.4615e-007
1.46168e-007
1.46184e-007
1.46203e-007
1.46226e-007
1.46251e-007
1.46271e-007
1.46288e-007
1.46306e-007
1.46326e-007
1.46347e-007
1.46368e-007
1.4639e-007
1.46413e-007
1.46436e-007
1.46461e-007
1.46487e-007
1.46514e-007
1.46542e-007
1.46569e-007
1.46596e-007
1.46623e-007
1.4665e-007
1.46677e-007
1.46705e-007
1.46732e-007
1.4676e-007
1.46789e-007
1.46817e-007
1.46845e-007
1.46874e-007
1.46903e-007
1.46932e-007
1.4696e-007
1.46989e-007
1.47017e-007
1.47046e-007
1.47074e-007
1.47101e-007
1.47129e-007
1.47157e-007
1.47184e-007
1.47211e-007
1.47238e-007
1.47264e-007
1.47291e-007
1.47317e-007
1.47343e-007
1.47368e-007
1.47393e-007
1.47419e-007
1.47444e-007
1.47468e-007
1.47493e-007
1.47518e-007
1.47543e-007
1.47567e-007
1.47591e-007
1.47615e-007
1.47638e-007
1.47661e-007
1.47683e-007
1.47705e-007
1.47726e-007
1.47747e-007
1.47768e-007
1.47788e-007
1.47808e-007
1.47827e-007
1.47846e-007
1.47865e-007
1.47883e-007
1.47901e-007
1.47918e-007
1.47935e-007
1.47951e-007
1.47966e-007
1.47982e-007
1.47996e-007
1.4801e-007
1.48023e-007
1.48036e-007
1.48048e-007
1.48059e-007
1.48069e-007
1.48079e-007
1.48089e-007
1.48098e-007
1.48107e-007
1.48116e-007
1.48124e-007
1.48131e-007
1.48138e-007
1.48144e-007
1.48149e-007
1.48153e-007
1.48157e-007
1.48159e-007
1.4816e-007
1.4816e-007
1.48159e-007
1.48156e-007
1.48152e-007
1.48146e-007
1.48138e-007
1.48127e-007
1.48112e-007
1.48094e-007
1.48074e-007
1.48051e-007
1.48027e-007
1.48002e-007
1.47978e-007
1.47954e-007
1.47928e-007
1.47898e-007
1.47863e-007
1.47828e-007
1.47783e-007
1.47736e-007
1.47684e-007
1.47632e-007
1.47598e-007
1.47413e-007
1.46409e-007
1.52254e-007
1.47945e-007
1.25747e-007
2.16532e-007
5.42798e-006
0.000487318
0.0194161
0.191635
6.0524e-008
6.05349e-008
6.05449e-008
6.05566e-008
6.05678e-008
6.05763e-008
6.05848e-008
6.05953e-008
6.06086e-008
6.06204e-008
6.06295e-008
6.06375e-008
6.06475e-008
6.06602e-008
6.06748e-008
6.06877e-008
6.07004e-008
6.07132e-008
6.07263e-008
6.07397e-008
6.07535e-008
6.07672e-008
6.07808e-008
6.07941e-008
6.08072e-008
6.08208e-008
6.0835e-008
6.08498e-008
6.0865e-008
6.08803e-008
6.08958e-008
6.09115e-008
6.09273e-008
6.0943e-008
6.09589e-008
6.0975e-008
6.09912e-008
6.10075e-008
6.10238e-008
6.104e-008
6.10562e-008
6.10725e-008
6.10886e-008
6.11047e-008
6.11207e-008
6.11367e-008
6.11526e-008
6.11685e-008
6.11842e-008
6.11999e-008
6.12155e-008
6.12311e-008
6.12465e-008
6.12618e-008
6.12771e-008
6.12922e-008
6.13072e-008
6.13221e-008
6.13369e-008
6.13516e-008
6.13663e-008
6.13807e-008
6.13949e-008
6.14088e-008
6.14225e-008
6.1436e-008
6.14493e-008
6.14624e-008
6.14751e-008
6.14877e-008
6.15e-008
6.15121e-008
6.1524e-008
6.15355e-008
6.15469e-008
6.1558e-008
6.1569e-008
6.15796e-008
6.15899e-008
6.16e-008
6.16099e-008
6.16195e-008
6.16288e-008
6.16378e-008
6.16465e-008
6.16549e-008
6.16631e-008
6.16711e-008
6.16783e-008
6.16849e-008
6.16909e-008
6.16966e-008
6.1702e-008
6.1707e-008
6.17118e-008
6.17162e-008
6.17202e-008
6.17239e-008
6.17273e-008
6.17301e-008
6.17324e-008
6.17343e-008
6.17357e-008
6.17366e-008
6.17369e-008
6.17366e-008
6.17357e-008
6.1734e-008
6.17316e-008
6.17283e-008
6.17245e-008
6.17195e-008
6.17124e-008
6.17036e-008
6.16936e-008
6.16824e-008
6.16699e-008
6.16566e-008
6.16434e-008
6.16299e-008
6.1615e-008
6.1599e-008
6.15801e-008
6.15604e-008
6.15371e-008
6.15123e-008
6.14882e-008
6.14502e-008
6.1369e-008
6.13264e-008
6.48272e-008
5.33118e-008
5.87419e-008
2.96621e-007
1.50154e-005
0.000853152
0.0207601
0.158442
0.588976
3.40581e-008
3.40651e-008
3.40713e-008
3.40768e-008
3.40829e-008
3.40893e-008
3.40977e-008
3.41047e-008
3.41106e-008
3.41166e-008
3.41244e-008
3.41343e-008
3.41435e-008
3.41513e-008
3.41582e-008
3.41657e-008
3.41739e-008
3.41823e-008
3.41909e-008
3.41999e-008
3.42088e-008
3.42177e-008
3.42268e-008
3.42363e-008
3.42466e-008
3.4257e-008
3.42672e-008
3.42773e-008
3.42874e-008
3.42976e-008
3.43078e-008
3.43181e-008
3.43284e-008
3.43389e-008
3.43494e-008
3.436e-008
3.43706e-008
3.43813e-008
3.43919e-008
3.44026e-008
3.44132e-008
3.44237e-008
3.44343e-008
3.44449e-008
3.44554e-008
3.44659e-008
3.44764e-008
3.44868e-008
3.44973e-008