/*--------------------------------*- C++ -*----------------------------------*\
| =========                 |                                                 |
| \\      /  F ield         | OpenFOAM: The Open Source CFD Toolbox           |
|  \\    /   O peration     | Version:  5.x                                   |
|   \\  /    A nd           | Web:      www.OpenFOAM.org                      |
|    \\/     M anipulation  |                                                 |
\*---------------------------------------------------------------------------*/
/*   Windows 32 and 64 bit porting by blueCAPE: http://www.bluecape.com.pt   *\
|  Based on Windows porting (2.0.x v4) by Symscape: http://www.symscape.com   |
\*---------------------------------------------------------------------------*/
FoamFile
{
    version     2.0;
    format      ascii;
    class       volScalarField;
    location    "200";
    object      nut;
}
// * * * * * * * * * * * * * * * * * * * * * * * * * * * * * * * * * * * * * //

dimensions      [0 2 -1 0 0 0 0];

internalField   nonuniform List<scalar> 
43900
(
5.71582e-005
5.80017e-005
5.80696e-005
5.80645e-005
5.80597e-005
5.80589e-005
5.8059e-005
5.80586e-005
5.80587e-005
5.80589e-005
5.8059e-005
5.80592e-005
5.80594e-005
5.80595e-005
5.80597e-005
5.80598e-005
5.80599e-005
5.806e-005
5.80601e-005
5.80601e-005
5.80602e-005
5.80602e-005
5.80603e-005
5.80603e-005
5.80603e-005
5.80604e-005
5.80604e-005
5.80604e-005
5.80604e-005
0.000587959
7.35379e-006
4.30766e-006
4.16051e-006
4.58118e-006
4.60683e-006
4.60929e-006
4.60323e-006
4.60307e-006
4.60344e-006
4.60379e-006
4.60433e-006
4.60477e-006
4.60519e-006
4.60557e-006
4.6059e-006
4.60618e-006
4.60647e-006
4.60665e-006
4.6068e-006
4.60694e-006
4.60704e-006
4.60715e-006
4.60725e-006
4.60732e-006
4.6074e-006
4.60747e-006
4.60752e-006
4.60757e-006
0.153155
0.0454073
0.0051571
0.000106174
1.29209e-006
6.44468e-007
6.01611e-007
7.14734e-007
7.25346e-007
7.2276e-007
7.21479e-007
7.2179e-007
7.22253e-007
7.22449e-007
7.22601e-007
7.22769e-007
7.22926e-007
7.23058e-007
7.23171e-007
7.23272e-007
7.23359e-007
7.23445e-007
7.23522e-007
7.23589e-007
7.23655e-007
7.23713e-007
7.23766e-007
7.23819e-007
7.23855e-007
0.475354
0.291201
0.133539
0.0383861
0.0045558
0.000170889
4.02604e-006
2.50503e-007
1.7132e-007
1.99086e-007
2.15099e-007
2.1395e-007
2.11564e-007
2.11972e-007
2.12493e-007
2.12525e-007
2.12541e-007
2.12592e-007
2.12642e-007
2.1269e-007
2.12736e-007
2.12776e-007
2.12814e-007
2.12849e-007
2.12879e-007
2.12909e-007
2.12936e-007
2.1296e-007
2.1298e-007
0.756902
0.581413
0.413779
0.248674
0.106177
0.0261254
0.00253441
0.000114491
2.6276e-006
1.79444e-007
8.67106e-008
9.32187e-008
1.07496e-007
1.05061e-007
1.02455e-007
1.02956e-007
1.03343e-007
1.03382e-007
1.03404e-007
1.03427e-007
1.0345e-007
1.03473e-007
1.03493e-007
1.0351e-007
1.03528e-007
1.03543e-007
1.03558e-007
1.03574e-007
1.03585e-007
0.963687
0.795361
0.638754
0.486643
0.334324
0.181048
0.0639462
0.0109241
0.000750727
3.41068e-005
9.12903e-007
1.08518e-007
5.7605e-008
6.68992e-008
7.50372e-008
7.15366e-008
7.00459e-008
7.01852e-008
7.02675e-008
7.02882e-008
7.03029e-008
7.03155e-008
7.03281e-008
7.03396e-008
7.03492e-008
7.03619e-008
7.03726e-008
7.03802e-008
7.03879e-008
1.12664
0.963915
0.815229
0.674303
0.536148
0.3972
0.251954
0.10942
0.026845
0.00266943
0.000144578
6.50508e-006
2.53518e-007
6.46305e-008
4.58428e-008
5.88898e-008
6.15509e-008
6.0206e-008
5.99473e-008
5.99622e-008
5.99738e-008
5.9982e-008
5.99899e-008
5.99957e-008
6.00084e-008
6.00206e-008
6.00263e-008
6.00334e-008
6.00394e-008
1.23563
1.07754
0.934708
0.801547
0.673417
0.54654
0.41808
0.287847
0.149749
0.044564
0.00562797
0.000337429
1.70062e-005
7.2592e-007
9.3986e-008
4.74923e-008
4.81431e-008
5.38673e-008
5.37114e-008
5.34687e-008
5.34464e-008
5.34572e-008
5.34649e-008
5.34743e-008
5.34767e-008
5.34733e-008
5.3484e-008
5.35024e-008
5.35117e-008
1.33384
1.17866
1.03924
0.91056
0.78839
0.669222
0.550235
0.429348
0.304851
0.175005
0.0587546
0.00897649
0.00062556
3.49883e-005
1.85013e-006
1.14913e-007
4.98381e-008
3.82913e-008
4.15922e-008
4.29589e-008
4.30831e-008
4.31036e-008
4.31167e-008
4.31341e-008
4.31375e-008
4.31331e-008
4.31438e-008
4.31624e-008
4.31722e-008
1.3935
1.24441
1.11078
0.988434
0.873392
0.762296
0.652355
0.541307
0.427347
0.309102
0.186841
0.0667155
0.0111885
0.000857865
5.17424e-005
2.99134e-006
1.80682e-007
5.65107e-008
4.0141e-008
3.81234e-008
3.8279e-008
3.83333e-008
3.83364e-008
3.83411e-008
3.83427e-008
3.83532e-008
3.83624e-008
3.83684e-008
3.8374e-008
1.43635
1.28992
1.16085
1.04344
0.93425
0.830032
0.728034
0.625955
0.521932
0.414556
0.30303
0.187816
0.068196
0.0117025
0.000949028
6.11185e-005
3.79282e-006
2.48804e-007
5.81235e-008
4.87228e-008
4.59394e-008
4.55444e-008
4.55221e-008
4.55101e-008
4.55003e-008
4.5495e-008
4.54993e-008
4.5496e-008
4.55023e-008
1.47169
1.32805
1.20168
1.08782
0.982579
0.883197
0.787043
0.691866
0.59579
0.497333
0.39544
0.289582
0.180178
0.0638411
0.010541
0.000869398
5.89048e-005
3.85767e-006
2.72332e-007
6.34674e-008
5.52126e-008
5.48038e-008
5.47494e-008
5.47467e-008
5.47423e-008
5.47366e-008
5.47434e-008
5.47439e-008
5.47528e-008
1.49532
1.35481
1.23044
1.12008
1.01884
0.923562
0.832183
0.742564
0.652892
0.561677
0.46777
0.370383
0.26914
0.164358
0.0540885
0.00804236
0.000648517
4.51042e-005
3.06094e-006
2.39118e-007
6.98656e-008
6.06034e-008
6.0137e-008
6.01088e-008
6.01084e-008
6.01075e-008
6.01054e-008
6.0105e-008
6.01063e-008
1.5078
1.37142
1.25048
1.14129
1.04336
0.952365
0.865152
0.780272
0.695975
0.610795
0.523548
0.433343
0.339562
0.241837
0.139965
0.0399233
0.00500862
0.000387472
2.72747e-005
1.90846e-006
1.86138e-007
8.04162e-008
7.39291e-008
7.34734e-008
7.34337e-008
7.34199e-008
7.32972e-008
7.32634e-008
7.32593e-008
1.51112
1.37816
1.26135
1.15631
1.05939
0.971087
0.888319
0.80748
0.727668
0.647462
0.565694
0.481446
0.394036
0.302967
0.207743
0.106248
0.0239232
0.0024596
0.000185068
1.33223e-005
1.02383e-006
1.74735e-007
1.20158e-007
1.16309e-007
1.1572e-007
1.15545e-007
1.15075e-007
1.14896e-007
1.14897e-007
1.50706
1.37755
1.2639
1.16268
1.07055
0.983711
0.902606
0.826035
0.749942
0.673848
0.596616
0.517341
0.435321
0.350021
0.260992
0.167625
0.0668546
0.0109425
0.000973463
7.45119e-005
5.73163e-006
6.42444e-007
2.77904e-007
2.51603e-007
2.48045e-007
2.46241e-007
2.44878e-007
2.43877e-007
2.43876e-007
1.49733
1.37131
1.26076
1.16236
1.07328
0.991079
0.912421
0.836896
0.764912
0.692308
0.618941
0.543896
0.466449
0.386054
0.302289
0.214665
0.121061
0.0323074
0.00391909
0.000334477
2.71729e-005
2.70886e-006
8.03582e-007
6.55945e-007
6.39373e-007
6.29264e-007
6.26674e-007
6.22126e-007
6.19082e-007
1.48334
1.3609
1.25355
1.15804
1.07169
0.992169
0.917481
0.845053
0.773846
0.70505
0.634828
0.56316
0.489382
0.412972
0.333522
0.250626
0.163544
0.0708968
0.012547
0.00125611
0.000109896
1.0745e-005
2.45369e-006
1.77381e-006
1.7047e-006
1.66409e-006
1.65758e-006
1.64272e-006
1.62618e-006
1.46614
1.34737
1.24326
1.15069
1.06703
0.990067
0.917893
0.848846
0.780915
0.712974
0.646042
0.577382
0.506767
0.433684
0.357745
0.278627
0.195929
0.106791
0.0298299
0.00381272
0.000370333
3.74569e-005
7.31821e-006
4.67796e-006
4.42634e-006
4.29297e-006
4.25977e-006
4.21866e-006
4.1603e-006
1.44656
1.33156
1.23077
1.14116
1.06019
0.985711
0.915894
0.849155
0.784134
0.719213
0.653872
0.587634
0.51964
0.449388
0.376489
0.300627
0.221401
0.136976
0.0521821
0.00910001
0.00102362
0.000111961
2.07163e-005
1.20277e-005
1.11664e-005
1.07569e-005
1.05959e-005
1.04919e-005
1.03659e-005
1.42519
1.31407
1.2167
1.13012
1.05187
0.979877
0.91236
0.8478
0.78489
0.722508
0.659172
0.595538
0.529929
0.462145
0.391827
0.318678
0.242329
0.161784
0.0756338
0.0182068
0.00250109
0.000303719
5.67607e-005
3.0662e-005
2.79883e-005
2.70263e-005
2.63099e-005
2.58327e-005
2.55015e-005
1.40244
1.29533
1.20148
1.11802
1.04256
0.97308
0.907879
0.845496
0.784696
0.724446
0.663912
0.602039
0.538582
0.473052
0.405086
0.334385
0.260608
0.183147
0.0988729
0.0299011
0.00500232
0.00070426
0.0001441
7.89507e-005
7.03176e-005
6.77766e-005
6.67133e-005
6.62739e-005
6.58161e-005
1.37857
1.2756
1.18539
1.10514
1.03254
0.965639
0.902791
0.842596
0.78387
0.725618
0.666999
0.607253
0.546
0.482698
0.417008
0.348651
0.277336
0.202615
0.12151
0.0457557
0.00980153
0.00160554
0.000360378
0.000205041
0.000188763
0.000182685
0.000172841
0.000165057
0.000164774
1.35376
1.25506
1.16859
1.09166
1.022
0.957758
0.897325
0.839364
0.782747
0.72653
0.669924
0.612277
0.553081
0.491906
0.428412
0.362316
0.29334
0.221085
0.143437
0.0636404
0.0160559
0.00298868
0.000694386
0.00035411
0.000301678
0.000301421
0.000307323
0.000306602
0.000300434
1.32811
1.2338
1.15119
1.07766
1.01105
0.949534
0.891588
0.835926
0.781474
0.727339
0.672783
0.617197
0.560086
0.501051
0.439764
0.375955
0.309364
0.239616
0.165359
0.0854504
0.0269268
0.00569118
0.00125809
0.000553786
0.000452846
0.000424713
0.000410787
0.000409941
0.000413788
1.30168
1.21185
1.1332
1.06317
0.99968
0.940977
0.885592
0.832298
0.780074
0.728079
0.675617
0.622118
0.567115
0.510228
0.451144
0.389601
0.325351
0.258065
0.186903
0.109038
0.041415
0.0103478
0.00234337
0.000806014
0.000564976
0.000535658
0.000523977
0.000516564
0.000505587
1.27451
1.18925
1.11463
1.04817
0.98788
0.932061
0.87931
0.828456
0.778533
0.728747
0.678445
0.627096
0.574254
0.519565
0.462732
0.403497
0.34162
0.276796
0.208488
0.134019
0.060611
0.0175033
0.00416661
0.00124329
0.000703373
0.000614617
0.000605619
0.00060236
0.000598278
1.2466
1.16597
1.09545
1.03264
0.975601
0.922733
0.872685
0.824345
0.776799
0.729299
0.681221
0.632002
0.58148
0.529085
0.474572
0.417716
0.358291
0.296027
0.230477
0.159768
0.0846587
0.0298195
0.00769388
0.00209762
0.00092547
0.000710176
0.000669728
0.000666183
0.000663112
1.21796
1.14202
1.07564
1.01651
0.962782
0.91292
0.865638
0.819879
0.774779
0.729626
0.683822
0.636859
0.58866
0.538674
0.486602
0.43222
0.375325
0.315686
0.252964
0.186096
0.112581
0.0476734
0.0142926
0.00382785
0.00135686
0.000842091
0.000740897
0.000720025
0.000718556
1.1886
1.11735
1.05514
0.999719
0.94934
0.902527
0.85806
0.81494
0.772351
0.72963
0.686235
0.64176
0.595933
0.548266
0.498667
0.446849
0.392582
0.335644
0.27576
0.212335
0.143056
0.0723378
0.0252375
0.00718445
0.00223731
0.00107212
0.000827869
0.000773602
0.000761624
1.15849
1.09194
1.03389
0.982195
0.935179
0.891441
0.849827
0.809395
0.769381
0.729174
0.688296
0.646408
0.603119
0.557881
0.510734
0.461471
0.409868
0.355695
0.298688
0.238432
0.173413
0.103002
0.0435208
0.0136348
0.00407942
0.0015576
0.000959105
0.000836112
0.000802072
1.12761
1.06572
1.01182
0.963843
0.920191
0.879543
0.840808
0.803101
0.76571
0.728067
0.689719
0.650299
0.609435
0.566928
0.522453
0.475857
0.426973
0.375605
0.321521
0.264376
0.203339
0.136113
0.0698422
0.0256594
0.00789596
0.00263288
0.00124882
0.000919813
0.000849939
1.09591
1.03865
0.988857
0.944566
0.904265
0.866704
0.83086
0.795903
0.761168
0.726122
0.690322
0.653364
0.614759
0.575095
0.53348
0.489729
0.443687
0.395197
0.344067
0.29003
0.232577
0.170107
0.102332
0.0456252
0.0154613
0.00497315
0.00191533
0.0011047
0.000908061
1.06334
1.01064
0.964906
0.924259
0.887278
0.85279
0.819835
0.78764
0.755583
0.723163
0.689964
0.655629
0.619874
0.58293
0.543865
0.50287
0.459713
0.414191
0.366106
0.315216
0.261177
0.2031
0.139139
0.0743889
0.0295112
0.00988497
0.00342508
0.00154202
0.00103253
1.02986
0.981621
0.939873
0.902809
0.869102
0.837656
0.807577
0.778145
0.748785
0.719033
0.688519
0.656961
0.624232
0.589815
0.553558
0.515368
0.475082
0.432521
0.387496
0.339786
0.289085
0.234917
0.175894
0.111515
0.0532193
0.0196993
0.00675927
0.00257196
0.00132944
0.995396
0.951517
0.913659
0.880099
0.849604
0.821154
0.793922
0.767242
0.740582
0.713517
0.685701
0.656845
0.626653
0.594446
0.561472
0.526445
0.489272
0.449829
0.407963
0.363494
0.316179
0.265631
0.211183
0.151164
0.0882028
0.0380484
0.0138173
0.00494516
0.00204983
0.959891
0.920247
0.886167
0.856015
0.82865
0.803134
0.778702
0.754744
0.730772
0.706391
0.681279
0.655155
0.627759
0.598867
0.56888
0.536525
0.502283
0.46592
0.427234
0.386035
0.34211
0.295167
0.244706
0.189846
0.129127
0.0693119
0.0280011
0.0102187
0.00377122
0.923297
0.887745
0.857311
0.83045
0.806116
0.78345
0.761755
0.740473
0.719157
0.697447
0.675044
0.651696
0.627199
0.601451
0.573418
0.544489
0.513524
0.480418
0.445023
0.407167
0.366659
0.323271
0.276655
0.22621
0.170871
0.109948
0.0542225
0.021302
0.00770529
0.885587
0.853963
0.827023
0.803316
0.781893
0.761975
0.742932
0.724258
0.705548
0.686472
0.666756
0.646161
0.624467
0.601435
0.576575
0.55106
0.52309
0.493181
0.4611
0.426643
0.389607
0.349778
0.30689
0.260532
0.210027
0.154153
0.0932193
0.0424428
0.0161821
0.84676
0.81888
0.795261
0.774551
0.755899
0.738606
0.722109
0.705953
0.689775
0.673277
0.656206
0.638341
0.619479
0.599441
0.578141
0.554421
0.53006
0.503639
0.475048
0.444122
0.41067
0.374483
0.335326
0.292891
0.246685
0.196021
0.139407
0.0793059
0.0335145
0.806852
0.78251
0.76202
0.74413
0.728088
0.713277
0.699197
0.685447
0.671704
0.6577
0.643206
0.628016
0.611942
0.594796
0.57637
0.556163
0.535019
0.511832
0.486688
0.459346
0.429575
0.397143
0.361806
0.323287
0.281212
0.235036
0.183962
0.127106
0.0657084
0.765935
0.744908
0.727336
0.712071
0.698461
0.685968
0.674156
0.662677
0.651246
0.639627
0.627612
0.615014
0.601659
0.587374
0.571994
0.555435
0.536441
0.517099
0.495522
0.471876
0.445918
0.417392
0.38603
0.351549
0.313614
0.27178
0.225265
0.174586
0.113804
0.724124
0.706171
0.69129
0.678441
0.667068
0.656714
0.647005
0.637642
0.628378
0.619007
0.609344
0.599222
0.58848
0.576959
0.564497
0.550922
0.535824
0.519033
0.501176
0.481338
0.459312
0.43484
0.407634
0.377379
0.34373
0.306276
0.264296
0.218064
0.165468
0.681575
0.666439
0.65401
0.643357
0.634019
0.625613
0.617827
0.610407
0.603146
0.595863
0.588399
0.580606
0.572337
0.563449
0.553793
0.543217
0.531579
0.51815
0.50352
0.487425
0.469372
0.449068
0.426189
0.400382
0.37126
0.338368
0.301136
0.258982
0.213066
0.638477
0.625893
0.615671
0.606988
0.599475
0.592821
0.586769
0.58111
0.575671
0.570299
0.564858
0.559217
0.553249
0.546827
0.539817
0.532084
0.523485
0.513823
0.502361
0.489703
0.475656
0.459606
0.44121
0.420076
0.395768
0.367761
0.335506
0.298085
0.256581
0.595049
0.584747
0.576485
0.569549
0.563652
0.558552
0.554042
0.549956
0.54615
0.542498
0.538885
0.535199
0.531333
0.527175
0.522611
0.517522
0.51178
0.505211
0.497586
0.48838
0.477758
0.466011
0.4522
0.435928
0.416721
0.393994
0.367073
0.335074
0.297784
0.551534
0.543244
0.5367
0.531291
0.526808
0.523069
0.519914
0.517211
0.514847
0.512718
0.510728
0.508785
0.506799
0.504677
0.502326
0.499642
0.496527
0.492836
0.488393
0.48307
0.476174
0.468044
0.458765
0.447413
0.433515
0.416453
0.395363
0.369348
0.33729
0.508185
0.501644
0.496587
0.492497
0.489237
0.486676
0.484696
0.483197
0.482087
0.481285
0.48071
0.480287
0.47995
0.47961
0.479225
0.478651
0.477912
0.476818
0.475263
0.473092
0.470298
0.465473
0.460501
0.453919
0.445354
0.434379
0.419704
0.400195
0.374529
0.465264
0.460222
0.456435
0.453473
0.451262
0.449714
0.448747
0.448283
0.448252
0.448588
0.449222
0.450085
0.451162
0.452296
0.453676
0.454795
0.456251
0.457367
0.458312
0.458966
0.459187
0.459078
0.456793
0.454576
0.450742
0.447265
0.439659
0.42625
0.407559
0.423035
0.419258
0.416546
0.414546
0.413236
0.412565
0.412473
0.412898
0.413782
0.415077
0.416709
0.418586
0.420859
0.423152
0.426048
0.428689
0.431617
0.434566
0.437539
0.440486
0.443344
0.446128
0.448803
0.448929
0.45047
0.451964
0.449748
0.445385
0.436442
0.381769
0.379048
0.377247
0.376079
0.375567
0.37568
0.376362
0.377545
0.379176
0.381238
0.383629
0.386149
0.389393
0.392701
0.396306
0.400016
0.403976
0.408107
0.412409
0.416859
0.421501
0.426287
0.431514
0.436253
0.440061
0.44642
0.451008
0.454057
0.452057
0.341761
0.339921
0.338916
0.338516
0.338771
0.339639
0.341028
0.342812
0.344938
0.347488
0.35004
0.353285
0.356634
0.360212
0.364027
0.367983
0.372153
0.37649
0.38103
0.385724
0.390821
0.395964
0.401719
0.408788
0.416557
0.424849
0.434921
0.445436
0.453036
0.303386
0.302302
0.302059
0.302473
0.30358
0.305236
0.307245
0.3093
0.311431
0.313699
0.316052
0.318628
0.321362
0.324198
0.327125
0.330065
0.333106
0.336085
0.339138
0.342062
0.345589
0.349559
0.355456
0.361381
0.369611
0.379548
0.390353
0.406741
0.422109
0.267204
0.266827
0.267451
0.268896
0.271082
0.273517
0.275834
0.277246
0.278329
0.278821
0.27926
0.279795
0.280423
0.280919
0.281308
0.281439
0.281501
0.281356
0.281938
0.282143
0.283509
0.283681
0.286617
0.28794
0.293613
0.299806
0.310057
0.325147
0.342079
0.234147
0.234543
0.236329
0.239222
0.242773
0.245613
0.247173
0.246053
0.243438
0.239717
0.23592
0.232362
0.229053
0.225976
0.223026
0.219769
0.21655
0.212641
0.209184
0.204888
0.202417
0.197943
0.197377
0.193936
0.196143
0.195049
0.201134
0.208376
0.226275
0.205745
0.207103
0.210505
0.215254
0.220024
0.222392
0.220407
0.213893
0.204736
0.194808
0.185438
0.177041
0.169616
0.162575
0.156014
0.149525
0.143599
0.137595
0.13263
0.126898
0.122981
0.118366
0.116458
0.113972
0.114095
0.114642
0.117678
0.1204
0.130803
0.184094
0.186613
0.191858
0.19856
0.20354
0.203316
0.196327
0.183627
0.167809
0.151383
0.136736
0.124346
0.114135
0.105621
0.0986908
0.0930941
0.0888566
0.085961
0.0843067
0.0845055
0.0853836
0.0890816
0.0917077
0.0996014
0.102542
0.114989
0.117839
0.135444
0.13084
0.170886
0.174393
0.181333
0.188969
0.19321
0.190578
0.179649
0.162717
0.143318
0.124436
0.108507
0.0959634
0.0867051
0.0805766
0.0771476
0.076339
0.0773518
0.0807052
0.0850522
0.0921069
0.0991209
0.110107
0.118882
0.13494
0.143648
0.167814
0.174544
0.214931
0.205427
0.165714
0.169787
0.177754
0.18609
0.190559
0.187767
0.176827
0.160221
0.141515
0.123724
0.109316
0.0986888
0.0917383
0.0884058
0.0881039
0.0907382
0.0952885
0.102356
0.11047
0.121436
0.132546
0.147857
0.161348
0.182546
0.197375
0.229487
0.244271
0.298224
0.29896
5.80604e-005
5.80604e-005
5.80605e-005
5.80605e-005
5.80605e-005
5.80605e-005
5.80605e-005
5.80606e-005
5.80606e-005
5.80606e-005
5.80606e-005
5.80606e-005
5.80606e-005
5.80607e-005
5.80607e-005
5.80608e-005
5.80608e-005
5.80608e-005
5.80608e-005
5.80608e-005
5.80609e-005
5.80609e-005
5.80609e-005
5.80609e-005
5.80609e-005
5.80609e-005
5.80609e-005
5.80609e-005
5.8061e-005
5.8061e-005
5.8061e-005
5.8061e-005
5.8061e-005
5.80611e-005
5.80611e-005
5.80611e-005
5.80611e-005
5.80611e-005
5.80611e-005
5.80611e-005
5.80612e-005
5.80612e-005
5.80612e-005
5.80612e-005
5.80612e-005
5.80612e-005
5.80612e-005
5.80612e-005
5.80613e-005
5.80613e-005
5.80613e-005
5.80613e-005
5.80613e-005
5.80613e-005
5.80613e-005
5.80613e-005
5.80614e-005
5.80614e-005
5.80614e-005
5.80614e-005
5.80614e-005
5.80614e-005
5.80614e-005
5.80614e-005
5.80615e-005
5.80615e-005
5.80615e-005
5.80615e-005
5.80615e-005
5.80615e-005
5.80615e-005
5.80615e-005
5.80615e-005
5.80616e-005
5.80616e-005
5.80616e-005
5.80616e-005
5.80616e-005
5.80616e-005
5.80616e-005
5.80616e-005
5.80616e-005
5.80616e-005
5.80616e-005
5.80616e-005
5.80616e-005
5.80616e-005
5.80616e-005
5.80617e-005
5.80617e-005
5.80617e-005
5.80617e-005
5.80617e-005
5.80617e-005
5.80617e-005
5.80617e-005
5.80617e-005
5.80617e-005
5.80617e-005
5.80617e-005
5.80617e-005
5.80617e-005
5.80617e-005
5.80617e-005
5.80616e-005
5.80616e-005
5.80616e-005
5.80616e-005
5.80616e-005
5.80616e-005
5.80616e-005
5.80616e-005
5.80616e-005
5.80615e-005
5.80615e-005
5.80615e-005
5.80615e-005
5.80614e-005
5.80615e-005
5.80615e-005
5.80615e-005
5.80615e-005
5.80615e-005
5.80616e-005
5.80616e-005
5.80616e-005
5.80616e-005
5.80617e-005
5.80617e-005
5.80617e-005
5.80618e-005
5.80618e-005
5.8062e-005
5.80621e-005
5.80621e-005
5.80624e-005
5.80623e-005
5.80631e-005
5.93316e-005
4.60762e-006
4.60768e-006
4.60776e-006
4.60783e-006
4.60787e-006
4.6079e-006
4.60795e-006
4.60803e-006
4.60809e-006
4.60812e-006
4.60814e-006
4.60818e-006
4.60826e-006
4.60835e-006
4.60844e-006
4.6085e-006
4.60857e-006
4.60863e-006
4.60868e-006
4.60873e-006
4.60876e-006
4.6088e-006
4.60883e-006
4.60887e-006
4.60891e-006
4.60895e-006
4.609e-006
4.60905e-006
4.6091e-006
4.60916e-006
4.60921e-006
4.60926e-006
4.60931e-006
4.60936e-006
4.6094e-006
4.60944e-006
4.60947e-006
4.60951e-006
4.60955e-006
4.60958e-006
4.60962e-006
4.60966e-006
4.60969e-006
4.60973e-006
4.60977e-006
4.6098e-006
4.60984e-006
4.60987e-006
4.6099e-006
4.60994e-006
4.60997e-006
4.61e-006
4.61003e-006
4.61006e-006
4.6101e-006
4.61013e-006
4.61016e-006
4.6102e-006
4.61023e-006
4.61026e-006
4.6103e-006
4.61033e-006
4.61035e-006
4.61038e-006
4.61041e-006
4.61044e-006
4.61047e-006
4.61049e-006
4.61052e-006
4.61055e-006
4.61057e-006
4.6106e-006
4.61063e-006
4.61065e-006
4.61067e-006
4.6107e-006
4.61072e-006
4.61074e-006
4.61076e-006
4.61078e-006
4.6108e-006
4.61082e-006
4.61083e-006
4.61085e-006
4.61086e-006
4.61087e-006
4.61088e-006
4.61088e-006
4.6109e-006
4.61092e-006
4.61094e-006
4.61096e-006
4.61098e-006
4.61099e-006
4.611e-006
4.61101e-006
4.61101e-006
4.61101e-006
4.61101e-006
4.611e-006
4.61099e-006
4.61098e-006
4.61096e-006
4.61095e-006
4.61093e-006
4.61092e-006
4.6109e-006
4.61088e-006
4.61085e-006
4.61083e-006
4.61079e-006
4.61076e-006
4.61073e-006
4.61068e-006
4.61063e-006
4.61056e-006
4.61051e-006
4.61047e-006
4.61048e-006
4.61051e-006
4.61055e-006
4.61059e-006
4.61063e-006
4.61068e-006
4.6107e-006
4.61077e-006
4.61075e-006
4.61086e-006
4.61087e-006
4.61094e-006
4.61113e-006
4.6112e-006
4.61136e-006
4.6119e-006
4.61159e-006
4.61223e-006
4.61764e-006
4.61588e-006
4.56534e-006
7.23908e-007
7.23973e-007
7.24021e-007
7.24064e-007
7.24108e-007
7.24153e-007
7.24192e-007
7.24224e-007
7.24255e-007
7.24289e-007
7.24327e-007
7.24363e-007
7.24392e-007
7.24416e-007
7.24442e-007
7.2447e-007
7.24499e-007
7.24529e-007
7.24559e-007
7.24589e-007
7.24622e-007
7.24655e-007
7.2469e-007
7.24724e-007
7.24759e-007
7.24792e-007
7.24825e-007
7.24858e-007
7.2489e-007
7.24922e-007
7.24954e-007
7.24986e-007
7.25018e-007
7.2505e-007
7.2508e-007
7.25107e-007
7.25134e-007
7.2516e-007
7.25187e-007
7.25214e-007
7.25242e-007
7.25269e-007
7.25296e-007
7.25323e-007
7.25349e-007
7.25376e-007
7.25402e-007
7.25428e-007
7.25453e-007
7.25479e-007
7.25503e-007
7.25528e-007
7.25551e-007
7.25575e-007
7.25598e-007
7.2562e-007
7.25641e-007
7.25662e-007
7.25682e-007
7.25702e-007
7.25722e-007
7.25742e-007
7.25762e-007
7.25782e-007
7.25802e-007
7.25822e-007
7.25841e-007
7.2586e-007
7.25879e-007
7.25897e-007
7.25915e-007
7.25932e-007
7.25949e-007
7.25965e-007
7.25981e-007
7.25996e-007
7.2601e-007
7.26024e-007
7.26036e-007
7.26048e-007
7.2606e-007
7.26071e-007
7.26081e-007
7.26091e-007
7.261e-007
7.26108e-007
7.26116e-007
7.26123e-007
7.26133e-007
7.26147e-007
7.26161e-007
7.26175e-007
7.26188e-007
7.262e-007
7.26211e-007
7.26221e-007
7.26231e-007
7.26239e-007
7.26246e-007
7.26252e-007
7.26256e-007
7.26259e-007
7.2626e-007
7.26259e-007
7.26257e-007
7.26253e-007
7.26247e-007
7.26238e-007
7.26228e-007
7.26215e-007
7.26197e-007
7.26176e-007
7.26154e-007
7.2613e-007
7.26101e-007
7.26071e-007
7.26047e-007
7.26031e-007
7.26022e-007
7.26015e-007
7.26006e-007
7.25996e-007
7.25965e-007
7.25963e-007
7.2591e-007
7.25908e-007
7.25868e-007
7.2584e-007
7.25827e-007
7.25826e-007
7.25809e-007
7.25962e-007
7.25778e-007
7.25778e-007
7.27341e-007
7.28443e-007
6.06438e-007
6.59924e-007
2.13791e-005
2.13005e-007
2.13034e-007
2.1306e-007
2.13085e-007
2.13105e-007
2.13124e-007
2.13144e-007
2.13165e-007
2.13186e-007
2.13204e-007
2.13219e-007
2.13236e-007
2.13255e-007
2.13278e-007
2.133e-007
2.1332e-007
2.13339e-007
2.13358e-007
2.13377e-007
2.13395e-007
2.13414e-007
2.13432e-007
2.1345e-007
2.13468e-007
2.13487e-007
2.13507e-007
2.13528e-007
2.13549e-007
2.13571e-007
2.13592e-007
2.13615e-007
2.13637e-007
2.13659e-007
2.13682e-007
2.13704e-007
2.13726e-007
2.13748e-007
2.1377e-007
2.13791e-007
2.13812e-007
2.13833e-007
2.13854e-007
2.13875e-007
2.13896e-007
2.13916e-007
2.13936e-007
2.13956e-007
2.13976e-007
2.13996e-007
2.14015e-007
2.14034e-007
2.14052e-007
2.14071e-007
2.14089e-007
2.14106e-007
2.14124e-007
2.14141e-007
2.14158e-007
2.14175e-007
2.14191e-007
2.14209e-007
2.14226e-007
2.14243e-007
2.1426e-007
2.14277e-007
2.14293e-007
2.1431e-007
2.14325e-007
2.14341e-007
2.14356e-007
2.14371e-007
2.14385e-007
2.144e-007
2.14413e-007
2.14427e-007
2.1444e-007
2.14453e-007
2.14466e-007
2.14478e-007
2.1449e-007
2.14501e-007
2.14512e-007
2.14522e-007
2.14532e-007
2.14541e-007
2.1455e-007
2.14558e-007
2.14566e-007
2.14574e-007
2.14582e-007
2.1459e-007
2.14598e-007
2.14606e-007
2.14614e-007
2.14622e-007
2.14629e-007
2.14636e-007
2.14643e-007
2.14649e-007
2.14654e-007
2.14658e-007
2.14662e-007
2.14664e-007
2.14666e-007
2.14666e-007
2.14666e-007
2.14664e-007
2.14661e-007
2.14656e-007
2.14651e-007
2.14642e-007
2.1463e-007
2.14616e-007
2.146e-007
2.14581e-007
2.14562e-007
2.14542e-007
2.14524e-007
2.14507e-007
2.1449e-007
2.14472e-007
2.14452e-007
2.14424e-007
2.14404e-007
2.14366e-007
2.14337e-007
2.14302e-007
2.14271e-007
2.14219e-007
2.14257e-007
2.14356e-007
2.13199e-007
2.14275e-007
2.17736e-007
1.99113e-007
1.86328e-007
3.3483e-006
0.000562217
0.0191321
1.03599e-007
1.03618e-007
1.03633e-007
1.03646e-007
1.03661e-007
1.03677e-007
1.0369e-007
1.03701e-007
1.03712e-007
1.03725e-007
1.03741e-007
1.03756e-007
1.03768e-007
1.03778e-007
1.03791e-007
1.03805e-007
1.03819e-007
1.03833e-007
1.03848e-007
1.03863e-007
1.03879e-007
1.03895e-007
1.03913e-007
1.03931e-007
1.03949e-007
1.03966e-007
1.03984e-007
1.04002e-007
1.0402e-007
1.04038e-007
1.04056e-007
1.04075e-007
1.04094e-007
1.04113e-007
1.04132e-007
1.04151e-007
1.0417e-007
1.0419e-007
1.04209e-007
1.04229e-007
1.04248e-007
1.04267e-007
1.04286e-007
1.04305e-007
1.04324e-007
1.04342e-007
1.04361e-007
1.04379e-007
1.04398e-007
1.04416e-007
1.04434e-007
1.04452e-007
1.04469e-007
1.04487e-007
1.04504e-007
1.04521e-007
1.04538e-007
1.04555e-007
1.04572e-007
1.04589e-007
1.04606e-007
1.04623e-007
1.04639e-007
1.04656e-007
1.04672e-007
1.04688e-007
1.04703e-007
1.04718e-007
1.04733e-007
1.04748e-007
1.04762e-007
1.04776e-007
1.0479e-007
1.04803e-007
1.04816e-007
1.04829e-007
1.04842e-007
1.04854e-007
1.04866e-007
1.04878e-007
1.04889e-007
1.049e-007
1.04911e-007
1.04921e-007
1.04931e-007
1.04941e-007
1.0495e-007
1.04959e-007
1.04967e-007
1.04974e-007
1.04981e-007
1.04988e-007
1.04994e-007
1.05e-007
1.05006e-007
1.05012e-007
1.05017e-007
1.05022e-007
1.05027e-007
1.05031e-007
1.05035e-007
1.05037e-007
1.0504e-007
1.05041e-007
1.05042e-007
1.05042e-007
1.05041e-007
1.0504e-007
1.05037e-007
1.05034e-007
1.05029e-007
1.05021e-007
1.05011e-007
1.04999e-007
1.04985e-007
1.0497e-007
1.04954e-007
1.04937e-007
1.04921e-007
1.04904e-007
1.04887e-007
1.04867e-007
1.04844e-007
1.0482e-007
1.0479e-007
1.04758e-007
1.04724e-007
1.04688e-007
1.04674e-007
1.04503e-007
1.0342e-007
1.0966e-007
1.04908e-007
8.64916e-008
1.92071e-007
9.31172e-006
0.00080793
0.0219123
0.134167
7.04002e-008
7.04107e-008
7.04209e-008
7.04324e-008
7.04425e-008
7.04498e-008
7.04588e-008
7.04702e-008
7.04833e-008
7.04935e-008
7.05009e-008
7.05085e-008
7.05194e-008
7.05329e-008
7.05464e-008
7.05579e-008
7.05698e-008
7.05821e-008
7.05945e-008
7.06074e-008
7.06206e-008
7.06336e-008
7.06463e-008
7.06585e-008
7.06709e-008
7.06841e-008
7.06981e-008
7.07124e-008
7.0727e-008
7.07415e-008
7.07563e-008
7.07712e-008
7.07862e-008
7.08013e-008
7.08166e-008
7.08322e-008
7.08479e-008
7.08637e-008
7.08795e-008
7.08953e-008
7.09111e-008
7.0927e-008
7.09428e-008
7.09585e-008
7.09741e-008
7.09897e-008
7.10052e-008
7.10207e-008
7.10361e-008
7.10514e-008
7.10667e-008
7.10819e-008
7.10971e-008
7.11121e-008
7.11272e-008
7.11421e-008
7.11569e-008
7.11715e-008
7.11862e-008
7.12008e-008
7.12153e-008
7.12294e-008
7.12434e-008
7.12572e-008
7.12706e-008
7.12839e-008
7.1297e-008
7.13099e-008
7.13224e-008
7.13348e-008
7.13469e-008
7.13589e-008
7.13706e-008
7.13819e-008
7.13933e-008
7.14042e-008
7.14151e-008
7.14256e-008
7.14357e-008
7.14457e-008
7.14554e-008
7.1465e-008
7.14742e-008
7.14831e-008
7.14917e-008
7.15001e-008
7.15082e-008
7.15162e-008
7.15233e-008
7.15296e-008
7.15353e-008
7.15407e-008
7.15457e-008
7.15504e-008
7.15548e-008
7.15588e-008
7.15625e-008
7.15658e-008
7.15688e-008
7.15712e-008
7.15732e-008
7.15747e-008
7.15756e-008
7.15762e-008
7.15761e-008
7.15754e-008
7.15742e-008
7.15722e-008
7.15693e-008
7.15657e-008
7.15616e-008
7.15564e-008
7.15489e-008
7.15397e-008
7.15292e-008
7.15175e-008
7.15044e-008
7.14904e-008
7.14766e-008
7.14629e-008
7.14476e-008
7.14314e-008
7.14121e-008
7.13922e-008
7.13685e-008
7.13433e-008
7.13188e-008
7.12786e-008
7.11403e-008
7.10871e-008
7.71377e-008
5.74932e-008
7.08831e-008
5.04414e-007
3.89584e-005
0.00189084
0.0332257
0.168148
0.412553
6.00499e-008
6.00586e-008
6.00649e-008
6.00713e-008
6.00805e-008
6.0089e-008
6.0099e-008
6.01063e-008
6.01116e-008
6.01195e-008
6.01309e-008
6.01445e-008
6.01551e-008
6.01629e-008
6.01696e-008
6.0179e-008
6.01887e-008
6.01984e-008
6.02084e-008
6.02187e-008
6.02289e-008
6.02391e-008
6.02497e-008
6.02614e-008
6.02742e-008
6.02866e-008
6.02983e-008
6.031e-008
6.03217e-008
6.03337e-008
6.03457e-008
6.03578e-008
6.03699e-008
6.03821e-008
6.03945e-008
6.04069e-008
6.04193e-008
6.04319e-008
6.04442e-008
6.04566e-008
6.04689e-008
6.0481e-008
6.04934e-008
6.05059e-008
6.05182e-008
6.05307e-008
6.05431e-008
6.05553e-008
6.05677e-008
6.05798e-008
6.05919e-008
6.0604e-008
6.0616e-008
6.06279e-008
6.06398e-008
6.06514e-008
6.0663e-008
6.06745e-008
6.06858e-008
6.06972e-008
6.07083e-008
6.07192e-008
6.07297e-008
6.07399e-008
6.07503e-008
6.07603e-008
6.07701e-008
6.07799e-008
6.07896e-008
6.07988e-008
6.0808e-008
6.08172e-008
6.08257e-008
6.08346e-008
6.08427e-008
6.08511e-008
6.08594e-008
6.08668e-008
6.08743e-008
6.08815e-008
6.08889e-008
6.08957e-008
6.09027e-008
6.09091e-008
6.09154e-008
6.09214e-008
6.09272e-008
6.09327e-008
6.09378e-008
6.09425e-008
6.09466e-008
6.09505e-008
6.09541e-008
6.09569e-008
6.09594e-008
6.09617e-008
6.09635e-008
6.09651e-008
6.09661e-008
6.09668e-008
6.09669e-008
6.09668e-008
6.09659e-008
6.09649e-008
6.09627e-008
6.09607e-008