/*--------------------------------*- C++ -*----------------------------------*\
| =========                 |                                                 |
| \\      /  F ield         | OpenFOAM: The Open Source CFD Toolbox           |
|  \\    /   O peration     | Version:  5.x                                   |
|   \\  /    A nd           | Web:      www.OpenFOAM.org                      |
|    \\/     M anipulation  |                                                 |
\*---------------------------------------------------------------------------*/
/*   Windows 32 and 64 bit porting by blueCAPE: http://www.bluecape.com.pt   *\
|  Based on Windows porting (2.0.x v4) by Symscape: http://www.symscape.com   |
\*---------------------------------------------------------------------------*/
FoamFile
{
    version     2.0;
    format      ascii;
    class       volScalarField;
    location    "200";
    object      p;
}
// * * * * * * * * * * * * * * * * * * * * * * * * * * * * * * * * * * * * * //

dimensions      [0 2 -2 0 0 0 0];

internalField   nonuniform List<scalar> 
43900
(
0.368776
0.368432
0.368389
0.368262
0.368062
0.367834
0.367638
0.367295
0.367059
0.366746
0.366426
0.366099
0.365757
0.365402
0.365037
0.364663
0.36428
0.363888
0.363489
0.363082
0.362669
0.362249
0.361824
0.361392
0.360956
0.360514
0.360068
0.359617
0.359162
0.366718
0.374784
0.368657
0.371944
0.36944
0.370198
0.369285
0.36912
0.368675
0.368246
0.367837
0.367408
0.366978
0.366549
0.366119
0.365686
0.365251
0.364813
0.364372
0.363928
0.363481
0.36303
0.362577
0.362121
0.361661
0.361198
0.360731
0.360262
0.359789
0.359765
0.38154
0.370443
0.376697
0.371606
0.374181
0.371785
0.372133
0.371047
0.370627
0.370052
0.369499
0.368965
0.368441
0.367925
0.367415
0.366908
0.366406
0.365907
0.36541
0.364914
0.364419
0.363924
0.363428
0.362931
0.362434
0.361934
0.361433
0.360931
0.354781
0.382455
0.375727
0.375543
0.375189
0.374766
0.373681
0.373659
0.372865
0.372507
0.371954
0.371448
0.370941
0.370435
0.369929
0.36942
0.368912
0.368403
0.367894
0.367384
0.366873
0.36636
0.365846
0.36533
0.364812
0.364291
0.363768
0.363243
0.362715
0.357303
0.381033
0.37604
0.375445
0.375439
0.375021
0.374829
0.3746
0.37409
0.373789
0.373368
0.372958
0.372545
0.372116
0.371671
0.371216
0.370752
0.370278
0.369796
0.369306
0.368809
0.368304
0.367794
0.367278
0.366756
0.366228
0.365697
0.365159
0.364615
0.361767
0.379903
0.376812
0.376539
0.376483
0.376093
0.375852
0.375615
0.375393
0.375135
0.374774
0.374437
0.374074
0.373693
0.373296
0.372885
0.372459
0.372018
0.371565
0.371098
0.370618
0.370125
0.369623
0.369109
0.368583
0.368051
0.367505
0.36695
0.366391
0.367761
0.381488
0.37969
0.379181
0.379147
0.379016
0.378697
0.37825
0.377934
0.37769
0.377362
0.377012
0.376653
0.376271
0.375876
0.37547
0.375048
0.37461
0.37416
0.373696
0.373215
0.372723
0.372215
0.371691
0.371158
0.370607
0.370042
0.36947
0.36888
0.374454
0.385411
0.384268
0.383676
0.383507
0.383372
0.383164
0.382825
0.382393
0.381977
0.381642
0.381289
0.380897
0.380492
0.380073
0.37964
0.379188
0.378724
0.378249
0.377751
0.377242
0.376719
0.376178
0.375626
0.375052
0.374471
0.373878
0.373259
0.372637
0.381949
0.390853
0.390137
0.389534
0.389282
0.389094
0.388867
0.388585
0.388226
0.387758
0.3873
0.386922
0.386521
0.386084
0.385641
0.385173
0.384684
0.384184
0.383655
0.383113
0.382555
0.381974
0.38138
0.38076
0.380136
0.379495
0.378827
0.378159
0.377466
0.39102
0.397555
0.397159
0.396558
0.396224
0.395966
0.39568
0.395355
0.394986
0.394553
0.394026
0.393481
0.393002
0.392511
0.391983
0.391443
0.390889
0.390307
0.389707
0.389081
0.388439
0.387783
0.387093
0.386396
0.385674
0.384927
0.384177
0.383395
0.382592
0.400104
0.405712
0.40542
0.404785
0.404374
0.404039
0.403678
0.403272
0.402823
0.402327
0.401765
0.401114
0.400421
0.399788
0.399164
0.398496
0.397821
0.397127
0.396397
0.395661
0.394906
0.39411
0.393306
0.392473
0.391615
0.390756
0.389859
0.388943
0.388019
0.410131
0.415086
0.414841
0.414168
0.413691
0.413288
0.412856
0.412377
0.41185
0.411272
0.410638
0.409935
0.409153
0.408322
0.407548
0.406799
0.406
0.405187
0.404362
0.403494
0.402599
0.401695
0.400745
0.399775
0.398803
0.397775
0.396737
0.395682
0.394592
0.421491
0.425577
0.425354
0.424663
0.42413
0.423663
0.423169
0.422627
0.422034
0.421389
0.420686
0.419922
0.419089
0.418187
0.417251
0.416345
0.415471
0.41457
0.413628
0.412663
0.411682
0.410633
0.40957
0.408489
0.407341
0.40619
0.405008
0.403777
0.402559
0.433829
0.437118
0.43688
0.436171
0.435583
0.435049
0.434484
0.433868
0.433198
0.432469
0.431678
0.430821
0.429894
0.428894
0.427835
0.426755
0.425693
0.424648
0.423592
0.422511
0.421355
0.420199
0.418988
0.41771
0.416447
0.415129
0.413762
0.41241
0.410968
0.447017
0.449662
0.449383
0.448646
0.447998
0.447389
0.446743
0.446038
0.445269
0.444433
0.443525
0.442541
0.441479
0.440331
0.439098
0.437815
0.436523
0.435258
0.434003
0.432705
0.431398
0.43001
0.428583
0.427184
0.425666
0.424124
0.422596
0.420967
0.419337
0.461087
0.463242
0.462905
0.462132
0.461423
0.460736
0.460004
0.459204
0.45833
0.457377
0.45634
0.455215
0.453999
0.452689
0.451277
0.44977
0.448219
0.446651
0.445163
0.443652
0.442034
0.440444
0.438842
0.437085
0.435331
0.433596
0.43174
0.429882
0.428005
0.475968
0.477785
0.477386
0.476567
0.475793
0.475028
0.474208
0.47331
0.472328
0.471254
0.470085
0.468813
0.467437
0.465954
0.464358
0.462647
0.460849
0.45904
0.457201
0.455382
0.453603
0.451738
0.449796
0.447849
0.44585
0.443758
0.441632
0.439477
0.437257
0.491612
0.493214
0.492756
0.491886
0.491045
0.490202
0.489293
0.488296
0.487203
0.486007
0.4847
0.483276
0.481733
0.480069
0.478279
0.476357
0.47431
0.472197
0.470115
0.468062
0.465981
0.463809
0.461632
0.459376
0.457056
0.454709
0.452287
0.449843
0.447342
0.507938
0.509425
0.508913
0.507987
0.507078
0.506155
0.505157
0.504058
0.50285
0.501524
0.500074
0.498491
0.496771
0.494911
0.492909
0.490759
0.488464
0.486054
0.483561
0.481181
0.478779
0.476325
0.473882
0.471347
0.468678
0.465976
0.463241
0.460432
0.457582
0.524828
0.526291
0.525729
0.524738
0.523756
0.522751
0.521656
0.520448
0.519114
0.517647
0.516035
0.514271
0.51235
0.510269
0.508023
0.505608
0.50302
0.500287
0.497512
0.49466
0.491887
0.489139
0.486275
0.483311
0.480312
0.477291
0.474155
0.470952
0.467701
0.542174
0.543686
0.54308
0.54202
0.540962
0.539872
0.538681
0.53736
0.535898
0.534282
0.532505
0.530558
0.528432
0.526123
0.523626
0.52094
0.518057
0.514975
0.511743
0.508589
0.505394
0.502168
0.498942
0.495659
0.492246
0.488704
0.485129
0.481638
0.477944
0.559851
0.561468
0.560822
0.55969
0.558555
0.557381
0.556092
0.554657
0.553065
0.551302
0.549357
0.547219
0.54488
0.542333
0.539575
0.5366
0.533405
0.529993
0.526404
0.522683
0.519051
0.515423
0.511697
0.507893
0.504097
0.500174
0.496087
0.491949
0.48776
0.577721
0.579485
0.578804
0.577598
0.576388
0.57513
0.573744
0.572196
0.570473
0.568559
0.566442
0.564108
0.56155
0.558759
0.55573
0.552456
0.548928
0.545134
0.541118
0.53705
0.532886
0.528764
0.524616
0.520373
0.515915
0.511449
0.506985
0.50243
0.49779
0.59564
0.597583
0.596871
0.595595
0.594312
0.592974
0.591495
0.589838
0.587988
0.585928
0.583643
0.58112
0.578347
0.575316
0.572018
0.56845
0.564604
0.560469
0.556043
0.551442
0.546814
0.542179
0.537474
0.532695
0.527932
0.523031
0.517882
0.512606
0.507416
0.613449
0.615593
0.614854
0.613508
0.612156
0.610742
0.609172
0.607408
0.605431
0.603224
0.60077
0.598054
0.595062
0.591784
0.588211
0.584335
0.580148
0.575647
0.570836
0.565806
0.560581
0.555407
0.550231
0.544884
0.539372
0.533793
0.528222
0.522553
0.516665
0.631004
0.63336
0.632599
0.63119
0.629775
0.62829
0.626636
0.62477
0.622674
0.620327
0.617712
0.614811
0.611608
0.608091
0.604251
0.600079
0.595566
0.590697
0.585463
0.579938
0.574262
0.568419
0.562502
0.556617
0.550742
0.544568
0.538188
0.53177
0.525353
0.648158
0.650732
0.649952
0.648486
0.647014
0.645466
0.643734
0.641773
0.639564
0.637085
0.634316
0.631236
0.627829
0.624082
0.619981
0.615516
0.610679
0.60546
0.599838
0.593828
0.587492
0.581152
0.574707
0.568054
0.561399
0.554711
0.547703
0.540564
0.533378
0.66478
0.66757
0.666775
0.66526
0.663739
0.662136
0.660333
0.658286
0.655973
0.65337
0.650455
0.647207
0.643607
0.639638
0.635287
0.630541
0.625388
0.619815
0.613811
0.607393
0.600604
0.59347
0.586389
0.579195
0.571677
0.564207
0.556648
0.548807
0.540828
0.680753
0.683751
0.682945
0.681388
0.679827
0.678175
0.67631
0.674184
0.671775
0.669056
0.666005
0.662597
0.658813
0.654634
0.650041
0.645021
0.639563
0.633648
0.627251
0.620367
0.613115
0.605504
0.597576
0.58964
0.581575
0.573221
0.564805
0.556203
0.547399
0.695978
0.699171
0.698358
0.696767
0.695173
0.69348
0.691558
0.689361
0.686861
0.684034
0.680853
0.677294
0.673333
0.668949
0.664121
0.658834
0.653073
0.646826
0.640071
0.632768
0.624968
0.61679
0.608296
0.599504
0.590582
0.581515
0.572194
0.562771
0.553203
0.710378
0.71375
0.712931
0.711314
0.709695
0.707966
0.705995
0.703731
0.701148
0.698218
0.694914
0.69121
0.687077
0.682493
0.677437
0.671889
0.665833
0.659255
0.652142
0.644469
0.636224
0.62746
0.618264
0.608816
0.599019
0.589004
0.578916
0.568565
0.558044
0.723901
0.727428
0.726604
0.72497
0.723332
0.721574
0.719557
0.717233
0.714572
0.711547
0.708126
0.704279
0.699977
0.695197
0.689916
0.684111
0.677764
0.670859
0.663381
0.655309
0.646636
0.637382
0.627573
0.617261
0.606705
0.595835
0.584675
0.573395
0.561978
0.736511
0.740168
0.73934
0.737695
0.736045
0.734262
0.732206
0.729826
0.727093
0.723975
0.72044
0.716453
0.711987
0.707016
0.701513
0.69545
0.688809
0.681571
0.673723
0.665246
0.656113
0.646331
0.635996
0.624997
0.613498
0.601772
0.58972
0.577395
0.564873
0.748196
0.751952
0.75112
0.749473
0.747816
0.746013
0.743921
0.741489
0.738686
0.735478
0.731831
0.72771
0.723084
0.717923
0.712194
0.705871
0.69893
0.691351
0.68312
0.674222
0.664635
0.654329
0.64335
0.63179
0.619523
0.606705
0.593635
0.580165
0.566563
0.758959
0.762783
0.761946
0.760302
0.758645
0.756825
0.754701
0.75222
0.749352
0.746059
0.742305
0.738052
0.733267
0.727911
0.721951
0.715359
0.708109
0.700175
0.691538
0.682184
0.672102
0.661269
0.649666
0.637332
0.624403
0.610682
0.596386
0.581914
0.567044
0.76882
0.772677
0.771833
0.7702
0.768547
0.766715
0.764562
0.762038
0.759108
0.755735
0.751878
0.747496
0.742547
0.736993
0.730801
0.723936
0.716361
0.70805
0.69898
0.689135
0.678502
0.667071
0.654834
0.641794
0.627991
0.61354
0.598256
0.582312
0.566216
0.777808
0.781663
0.780812
0.779195
0.777551
0.775711
0.773534
0.770969
0.767983
0.764533
0.760575
0.756065
0.750958
0.745213
0.738787
0.731635
0.72372
0.715011
0.705479
0.695104
0.683871
0.671775
0.658814
0.645013
0.630389
0.614974
0.598704
0.581716
0.564029
0.785964
0.789781
0.788922
0.787328
0.785698
0.783852
0.781655
0.779056
0.776018
0.772497
0.768446
0.763815
0.758556
0.752618
0.745948
0.738503
0.730241
0.721115
0.711092
0.700144
0.688256
0.675423
0.661647
0.64695
0.631385
0.614978
0.597723
0.579491
0.560586
0.793335
0.797079
0.796211
0.794646
0.793033
0.791187
0.788974
0.786347
0.783264
0.77968
0.775542
0.770797
0.76539
0.759261
0.752358
0.744623
0.735999
0.726438
0.715895
0.704334
0.691732
0.678082
0.663389
0.647685
0.631008
0.613452
0.595059
0.575778
0.555452
0.799971
0.803611
0.802733
0.801203
0.799612
0.797769
0.795547
0.792897
0.789778
0.786138
0.781922
0.777072
0.771526
0.76522
0.758088
0.75006
0.741072
0.731066
0.719981
0.707769
0.694398
0.67985
0.664133
0.64728
0.629353
0.610411
0.590606
0.57007
0.548494
0.805927
0.809433
0.808545
0.807055
0.805491
0.803656
0.80143
0.798766
0.795618
0.791934
0.787652
0.782709
0.777036
0.770561
0.763207
0.754898
0.745554
0.735094
0.723449
0.710555
0.696363
0.680843
0.663992
0.645841
0.626462
0.605957
0.584419
0.562164
0.539198
0.811256
0.814604
0.813707
0.812262
0.810729
0.808907
0.806684
0.804014
0.800848
0.79713
0.792794
0.787772
0.781987
0.77536
0.767802
0.759222
0.749527
0.738619
0.726407
0.712807
0.69775
0.681186
0.663096
0.643499
0.622467
0.600135
0.576648
0.552237
0.527375
0.816013
0.819182
0.818277
0.816883
0.815385
0.813582
0.811369
0.808701
0.805528
0.801788
0.797413
0.792328
0.78645
0.779688
0.771944
0.763111
0.753081
0.741738
0.728961
0.714643
0.698687
0.681016
0.661586
0.640399
0.617516
0.593082
0.567321
0.540465
0.513083
0.820248
0.823224
0.822313
0.820975
0.819517
0.817737
0.815542
0.812886
0.809716
0.805968
0.801569
0.796438
0.790485
0.783611
0.775703
0.766642
0.756298
0.744537
0.731212
0.716177
0.699302
0.680474
0.659616
0.636696
0.611759
0.584946
0.556533
0.526844
0.496456
0.824012
0.826783
0.825871
0.824594
0.823179
0.821429
0.81926
0.816625
0.813469
0.809725
0.805316
0.800158
0.794152
0.787189
0.779146
0.769885
0.759258
0.747103
0.733251
0.717518
0.699724
0.679708
0.657344
0.632558
0.605357
0.575873
0.544407
0.511411
0.477514
0.82735
0.829912
0.829003
0.827791
0.826423
0.82471
0.822574
0.819969
0.816836
0.813108
0.808705
0.803536
0.797499
0.790474
0.782325
0.772899
0.762026
0.749517
0.735168
0.718763
0.700071
0.678859
0.654938
0.628165
0.598494
0.566027
0.531076
0.494205
0.456247
0.830304
0.832657
0.831755
0.830614
0.829298
0.827627
0.825532
0.822964
0.819864
0.816162
0.811778
0.806617
0.80057
0.793508
0.785285
0.77573
0.764654
0.751838
0.737041
0.720004
0.700446
0.678065
0.652566
0.623713
0.591376
0.5556
0.516688
0.475272
0.432534
0.832913
0.83506
0.834173
0.833107
0.831848
0.830225
0.828176
0.825651
0.822591
0.818925
0.814571
0.809433
0.803397
0.796325
0.78806
0.778415
0.76718
0.75411
0.738929
0.721323
0.70095
0.67744
0.650396
0.619416
0.584252
0.544827
0.501424
0.454682
0.406233
0.835209
0.837161
0.836297
0.83531
0.834111
0.832542
0.830545
0.828068
0.825052
0.821429
0.817115
0.812014
0.806007
0.79895
0.790672
0.780977
0.769631
0.756366
0.740869
0.722776
0.701677
0.677101
0.648568
0.615477
0.577411
0.534045
0.485578
0.432551
0.377228
0.837222
0.838995
0.83816
0.837258
0.836123
0.834612
0.83267
0.830243
0.827274
0.823698
0.819432
0.814382
0.80842
0.8014
0.79314
0.783432
0.772028
0.758631
0.7429
0.724414
0.702708
0.677184
0.647253
0.612124
0.571185
0.523632
0.469572
0.409201
0.345617
0.838976
0.840593
0.839795
0.83898
0.837912
0.836464
0.834578
0.832201
0.829279
0.825751
0.821541
0.816551
0.810652
0.803693
0.795486
0.785808
0.774402
0.760946
0.745077
0.726321
0.704163
0.677876
0.646758
0.609714
0.566015
0.514147
0.454095
0.38514
0.311664
0.840491
0.841987
0.841226
0.840501
0.839501
0.838116
0.836285
0.833954
0.831079
0.827603
0.823459
0.818544
0.812735
0.805868
0.797758
0.788168
0.776835
0.763418
0.747541
0.728677
0.706279
0.679472
0.647499
0.608844
0.562688
0.506571
0.440377
0.361448
0.276092
0.841783
0.8432
0.842475
0.841836
0.840902
0.839578
0.837799
0.835517
0.832694
0.829287
0.825231
0.820427
0.814749
0.808031
0.800085
0.79067
0.779519
0.766276
0.750556
0.731788
0.709415
0.682423
0.650029
0.610302
0.562315
0.502359
0.430334
0.34026
0.240708
0.842867
0.844253
0.843554
0.842994
0.842118
0.840852
0.839131
0.836916
0.834178
0.830886
0.826975
0.822345
0.816869
0.810378
0.802687
0.793553
0.782709
0.769793
0.754416
0.735977
0.713915
0.687123
0.654791
0.614638
0.565628
0.502723
0.425522
0.323777
0.207006
0.843744
0.845145
0.844454
0.843957
0.84313
0.841928
0.840292
0.838199
0.835619
0.832521
0.828835
0.824456
0.819256
0.813068
0.80571
0.796939
0.786488
0.77399
0.759064
0.741088
0.719501
0.693116
0.66112
0.620925
0.571379
0.506312
0.424197
0.311061
0.172285
0.844381
0.845829
0.845122
0.844667
0.843879
0.842751
0.841241
0.839327
0.836979
0.834148
0.830749
0.826667
0.82177
0.815897
0.808867
0.80043
0.790319
0.778148
0.763555
0.745868
0.724573
0.698318
0.666414
0.625822
0.575501
0.507961
0.42028
0.29417
0.127181
0.844751
0.846253
0.845515
0.845084
0.844323
0.843259
0.841864
0.840119
0.837985
0.8354
0.832258
0.828426
0.823769
0.818113
0.811274
0.80298
0.792976
0.780846
0.766262
0.74845
0.727003
0.700316
0.667939
0.626169
0.574443
0.5033
0.409701
0.267613
0.0635784
0.845121
0.846661
0.845908
0.845508
0.844797
0.843805
0.842487
0.840811
0.838741
0.836229
0.833174
0.829431
0.824855
0.819242
0.812389
0.803985
0.793795
0.781419
0.766536
0.748294
0.72633
0.698877
0.665559
0.622221
0.568487
0.493242
0.394335
0.238745
-0.0066339
0.846721
0.848268
0.847548
0.847268
0.84689
0.846439
0.845734
0.844552
0.842726
0.840138
0.83676
0.832559
0.827416
0.821184
0.813687
0.80471
0.793989
0.781081
0.765531
0.746744
0.723884
0.695946
0.661158
0.617588
0.56057
0.48529
0.37942
0.228455
0.0476379
0.358621
0.35799
0.357353
0.35671
0.35606
0.355405
0.354744
0.354078
0.353407
0.352732
0.352052
0.351368
0.350679
0.349987
0.349292
0.348593
0.347891
0.347185
0.346477
0.345766
0.345053
0.344338
0.34362
0.342901
0.34218
0.341457
0.340734
0.340009
0.339283
0.338557
0.337831
0.337104
0.336377
0.33565
0.334924
0.334198
0.333473
0.332749
0.332027
0.331306
0.330586
0.329868
0.329153
0.32844
0.327729
0.327021
0.326317
0.325615
0.324917
0.324223
0.323532
0.322846
0.322164
0.321487
0.320814
0.320147
0.319485
0.318828
0.318177
0.317532
0.316893
0.316261
0.315634
0.315014
0.314401
0.313795
0.313196
0.312605
0.312021
0.311444
0.310876
0.310315
0.309763
0.309219
0.308683
0.308156
0.307638
0.307129
0.306629
0.306138
0.305656
0.305184
0.304721
0.304268
0.303825
0.303391
0.302968
0.302555
0.302151
0.301759
0.301377
0.301005
0.300644
0.300294
0.299954
0.299625
0.299308
0.299001
0.298705
0.29842
0.298146
0.297882
0.29763
0.297389
0.297159
0.29694
0.296732
0.296534
0.296347
0.296171
0.296004
0.295849
0.295703
0.295567
0.295441
0.295324
0.295216
0.295118
0.295029
0.294951
0.294882
0.294823
0.294772
0.294729
0.294694
0.294666
0.294644
0.294631
0.294621
0.29462
0.294624
0.294634
0.294652
0.294673
0.294709
0.294741
0.294807
0.294831
0.294983
0.359229
0.358578
0.357921
0.357258
0.35659
0.355917
0.355238
0.354554
0.353866
0.353172
0.352474
0.351771
0.351064
0.350353
0.349638
0.34892
0.348198
0.347473
0.346744
0.346013
0.34528
0.344544
0.343805
0.343065
0.342323
0.341579
0.340833
0.340087
0.339339
0.338591
0.337842
0.337092
0.336343
0.335594
0.334845
0.334097
0.333349
0.332603
0.331858
0.331115
0.330373
0.329634
0.328897
0.328162
0.32743
0.326701
0.325975
0.325253
0.324534
0.32382
0.323109
0.322403
0.321701
0.321003
0.320311
0.319624
0.318942
0.318266
0.317596
0.316931
0.316273
0.315621
0.314976
0.314338
0.313706
0.313082
0.312466
0.311857
0.311256
0.310663
0.310078
0.309502
0.308934
0.308374
0.307824
0.307282
0.30675
0.306227
0.305713
0.305209
0.304715
0.304231
0.303757
0.303293
0.30284
0.302397
0.301965
0.301543
0.301133
0.300733
0.300345
0.299967
0.2996
0.299245
0.298901
0.298569
0.298247
0.297938
0.29764
0.297354
0.297079
0.296816
0.296565
0.296325
0.296097
0.295881
0.295677
0.295484
0.295303
0.295133
0.294975
0.294829
0.294694
0.294571
0.294459
0.294358
0.294269
0.29419
0.294122
0.294063
0.294013
0.293971
0.293937
0.293912
0.293894
0.293884
0.29388
0.293878
0.293892
0.29389
0.293914
0.293917
0.293944
0.29394
0.293984
0.29395
0.293957
0.293916
0.293869
0.360336
0.359647
0.358955
0.358257
0.357555
0.356848
0.356136
0.355419
0.354697
0.35397
0.353238
0.3525
0.351758
0.351011
0.350259
0.349503
0.348742
0.347978
0.347209
0.346437
0.345662
0.344884
0.344104
0.343321
0.342536
0.341749
0.34096
0.340171
0.33938
0.338588
0.337796
0.337004
0.336212
0.33542
0.334628
0.333837
0.333048
0.332259
0.331473
0.330688
0.329905
0.329125
0.328347
0.327572
0.326801
0.326032
0.325268
0.324507
0.32375
0.322998
0.32225
0.321507
0.320769
0.320036
0.319308
0.318586
0.31787
0.317161
0.316457
0.31576
0.31507
0.314386
0.31371
0.313041
0.31238
0.311727
0.311081
0.310444
0.309815
0.309195
0.308583
0.30798
0.307387
0.306802
0.306227
0.305662
0.305107
0.304561
0.304026
0.303501
0.302987
0.302483
0.30199
0.301507
0.301036
0.300576
0.300127
0.29969
0.299264
0.298849
0.298446
0.298055
0.297676
0.297308
0.296953
0.29661
0.296278
0.29596
0.295653
0.29536
0.295078
0.29481
0.294554
0.29431
0.29408
0.293863
0.293659
0.293468
0.29329
0.293126
0.292975
0.292838
0.292715
0.292606
0.292511
0.292429
0.292362
0.292308
0.292268
0.292241
0.292228
0.292228
0.292241
0.292268
0.292307
0.292358
0.292421
0.292498
0.29258
0.292672
0.292772
0.292875
0.292979
0.293124
0.293093
0.293463
0.293165
0.294045
0.293035
0.362089
0.361364
0.360633
0.359896
0.359154
0.358405
0.35765
0.35689
0.356123
0.355352
0.354575
0.353793
0.353005
0.352211
0.351413
0.350611
0.349805
0.348994
0.34818
0.347361
0.346538
0.345712
0.344882
0.344049
0.343212
0.342372
0.34153
0.340685
0.339839
0.338991
0.338142
0.337291
0.336441
0.33559
0.334739
0.333889
0.33304
0.332192
0.331346
0.330501
0.329658
0.328818
0.327981
0.327146
0.326315
0.325487
0.324663
0.323843
0.323028
0.322217
0.321411
0.320611
0.319816
0.319026
0.318243
0.317466
0.316696
0.315932
0.315176
0.314427
0.313685
0.312951
0.312225
0.311508
0.310798
0.310097
0.309405
0.308722
0.308049
0.307384
0.306729
0.306084
0.305449
0.304825
0.30421
0.303606
0.303013
0.30243
0.301858
0.301297
0.300748
0.30021
0.299683
0.299167
0.298663
0.298171
0.297691
0.297223
0.296767
0.296323
0.295892
0.295474
0.295068
0.294675
0.294296
0.29393
0.293577
0.293237
0.292912
0.2926
0.292302
0.292018
0.291749
0.291494
0.291254
0.291029
0.290819
0.290624
0.290446
0.290282
0.290135
0.290004
0.289889
0.28979
0.289708
0.289643
0.289596
0.289565
0.289553
0.289558
0.289582
0.289626
0.289688
0.289772
0.289876
0.290005
0.29015
0.290316
0.290528
0.290742
0.290945
0.291404
0.291203
0.292366
0.291199
0.293877
0.290897
0.29622
0.289631
0.363971
0.363219
0.362457
0.361687
0.360906
0.360117
0.359319
0.358514
0.357701
0.356878
0.356048
0.355209
0.354366
0.353516
0.352658
0.351792
0.35092
0.350042
0.349158
0.348269
0.347376
0.346479
0.345578
0.344674
0.343768
0.342859
0.341949
0.341037
0.340123
0.339209
0.338293
0.337376
0.336459
0.335541
0.334624
0.333706
0.332789
0.331873
0.330958
0.330045
0.329133
0.328224
0.327317
0.326413
0.325513
0.324616
0.323723
0.322835
0.321951
0.321072
0.320199
0.319331
0.318469
0.317614
0.316765
0.315923
0.315088
0.31426
0.31344
0.312628
0.311824
0.311029
0.310242
0.309464
0.308695
0.307936
0.307186
0.306445
0.305715
0.304995
0.304285
0.303586
0.302897
0.302219
0.301553
0.300898
0.300254
0.299621
0.299001
0.298392
0.297796
0.297212
0.296641
0.296082
0.295537
0.295004
0.294485
0.29398
0.293488
0.29301
0.292546
0.292097
0.291662
0.291241
0.290836
0.290445
0.290069
0.289709
0.289364
0.289034
0.288721
0.288424
0.288143
0.287878
0.28763
0.287398
0.287184
0.286987
0.286807
0.286645
0.2865
0.286374
0.286266
0.286176
0.286106
0.286055
0.286024
0.286013
0.286023
0.286055
0.286109
0.286187
0.28629
0.286419
0.286575
0.286763
0.287001
0.287248
0.287509
0.288046
0.287945
0.289399
0.288132
0.291735
0.2877
0.295297
0.285875
0.300449
0.278234
0.365718
0.364928
0.364126
0.363309
0.36248
0.36164
0.360788
0.359922
0.359045
0.358157
0.357261
0.356359
0.355444
0.354517
0.353584
0.35265
0.351708
0.350759
0.349805
0.348845
0.347878
0.346906
0.345928
0.344944
0.343956
0.342963
0.341965
0.340963
0.339959
0.338952
0.337943
0.336933
0.335922
0.334911
0.3339
0.33289
0.331882
0.330875
0.32987
0.328868
0.327869
0.326874
0.325881
0.324893
0.323908
0.322928
0.321953
0.320982
0.320017
0.319058
0.318105
0.317158
0.316218
0.315285
0.314359
0.313441
0.31253
0.311629
0.310735
0.309851
0.308975
0.30811
0.307254
0.306408
0.305572
0.304747
0.303933
0.30313
0.302338
0.301558
0.30079
0.300034
0.299289
0.298558
0.297839
0.297132
0.296439
0.295759
0.295093
0.294441
0.293802
0.293177
0.292567
0.291971
0.291389
0.290823
0.290271
0.289735
0.289213
0.288707
0.288216
0.287741
0.287282
0.286839
0.286412
0.286001
0.285606
0.285228
0.284866
0.284522
0.284194
0.283883
0.28359
0.283314
0.283056
0.282816
0.282593
0.282389
0.282204
0.282037
0.281889
0.281761
0.281653
0.281565
0.281498
0.281452
0.281428
0.281429
0.281452
0.2815
0.281575
0.281675
0.281807
0.281966
0.282159
0.282371
0.282625
0.282984
0.283067
0.28391
0.283417
0.285186
0.283683
0.286712
0.28409
0.288388
0.283283
0.295237
0.263408
0.368174
0.367343
0.366487
0.365616
0.364734
0.363828
0.362899
0.36196
0.36101
0.360046
0.359064
0.358065
0.357052
0.356051
0.355035
0.353982
0.352921
0.351853
0.350776
0.349692
0.348603
0.347509
0.346409
0.345304
0.344192
0.343075
0.341958
0.340841
0.339722
0.338604
0.337487
0.33637
0.335252
0.334135
0.333018
0.331901
0.330784
0.329669
0.328556
0.327444
0.326335
0.325229
0.324128
0.323032
0.321942
0.320857
0.31978
0.318709
0.317645
0.31659
0.315543
0.314505
0.313475
0.312455
0.311445
0.310444
0.309454
0.308474
0.307504
0.306546
0.305599
0.304663
0.303739
0.302826
0.301925
0.301037
0.300161
0.299297
0.298446
0.297608
0.296784
0.295972
0.295174
0.294389
0.293618
0.292861
0.292118
0.291389
0.290675
0.289975
0.28929
0.288619
0.287964
0.287323
0.286698
0.286089
0.285495
0.284917
0.284355
0.283809
0.283279
0.282766
0.282269
0.281789
0.281326
0.280879
0.28045
0.280038
0.279644
0.279267
0.278908
0.278567
0.278244
0.277939
0.277652
0.277385
0.277136
0.276906
0.276696
0.276505
0.276335
0.276185
0.276056
0.275949
0.275863
0.275799
0.275757
0.27574
0.275745
0.275773
0.275826
0.275899
0.275998
0.276117
0.27626
0.27642
0.276536
0.276867
0.276784
0.277421
0.277046
0.277977
0.277459
0.278334
0.278447
0.278559
0.27871
0.285536
0.253685
0.371887
0.370989
0.370076
0.369136
0.368166
0.367187
0.366192
0.365166
0.364115
0.363047
0.361957
0.360862
0.359749
0.3586
0.357442
0.356287
0.355131
0.353963
0.352784
0.351596
0.350403
0.349205
0.348003
0.346799
0.345601
0.344386
0.343146
0.341894
0.340638
0.339382
0.338145
0.336928
0.335709
0.334483
0.33324
0.331991
0.33075
0.329515
0.328285
0.327063
0.32585
0.324639
0.323431
0.322228
0.32103
0.319839
0.318653
0.317475
0.316304
0.315142
0.313987
0.312842
0.311706
0.310579
0.309463
0.308357
0.307262
0.306178
0.305105
0.304045
0.302997
0.301961
0.300938
0.299928
0.298932
0.297949
0.296981
0.296027
0.295087
0.294162
0.293252
0.292357
0.291477
0.290613
0.289766
0.288932
0.288116
0.287315
0.28653
0.285764
0.285011
0.284277
0.283559
0.282859
0.282175
0.281507
0.280857
0.280222
0.279605
0.279005
0.278422
0.277856
0.277306
0.276774
0.276259
0.275762
0.275282
0.27482
0.274375
0.273948
0.27354
0.273149
0.272777
0.272424
0.272089
0.271773
0.271476
0.271198
0.270939
0.2707
0.270481
0.270281
0.2701
0.26994
0.269798
0.269676
0.269573
0.269488
0.269422
0.26937
0.269336
0.269317
0.269307
0.269313
0.269331
0.269377
0.269341
0.269517
0.269384
0.269706
0.269503
0.269884
0.269819
0.269801
0.270229
0.26932
0.268876
0.275829
0.247723
0.376624
0.375648
0.374636
0.373592
0.37253
0.371435
0.370315
0.369184
0.368034
0.366874
0.365688
0.364476
0.363255
0.362014
0.36076
0.359476
0.358168
0.356843
0.355502
0.354145
0.352764
0.351416
0.35012
0.348812
0.347438
0.346036
0.344643
0.343248
0.34185
0.340445
0.339023
0.337606
0.336213
0.334837
0.333488
0.332152
0.330809
0.32946
0.328113
0.326766
0.32539
0.324
0.322626
0.321266
0.319918
0.318581
0.317257
0.315944
0.314642
0.313353
0.312075
0.31081
0.309558
0.308318
0.307092
0.305879
0.30468
0.303494
0.302323
0.301167
0.300026
0.2989
0.297789
0.296694
0.295615
0.294551
0.293504
0.292473
0.291457
0.290458
0.289477
0.28851
0.287562
0.286629
0.285712
0.284817
0.283932
0.283066
0.282219
0.281384
0.28057
0.279769
0.278988
0.278222
0.277473
0.276744
0.27603
0.275337
0.27466
0.274002
0.273363
0.272742
0.272139
0.271555
0.27099
0.270443
0.269915
0.269405
0.268914
0.268441
0.267986
0.26755
0.267132
0.266732
0.26635
0.265986
0.26564
0.265311
0.265
0.264706
0.264429
0.264169
0.263925
0.263696
0.263482
0.263283
0.263098
0.262925
0.262767
0.262618
0.26248
0.262359
0.262243
0.262138
0.26204
0.261991
0.261853
0.261907
0.261726
0.26186
0.261699
0.261786
0.261949
0.261789
0.262136
0.261341
0.259984
0.266367
0.242313
0.381645
0.380509
0.379339
0.378145
0.376921
0.375667
0.374392
0.373105
0.371767
0.370392
0.369017
0.367612
0.36619
0.364748
0.363273
0.3618
0.360341
0.358874
0.357371
0.355875
0.35439
0.352865
0.351265
0.349658
0.3481
0.34656
0.345017
0.343482
0.341952
0.340414
0.33887
0.337334
0.335815
0.334297
0.332777
0.331245
0.32969
0.328126
0.326572
0.325025
0.323512
0.32203
0.320551
0.319075
0.317606
0.316146
0.314696
0.313257
0.311832
0.310421
0.309025
0.307644
0.306279
0.304929
0.303594
0.302275
0.300973
0.299686
0.298417
0.297165
0.29593
0.294711
0.293509
0.292323
0.291154
0.290002
0.288867
0.287749
0.286649
0.285567
0.284503
0.283457
0.282425
0.281412
0.280422
0.279451
0.278506
0.277574
0.276659
0.27577
0.274897
0.274044
0.273213
0.272408
0.27162
0.270848
0.2701
0.269367
0.268654
0.26796
0.267284
0.266626
0.265986
0.265364
0.264761
0.264175
0.263608
0.263058
0.262526
0.262012
0.261515
0.261036
0.260575
0.26013
0.259702
0.259291
0.258896
0.258518
0.258154
0.257806
0.257473
0.257155
0.25685
0.25656
0.256283
0.25602
0.25577
0.255533
0.255309
0.255099
0.254901
0.254719
0.254555
0.2544
0.254252
0.254164
0.254005
0.253996
0.253845
0.253886
0.253791
0.25377
0.253973
0.25343
0.253248
0.252617
0.251459
0.25693
0.236091
0.386897
0.385572
0.384214
0.38283
0.381417
0.379974
0.378491
0.376977
0.375448
0.373904
0.372348
0.370764
0.369151
0.367522
0.365904
0.364277
0.362572
0.360849
0.359156
0.357492
0.355802
0.354034
0.352258
0.35052
0.348775
0.346975
0.345221
0.343486
0.341705
0.339912
0.338114
0.33631
0.334518
0.332732
0.330953
0.329194
0.327478
0.32579
0.324111
0.322444
0.320776
0.31911
0.317463
0.315833
0.314218
0.312616
0.311028
0.309456
0.307901
0.306366
0.304846
0.303338
0.301842
0.300357
0.298891
0.297444
0.296015
0.294606
0.293216
0.291845
0.290495
0.289166
0.287859
0.286575
0.285313
0.284073
0.282851
0.281653
0.280474
0.279316
0.278182
0.27707
0.275979
0.27491
0.273867
0.272851
0.271852
0.270872
0.269912
0.268968
0.268045
0.267139
0.266257
0.265392
0.264548
0.263726
0.262919
0.262136
0.261372
0.260629
0.259908
0.259206
0.258525
0.257865
0.257224
0.256603
0.256
0.255417
0.254851
0.254304
0.253774
0.253262
0.252767
0.252289
0.251827
0.251382
0.250953
0.250539
0.250142
0.24976
0.249394
0.249044
0.248709
0.248389
0.248085
0.247796
0.247525
0.24727
0.24703
0.24681
0.246605
0.246418
0.246254
0.246107
0.245964
0.245883
0.245746
0.245733
0.245596
0.24565
0.245585
0.245406
0.245414
0.244872
0.244476
0.243914
0.242963
0.247743
0.2293
0.393301
0.391766
0.390197
0.3886
0.386962
0.385298
0.383605
0.381896
0.380168
0.3784
0.376582
0.374737