/*--------------------------------*- C++ -*----------------------------------*\
| =========                 |                                                 |
| \\      /  F ield         | OpenFOAM: The Open Source CFD Toolbox           |
|  \\    /   O peration     | Version:  5.x                                   |
|   \\  /    A nd           | Web:      www.OpenFOAM.org                      |
|    \\/     M anipulation  |                                                 |
\*---------------------------------------------------------------------------*/
/*   Windows 32 and 64 bit porting by blueCAPE: http://www.bluecape.com.pt   *\
|  Based on Windows porting (2.0.x v4) by Symscape: http://www.symscape.com   |
\*---------------------------------------------------------------------------*/
FoamFile
{
    version     2.0;
    format      ascii;
    class       surfaceScalarField;
    location    "200";
    object      phi;
}
// * * * * * * * * * * * * * * * * * * * * * * * * * * * * * * * * * * * * * //

dimensions      [0 3 -1 0 0 0 0];

internalField   nonuniform List<scalar> 
87341
(
0.363763
39.5593
0.523711
39.7631
0.487909
39.9588
0.590222
39.8207
0.623691
39.8896
0.662075
39.8847
0.697917
39.8872
0.741419
39.8795
0.783973
39.8805
0.822938
39.8841
0.859603
39.8864
0.892183
39.8905
0.9218
39.8934
0.948511
39.8963
0.972462
39.8991
0.993919
39.9016
1.01336
39.9036
1.03061
39.9058
1.04652
39.9071
1.06145
39.9081
1.07534
39.9091
1.0886
39.9098
1.10117
39.9105
1.11302
39.9112
1.12452
39.9115
1.13548
39.9121
1.14598
39.9125
1.15631
39.9127
39.913
1.16634
0.965589
38.5937
1.35505
39.3736
1.46267
39.8512
1.59699
39.6864
1.62964
39.8569
1.78464
39.7297
1.87603
39.7958
1.99979
39.7558
2.08651
39.7938
2.18759
39.783
2.28555
39.7884
2.37867
39.7973
2.46362
39.8085
2.54158
39.8184
2.61416
39.8265
2.68222
39.8335
2.74539
39.8404
2.80538
39.8458
2.86173
39.8508
2.91438
39.8555
2.9646
39.8589
3.01141
39.863
3.05544
39.8664
3.09753
39.8691
3.1367
39.8724
3.17387
39.8749
3.20931
39.8771
3.2422
39.8798
39.8814
3.27379
2.03302
36.5607
3.34664
38.06
4.12366
39.0742
4.20449
39.6056
4.36449
39.6969
4.29888
39.7953
4.33353
39.7612
4.30611
39.7832
4.32361
39.7763
4.33098
39.7756
4.33642
39.783
4.35222
39.7815
4.37596
39.7847
4.40472
39.7896
4.43679
39.7944
4.47078
39.7995
4.50731
39.8039
4.54419
39.8089
4.58162
39.8134
4.61991
39.8172
4.6564
39.8224
4.69333
39.826
4.7305
39.8293
4.76594
39.8337
4.80221
39.8361
4.83827
39.8388
4.87299
39.8424
4.90874
39.8441
39.8462
4.94399
1.69337
34.8673
3.48874
36.2646
4.93272
37.6302
5.81445
38.7239
6.1094
39.402
6.19466
39.71
6.2092
39.7466
6.22651
39.7659
6.23816
39.7646
6.23791
39.7759
6.23955
39.7813
6.22902
39.7921
6.21995
39.7938
6.21829
39.7913
6.22212
39.7906
6.23237
39.7893
6.24672
39.7896
6.26537
39.7903
6.28665
39.7921
6.30906
39.7948
6.33656
39.7949
6.36479
39.7978
6.39221
39.8018
6.42425
39.8016
6.45605
39.8043
6.4867
39.8082
6.5209
39.8082
6.554
39.811
39.8135
6.58664
1.07428
33.793
2.42856
34.9104
3.98748
36.0713
5.43702
37.2743
6.49098
38.348
7.06001
39.141
7.25158
39.5551
7.29145
39.726
7.3237
39.7324
7.36119
39.7384
7.39985
39.7427
7.446
39.7459
7.48624
39.7536
7.519
39.7585
7.55224
39.7573
7.58503
39.7565
7.62282
39.7518
7.65869
39.7544
7.69277
39.758
7.73525
39.7523
7.77801
39.7522
7.81988
39.7559
7.86873
39.753
7.91729
39.7531
7.96607
39.7555
8.01922
39.7551
8.07012
39.7573
8.12187
39.7592
39.7589
8.17647
0.835664
32.9573
1.82754
33.9185
2.97619
34.9226
4.28534
35.9652
5.61832
37.015
6.73406
38.0252
7.43886
38.8503
7.77706
39.3878
7.90405
39.6054
7.98767
39.6547
8.07259
39.6578
8.15138
39.6671
8.23447
39.6705
8.31557
39.6774
8.39016
39.6827
8.46914
39.6775
8.54346
39.6774
8.61371
39.6841
8.68937
39.6823
8.76026
39.6814
8.82915
39.6833
8.9026
39.6825
8.97196
39.6836
9.04145
39.6836
9.11371
39.6832
9.18157
39.6872
9.25235
39.6865
9.32549
39.6861
39.6891
9.39536
0.727925
32.2294
1.55631
33.0901
2.48656
33.9924
3.5228
34.9289
4.65447
35.8833
5.84387
36.8358
6.92855
37.7656
7.72562
38.5907
8.15251
39.1785
8.33664
39.4706
8.45353
39.5409
8.57317
39.5475
8.68593
39.5577
8.80046
39.5629
8.92007
39.5631
9.03089
39.5667
9.13651
39.5718
9.25002
39.5706
9.35787
39.5745
9.46311
39.5761
9.57124
39.5752
9.67082
39.5829
9.77154
39.5829
9.87372
39.5814
9.9677
39.5893
10.0649
39.59
10.1614
39.5899
10.2493
39.5982
39.5969
10.3415
0.674567
31.5549
1.4181
32.3466
2.23295
33.1775
3.12112
34.0408
4.0797
34.9248
5.09906
35.8165
6.16392
36.7007
7.1986
37.5561
8.02433
38.3528
8.52728
38.9677
8.75408
39.3141
8.89094
39.4106
9.03067
39.418
9.16303
39.4305
9.29036
39.4358
9.42418
39.4329
9.56535
39.4307
9.69514
39.4408
9.82583
39.4438
9.96287
39.4391
10.0903
39.4477
10.2231
39.4501
10.3576
39.4484
10.4809
39.4581
10.6071
39.463
10.7321
39.465
10.8503
39.4718
10.974
39.4745
39.4783
11.0925
0.638034
30.9168
1.32415
31.6604
2.0638
32.4379
2.85866
33.2459
3.70782
34.0756
4.60723
34.9171
5.54865
35.7593
6.51518
36.5895
7.47598
37.392
8.2972
38.1464
8.84533
38.7659
9.11038
39.1456
9.27507
39.2533
9.44697
39.2586
9.61014
39.2726
9.77241
39.2706
9.92637
39.2767
10.0882
39.279
10.2569
39.2751
10.4075
39.2885
10.5641
39.2911
10.7207
39.2935
10.8672
39.302
11.0182
39.3071
11.1695
39.3118
11.3117
39.3227
11.4571
39.3264
11.5957
39.336
39.3457
11.7283
0.611681
30.3051
1.26498
31.0071
1.95814
31.7447
2.69271
32.5113
3.46875
33.2996
4.28455
34.1013
5.13611
34.9077
6.01608
35.7096
6.91204
36.496
7.80454
37.2539
8.60708
37.9634
9.18203
38.5706
9.47858
38.9567
9.6749
39.0623
9.89046
39.0571
10.085
39.076
10.2841
39.0776
10.4856
39.0776
10.6672
39.0934
10.8576
39.0981
11.0477
39.101
11.2306
39.1106
11.4133
39.1192
11.5929
39.1275
11.7624
39.1423
11.9357
39.1495
12.1029
39.1592
12.2707
39.1682
39.1755
12.4408
0.611498
29.6936
1.25477
30.3639
1.93084
31.0687
2.64025
31.8019
3.38282
32.557
4.15737
33.3267
4.96159
34.1035
5.79156
34.8796
6.64107
35.6465
7.50036
36.3946
8.352
37.1118
9.14368
37.779
9.73766
38.3628
10.0636
38.7363
10.2731
38.8476
10.5046
38.8445
10.7339
38.8483
10.9458
38.8657
11.1636
38.8756
11.3852
38.8765
11.5966
38.8896
11.806
38.9012
12.0141
38.9111
12.2184
38.9233
12.4238
38.9368
12.6303
38.943
12.8338
38.9557
13.0283
38.9737
38.9869
13.217
0.621066
29.0726
1.26863
29.7163
1.94398
30.3933
2.64725
31.0987
3.37817
31.8261
4.13574
32.5691
4.91818
33.3211
5.72278
34.075
6.54563
34.8237
7.38089
35.5594
8.21939
36.2733
9.04456
36.9538
9.82353
37.5838
10.4201
38.1398
10.7647
38.503
11.0068
38.6024
11.2452
38.6098
11.4886
38.6224
11.7406
38.6236
11.9768
38.6403
12.2084
38.6581
12.4376
38.6719
12.6717
38.6771
12.8982
38.6967
13.1327
38.7023
13.3528
38.723
13.5586
38.7499
13.7681
38.7641
38.7692
13.9858
0.627158
28.4454
1.27838
29.0651
1.95367
29.718
2.65262
30.3997
3.37443
31.1043
4.11817
31.8254
4.88233
32.5569
5.66468
33.2926
6.4622
34.0261
7.27081
34.7508
8.08465
35.4594
8.89468
36.1438
9.68529
36.7932
10.4325
37.3926
11.0186
37.9169
11.375
38.2461
11.6537
38.3311
11.9356
38.3406
12.2029
38.3563
12.4565
38.3866
12.7256
38.389
13.008
38.3895
13.263
38.422
13.5208
38.4389
13.7638
38.4593
13.9949
38.4918
14.2456
38.4992
14.5059
38.5039
38.5383
14.7368
0.631912
27.8135
1.28516
28.4118
1.95958
29.0436
2.65479
29.7045
3.36948
30.3896
4.10202
31.0929
4.85087
31.8081
5.61413
32.5294
6.38922
33.251
7.17286
33.9671
7.96079
34.6715
8.74721
35.3573
9.52358
36.0168
10.2764
36.6397
10.9814
37.2119
11.5242
37.7032
11.8897
37.9656
12.2126
38.0177
12.5024
38.0665
12.8252
38.0637
13.1443
38.0699
13.4156
38.1182
13.7011
38.1366
14.0031
38.1368
14.2845
38.178
14.5827
38.1935
14.8717
38.2102
15.1147
38.2609
38.2775
15.3755
0.638884
27.1746
1.29675
27.754
1.97315
28.3672
2.66767
29.01
3.37951
29.6777
4.10684
30.3655
4.84737
31.0675
5.5991
31.7777
6.35982
32.4903
7.12674
33.2002
7.89647
33.9017
8.66482
34.589
9.42626
35.2554
10.173
35.893
10.8934
36.4915
11.5572
37.0394
12.049
37.4739
12.3882
37.6784
12.7581
37.6967
13.115
37.7068
13.4308
37.7542
13.7756
37.7734
14.1297
37.7825
14.4286
37.8379
14.7444
37.8622
15.0627
37.8752
15.3521
37.9208
15.6643
37.9488
37.9675
15.9743
0.648028
26.5266
1.31366
27.0883
1.99603
27.6848
2.69426
28.3117
3.40752
28.9645
4.13474
29.6383
4.8739
30.3284
5.62237
31.0292
6.37785
31.7348
7.13806
32.44
7.90023
33.1396
8.66113
33.8281
9.41684
34.4997
10.1622
35.1476
10.8902
35.7636
11.5924
36.3372
12.2115
36.8548
12.6858
37.2041
13.0719
37.3106
13.4357
37.343
13.798
37.3919
14.145
37.4264
14.4815
37.446
14.8561
37.4633
15.2316
37.4867
15.5616
37.5453
15.8836
37.5988
16.1885
37.6439
37.661
16.495
0.660477
25.8661
1.33752
26.4113
2.03027
26.9921
2.73766
27.6044
3.45847
28.2437
4.19154
28.9052
4.93571
29.5842
5.68895
30.2759
6.44852
30.9753
7.21198
31.6765
7.97696
32.3746
8.74052
33.0645
9.49926
33.7409
10.249
34.3978
10.9844
35.0282
11.698
35.6236
12.376
36.1768
12.9471
36.6329
13.3896
36.8681
13.7793
36.9533
14.1997
36.9715
14.6357
36.9904
15.0477
37.034
15.4141
37.0969
15.7671
37.1337
16.1172
37.1952
16.4924
37.2236
16.877
37.2593
37.2982
17.2398
0.675007
25.1911
1.366
25.7203
2.07202
26.2861
2.7919
26.8845
3.52433
27.5112
4.26784
28.1617
5.021
28.831
5.78248
29.5145
6.55027
30.2075
7.32158
30.9052
8.09382
31.6024
8.86448
32.2939
9.63058
32.9748
10.3887
33.6397
11.1348
34.2821
11.8639
34.8945
12.5729
35.4678
13.2152
35.9906
13.7287
36.3546
14.2109
36.471
14.6768
36.5057
15.0928
36.5744
15.4887
36.6381
15.9018
36.6838
16.3116
36.7239
16.7381
36.7687
17.1374
36.8243
17.4949
36.9017
36.9371
17.8559
0.691508
24.4996
1.39875
25.0131
2.12065
25.5642
2.85595
26.1492
3.60329
26.7639
4.36114
27.4039
5.12782
28.0644
5.90168
28.7406
6.68123
29.4279
7.46443
30.122
8.2486
30.8182
9.03119
31.5113
9.80956
32.1965
10.5808
32.8685
11.3415
33.5214
12.0877
34.1483
12.8143
34.7412
13.5084
35.2965
14.1248
35.7381
14.6453
35.9505
15.1043
36.0467
15.5671
36.1116
16.0284
36.1768
16.4794
36.2327
16.923
36.2804
17.3605
36.3312
17.7849
36.3999
18.1935
36.4932
36.5746
18.556
0.710723
23.7889
1.43716
24.2866
2.17819
24.8231
2.93255
25.3948
3.69887
25.9976
4.47563
26.6271
5.26119
27.2788
6.05378
27.948
6.85162
28.6301
7.6531
29.3206
8.4561
30.0152
9.25812
30.7093
10.0566
31.3979
10.8488
32.0763
11.6314
32.7389
12.4002
33.3794
13.1506
33.9908
13.8773
34.5698
14.5145
35.101
15.0649
35.4002
15.5738
35.5378
16.0534
35.632
16.5767
35.6534
17.1011
35.7084
17.5889
35.7926
18.0156
35.9045
18.4169
35.9985
18.8313
36.0788
36.114
19.2919
0.732101
23.0568
1.48007
23.5387
2.24279
24.0604
3.01899
24.6186
3.80729
25.2093
4.60618
25.8282
5.41402
26.471
6.22903
27.133
7.04931
27.8098
7.87293
28.4969
8.69795
29.1902
9.52206
29.8851
10.3427
30.5774
11.1568
31.2622
11.9611
31.9346
12.7515
32.589
13.5231
33.2192
14.2722
33.8207
14.9952
34.378
15.6094
34.786
16.182
34.9652
16.7472
35.0668
17.2358
35.1649
17.6709
35.2732
18.1163
35.3472
18.6014
35.4194
19.0974
35.5025
19.5643
35.612
35.7236
19.9548
0.754477
22.3023
1.52511
22.768
2.31077
23.2748
3.11019
23.8192
3.92199
24.3975
4.74465
25.0056
5.57652
25.6391
6.41579
26.2937
7.26055
26.9651
8.10871
27.6488
8.95825
28.3406
9.80692
29.0365
10.6522
29.7321
11.4911
30.4232
12.3207
31.105
13.1373
31.7724
13.937
32.4195
14.717
33.0407
15.4549
33.6401
16.1187
34.1222
16.7046
34.3793
17.2492
34.5222
17.8385
34.5756
18.3836
34.7281
18.8972
34.8336
19.3802
34.9364
19.8563
35.0264
20.3597
35.1085
35.2502
20.833
0.776749
21.5256
1.57
21.9748
2.37864
22.4661
3.20145
22.9964
4.03704
23.5619
4.88391
24.1587
5.74041
24.7826
6.60477
25.4294
7.47508
26.0947
8.34932
26.7745
9.22537
27.4646
10.101
28.1608
10.974
28.8591
11.842
29.5553
12.7023
30.2447
13.5522
30.9225
14.3888
31.5829
15.2095
32.2199
16.0172
32.8324
16.7367
33.4027
17.3646
33.7514
17.9351
33.9516
18.4195
34.0912
18.9352
34.2124
19.5041
34.2648
20.0773
34.3631
20.5702
34.5335
21.0011
34.6776
34.8616
21.3897
0.798064
20.7275
1.61303
21.1598
2.44384
21.6353
3.28928
22.1509
4.14805
22.7031
5.01867
23.2881
5.89953
23.9017
6.78886
24.54
7.68479
25.1988
8.58529
25.874
9.48823
26.5616
10.3914
27.2576
11.2924
27.9581
12.1889
28.6588
13.0779
29.3556
13.9566
30.0439
14.8209
30.7186
15.6654
31.3754
16.4789
32.019
17.2554
32.6261
17.9311
33.0758
18.5589
33.3238
19.2121
33.4381
19.7723
33.6522
20.234
33.8031
20.6723
33.9249
21.2068
33.9989
21.7874
34.0971
34.3676
22.2814
0.817842
19.9096
1.65295
20.3247
2.50438
20.7839
3.37104
21.2843
4.2517
21.8225
5.14497
22.3948
6.04929
22.9974
6.96297
23.6263
7.88417
24.2776
8.81092
24.9473
9.74112
25.6314
10.6726
26.3262
11.6029
27.0277
12.5296
27.7321
13.4499
28.4353
14.3606
29.1332
15.2579
29.8213
16.1373
30.4959
16.9987
31.1576
17.798
31.8268
18.5201
32.3536
19.1157
32.7282
19.6499
32.9039
20.2762
33.0259
20.9474
33.1319
21.5184
33.3539
21.9268
33.5905
22.3258
33.698
33.8697
22.8237
0.834958
19.0747
1.68754
19.4721
2.55691
19.9145
3.44209
20.3991
4.34194
20.9226
5.25515
21.4816
6.18024
22.0723
7.11555
22.691
8.05927
23.3339
9.00942
23.9971
9.96387
24.677
10.9203
25.3697
11.8763
26.0718
12.8291
26.7793
13.7758
27.4887
14.7128
28.1961
15.6362
28.8979
16.5414
29.5908
17.4233
30.2756
18.2921
30.9581
19.0554
31.5903
19.7894
31.9942
20.4427
32.2506
20.9254
32.5432
21.3386
32.7186
21.9296
32.7629
22.5538
32.9663
23.0581
33.1937
33.4221
23.5057
0.848833
18.2259
1.71556
18.6054
2.59949
19.0306
3.49978
19.4988
4.4154
20.007
5.34515
20.5518
6.28763
21.1298
7.24124
21.7374
8.20422
22.3709
9.17462
23.0267
10.1503
23.7013
11.129
24.3911
12.1081
25.0926
13.085
25.8024
14.0568
26.517
15.02
27.2329
15.9712
27.9467
16.9065
28.6555
17.8249
29.3573
18.7213
30.0616
19.5692
30.7424
20.2438
31.3197
20.8754
31.619
21.6321
31.7865
22.2082
32.1425
22.5957
32.3754
23.0878
32.4743
23.5987
32.6828
32.8578
24.1631
0.859022
17.3668
1.73614
17.7283
2.63079
18.1359
3.5423
18.5873
4.46978
19.0795
5.41216
19.6095
6.36811
20.1739
7.33615
20.7694
8.31458
21.3925
9.30152
22.0398
10.2949
22.7079
11.2925
23.3935
12.2918
24.0933
13.2904
24.8038
14.2853
25.522
15.2737
26.2445
16.2523
26.9681
17.2178
27.69
18.1665
28.4086
19.0998
29.1283
19.9866
29.8557
20.8515
30.4547
21.4548
31.0156
21.9396
31.3017
22.654
31.4281
23.2791
31.7504
23.7646
31.9887
24.2378
32.2096
32.419
24.6766
0.865362
16.5015
1.74891
16.8447
2.65025
17.2346
3.5689
17.6687
4.50413
18.1443
5.45498
18.6586
6.4203
19.2086
7.39868
19.791
8.38855
20.4026
9.38814
21.0402
10.3955
21.7006
11.4084
22.3806
12.4246
23.0771
13.4415
23.7869
14.4566
24.5069
15.4671
25.234
16.4702
25.9651
17.4631
26.6971
18.4439
27.4277
19.4143
28.158
20.3405
28.9294
21.1624
29.6328
22.0288
30.1492
22.6368
30.6937
23.0424
31.0225
23.6587
31.1341
24.2383
31.4091
24.7556
31.6923
31.9464
25.2282
0.867803
15.6337
1.75377
15.9587
2.65772
16.3306
3.57936
16.747
4.51813
17.2055
5.47326
17.7035
6.44373
18.2381
7.4283
18.8064
8.42552
19.4054
9.43374
20.032
10.4511
20.6832
11.4756
21.3561
12.505
22.0477
13.5369
22.755
14.5687
23.4751
15.5978
24.2049
16.6213
24.9415
17.6364
25.682
18.6403
26.4238
19.633
27.1653
20.6281
27.9343
21.5076
28.7534
22.2402
29.4165
23.076
29.858
23.7054
30.3931
24.1107
30.7288
24.6538
30.8659
25.1751
31.1711
31.4945
25.6269
0.866375
14.7673
1.75079
15.0743
2.65327
15.4282
3.57372
15.8266
4.51181
16.2674
5.46692
16.7484
6.43821
17.2668
7.42461
17.82
8.42481
18.4052
9.43729
19.0195
10.4603
19.6602
11.4919
20.3245
12.53
21.0096
13.5723
21.7127
14.6164
22.431
15.6594
23.1619
16.6985
23.9025
17.7303
24.6502
18.7512
25.4029
19.7571
26.1594
20.7569
26.9345
21.7618
27.7485
22.5965
28.5818
23.2354
29.2191
24.0276
29.6009
24.6398
30.1166
25.0573
30.4484
25.5834
30.645
31.0464
26.0315
0.861205
13.9061
1.74022
14.1953
2.63726
14.5311
3.55247
14.9114
4.4857
15.3342
5.43654
15.7975
6.4043
16.2991
7.38808
16.8362
8.38673
17.4066
9.39885
18.0074
10.4229
18.6362
11.4569
19.2905
12.4989
19.9676
13.5466
20.6649
14.5978
21.3799
15.6496
22.1101
16.6991
22.853
17.7428
23.6065
18.7773
24.3684
19.7982
25.1385
20.8094
25.9233
21.8096
26.7483
22.8036
27.5878
23.604
28.4187
24.1721
29.0328
24.9094
29.3793
25.4903
29.8674
25.9274
30.2079
30.5578
26.416
0.852507
13.0536
1.72247
13.3253
2.61034
13.6433
3.51646
14.0052
4.44089
14.4098
5.38339
14.855
6.34347
15.339
7.32039
15.8593
8.31314
16.4138
9.32049
17
10.341
17.6157
11.373
18.2585
12.4145
18.9261
13.4632
19.6162
14.5168
20.3263
15.5725
21.0543
16.6275
21.798
17.6787
22.5553
18.7225
23.3246
19.7556
24.1054
20.7785
24.9005
21.8034
25.7233
22.7927
26.5985
23.7565
27.455
24.5191
28.2702
25.0293
28.8691
25.6742
29.2225
26.1871
29.695
30.0785
26.6664
0.840551
12.213
1.69812
12.4678
2.57334
12.768
3.46682
13.1118
4.3788
13.4978
5.30925
13.9246
6.25786
14.3904
7.22406
14.8931
8.20703
15.4308
9.20573
16.0013
10.2188
16.6026
11.2448
17.2325
12.2817
17.8892
13.3274
18.5705
14.3795
19.2743
15.4353
19.9985
16.4921
20.7412
17.5467
21.5007
18.5959
22.2754
19.6364
23.0648
20.667
23.8699
21.6939
24.6964
22.7306
25.5618
23.6941
26.4914
24.611
27.3533
25.3275
28.1525
25.8079
28.7422
26.3813
29.1216
29.6404
26.8195
0.825616
11.3874
1.66771
11.6257
2.52714
11.9086
3.40474
12.2342
4.30098
12.6015
5.216
13.0096
6.1497
13.4567
7.10173
13.9411
8.07146
14.4611
9.058
15.0148
10.0602
15.6004
11.0766
16.2162
12.1053
16.8604
13.1445
17.5313
14.1917
18.227
15.2446
18.9456
16.3003
19.6856
17.3556
20.4454
18.4075
21.2236
19.453
22.0192
20.4902
22.8327
21.5197
23.6669
22.5504
24.531
23.5985
25.4434
24.5237
26.4281
25.3719
27.3044
26.0267
28.0874
26.4528
28.6955
29.1216
26.9716
0.807954
10.5795
1.63177
10.8019
2.47254
11.0678
3.33131
11.3754
4.20876
11.7241
5.10526
12.1131
6.02091
12.541
6.95556
13.0065
7.90877
13.5079
8.87986
14.0437
9.86783
14.6124
10.8714
15.2126
11.8892
15.8426
12.9193
16.5012
13.9593
17.187
15.0067
17.8982
16.0586
18.6337
17.1122
19.3918
18.1642
20.1715
19.2117
20.9718
20.2523
21.7921
21.2852
22.634
22.3121
23.5041
23.3389
24.4166
24.3779
25.3892
25.2533
26.4289
26.0236
27.3171
26.6226
28.0964
28.7575
26.9868
0.787796
9.79166
1.59078
9.99889
2.41025
10.2484
3.2475
10.5381
4.10341
10.8682
4.97858
11.2379
5.87331
11.6463
6.78768
12.0921
7.7215
12.5741
8.67429
13.0909
9.64532
13.6414
10.6336
14.2243
11.6376
14.8385
12.6559
15.483
13.6859
16.157
14.7253
16.8589
15.7714
17.5875
16.8211
18.3421
17.871
19.1216
18.9178
19.9251
19.9581
20.7518
20.9899
21.6022
22.014
22.4799
23.0328
23.3978
24.0454
24.3766
25.064
25.4103
25.8742
26.5069
26.5568
27.4138
28.2382
27.076
0.765343
9.02632
1.54515
9.21908
2.34093
9.45258
3.1542
9.72488
3.98606
10.0363
4.83732
10.3866
5.70852
10.7751
6.59998
11.2006
7.51175
11.6623
8.4436
12.1591
9.39503
12.69
10.3652
13.2542
11.3529
13.8508
12.3567
14.4792
13.3749
15.1389
14.4046
15.8291
15.4431
16.549
16.4872
17.298
17.5334
18.0754
18.5777
18.8808
19.6161
19.7134
20.6451
20.5733
21.663
21.462
22.6737
22.3871
23.679
23.3712
24.6681
24.4212
25.648
25.527
26.3973
26.6646
27.643
26.9926
0.740775
8.28555
1.49525
8.4646
2.26514
8.6827
3.05219
8.93784
3.8577
9.23079
4.6827
9.56163
5.52798
9.92979
6.3941
10.3345
7.28136
10.775
8.18981
11.2506
9.11919
11.7606
10.0689
12.3044
11.0382
12.8816
12.0257
13.4917
13.0299
14.1347
14.048
14.811
15.0773
15.5197
16.1147
16.2606
17.1562
17.0339
18.1976
17.8393
19.2341
18.6769
20.2609
19.5465
21.2737
20.4492
22.2725
21.3883
23.2646
22.3791
24.2472
23.4387
25.1998
24.5743
26.1069
25.7575
26.9716
26.7783
0.714256
7.57129
1.44143
7.73743
2.18342
7.9407
2.94219
8.17906
3.71926
8.45372
4.51587
8.76503
5.33304
9.11262
6.17159
9.49597
7.03211
9.91452
7.91491
10.3678
8.82004
10.8555
9.74723
11.3772
10.6959
11.9329
11.6648
12.5227
12.6528
13.1467
13.6581
13.8058
14.6773
14.5005
15.7073
15.2307
16.744
15.9972
17.7828
16.8005
18.8183
17.6413
19.8447
18.5202
20.856
19.4379
21.848
20.3963
22.8233
21.4038
23.788
22.4741
24.7402
23.622
25.654
24.8437
26.1699
26.4558
0.68595
6.88534
1.38402
7.03935
2.0963
7.22843
2.82495
7.45042
3.57168
7.70699
4.33795
7.99876
5.12502
8.32555
5.93398
8.68701
6.76567
9.08283
7.62072
9.51277
8.49947
9.97672
9.40197
10.4747
10.3279
11.007
11.2766
11.574
12.2469
12.1764
13.2374
12.8153
14.2453
13.4926
15.2671
14.2088
16.2991
14.9653
17.3361
15.7635
18.3724
16.605
19.4013
17.4913
20.4154
18.4238
21.4077
19.4039
22.3751
20.4364
23.3206
21.5286
24.2456
22.697
25.1605
23.9288
25.3091
26.0213
0.656031
6.22931
1.32339
6.37199
2.00433
6.54749
2.70121
6.75353
3.41593
6.99227
4.15015
7.26455
4.90535
7.57034
5.68288
7.90949
6.48385
8.28187
7.30917
8.68745
8.15954
9.12635
9.03533
9.59891
9.93662
10.1057
10.8631
10.6476
11.8138
11.2257
12.7875
11.8415
13.7828
12.4973
14.796
13.1956
15.8231
13.9382
16.8592
14.7274
17.8982
15.5661
18.9326
16.4569
19.9541
17.4023
20.9534
18.4046
21.923
19.4668
22.8589
20.5927
23.7612
21.7946
24.6316
23.0585
24.4395
25.5013
0.624695
5.60461
1.25994
5.73675
1.90815
5.89928
2.57186
6.08982
3.25315
6.31099
3.95384
6.56386
4.67565
6.84853
5.42013
7.16501
6.18866
7.51333
6.98245
7.89365
7.80251
8.30629
8.6496
8.75182
9.52417
9.23113
10.4263
9.74545
11.3556
10.2964
12.3111
10.886
13.2917
11.5167
14.2949
12.1924
15.3168
12.9163
16.3524
13.6918
17.3954
14.523
18.4382
15.4141
19.4713
16.3692
20.4839
17.392
21.4647
18.486
22.4039
19.6535
23.2964
20.9022
24.1315
22.2233
23.6235
24.9475
0.592166
5.01245
1.19413
5.13479
1.80846
5.28495
2.43788
5.46039
3.08459
5.66429
3.75058
5.89786
4.43774
6.16136
5.14783
6.45492
5.88244
6.77872
6.64307
7.13303
7.43104
7.51833
8.24747
7.93539
9.09326
8.38534
9.96895
8.86976
10.8747
9.39068
11.81
9.95068
12.7739
10.5528
13.765
11.2013
14.7802
11.9011
15.8149
12.6572
16.8628
13.4751
17.916
14.3608
18.9646
15.3206
19.9962
16.3604
20.9967
17.4855
21.9512
18.699
22.8481
20.0053
23.6695
21.4018
22.8658
24.4272
0.558689
4.45376
1.12646
4.56701
1.70607
4.70534
2.30037
4.86609
2.91168
5.05298
3.54212
5.26742
4.19371
5.50977
4.86834
5.78029
5.56783
6.07923
6.29388
6.40697
7.04814
6.76407
7.83208
7.15144
8.64703
7.5704
9.49401
8.02277
10.3737
8.51097
11.2863
9.03806
12.2314
9.60778
13.2079
10.2248
14.2141
10.8949
15.2463
11.625
16.2988
12.4227
17.3636
13.296
18.4305
14.2537
19.4861
15.3048
20.5139
16.4577
21.4948
17.7182
22.41
19.09
23.237
20.5748
22.1417
23.9611
0.52453
3.92923
1.0575
4.03405
1.60183
4.16101
2.16053
4.30739
2.73597
4.47754
3.33036
4.67303
3.9458
4.89434
4.58427
5.14182
5.24772
5.41579
5.93806
5.71663
6.6572
6.04493
7.40697
6.40167
8.1891
6.78827
9.0051
7.20677
9.85624
7.65983
10.7433
8.15096
11.6667
8.68438
12.6261
9.26545
13.6202
9.90068
14.6471
10.5981
15.7023
11.3675
16.7783
12.22
17.8652
13.1668
18.9487
14.2213
20.0106
15.3958
21.028
16.7007
21.9753
18.1428
22.823
19.7271
21.4236
23.5411
0.489953
3.43928
0.987794
3.53621
1.49663
3.65217
2.01959
3.78443
2.55906
3.93807
3.11729
4.1148
3.69637
4.31526
4.29831
4.53988
4.92514
4.78896
5.57894
5.06282
6.26184
5.36203
6.97599
5.68753
7.72349
6.04077
8.50631
6.42395
9.3263
6.83985
10.1849
7.29236
11.0833
7.786
12.022
8.32673
13.0008
8.92184
14.0186
9.5804
15.0727
10.3134
16.1578
11.1349
17.2644
12.0602
18.3782
13.1075
19.4799
14.2941
20.5434
15.6372
21.5364
17.1497
22.4194
18.8441
20.6913
23.1517
0.455215
2.98406
0.917928
3.07349
1.39139
3.17871
1.87882
3.29701
2.38257
3.43431
2.90488
3.5925
3.44775
3.77239
4.01315
3.97448
4.60311
4.19899
5.21986
4.44608
5.86571
4.71618
6.54306
5.01018
7.25439
5.32944
8.00204
5.67629
8.78837
6.05352
9.61548
6.46525
10.4853
6.91623
11.3992
7.41278
12.3583
7.9627
13.3626
8.57612
14.4109
9.26504
15.5003
10.0455
16.6237
10.9368
17.7678
11.9635
18.9136
13.1483
20.0316
14.5192
21.0834
16.098
22.0167
17.9108
19.9271
22.7809
0.420555
2.56351
0.848461
2.64559
1.287
2.74017
1.73943
2.84458
2.20806
2.96568
2.69501
3.10555
3.20215
3.26525
3.7313
3.44533
4.28448
3.64581
4.86396
3.86659
5.47224
4.10791
6.11196
4.37046
6.78585
4.65555
7.49662
4.96551
8.24697
5.30318
9.03962
5.6726
9.87707
6.07878
10.7618
6.52807
11.696
7.02846
12.6813
7.59089
13.7181
8.22815
14.8051
8.9586
15.9394
9.80244
17.1105
10.7924
18.3012
11.9576
19.478
13.3423
20.6005
14.9755
21.6015
16.9098
19.1102
22.4184
0.386205
2.1773
0.779961
2.25183
1.18433
2.3358
1.60259
2.42632
2.03695
2.53132
2.48938
2.65312
2.96151
2.79312
3.45495
2.95189
3.97165
3.12911
4.51393
3.32431
5.08442
3.53742
5.68599
3.76889
6.32149
4.02005
6.99392
4.29307
7.70619
4.59091
8.46148
4.91731
9.26298
5.27728
10.1138
5.6772
11.0176
6.12475
11.9769
6.63152
12.9951
7.21
14.072
7.88163
15.2085
8.66592
16.398
9.60298
17.6287
10.7268
18.8654
12.1056
20.0699
13.7711
21.1524
15.8273
18.2203
22.0422
0.352424
1.82488
0.713028
1.89123
1.08427
1.96456
1.46941
2.04118
1.87054
2.13019
2.28941
2.23425
2.72736
2.35517
3.18574
2.49351
3.66645
2.64841
4.17179
2.81896
4.70457
3.00464
5.26774
3.20572
5.86418
3.42361
6.49702
3.66023
7.16949
3.91844
7.88493
4.20188
8.64704
4.51516
9.4595
4.86474
10.3269
5.25739
11.253
5.70535
12.2436
6.21948
13.3006
6.82459
14.4293
7.53724
15.6248
8.40746
16.8861
9.46552
18.1775
10.8142
19.4675
12.4811
20.6411
14.6536
17.2367
21.6248
0.319555
1.50532
0.648332
1.56245
0.987716
1.62518
1.34095
1.68795
1.70993
1.76121
2.09617
1.84801
2.50069
1.95065
2.92467
2.06952
3.36993
2.20315
3.83882
2.35007
4.33425
2.50922
4.85899
2.68098
5.41609
2.86651
6.00864
3.06769
6.64001
3.28706
7.31358
3.52831
8.03337
3.79537
8.80334
4.09477
9.62897
4.43176
10.5149
4.8194
11.469
5.26542
12.4951
5.79846
13.604
6.4284
14.7914
7.22
16.0683
8.18863
17.4002
9.4823
18.7734
11.1079
20.0417
13.3853
16.1403
21.1382
0.288095
1.21723
0.586631
1.26392
0.895633
1.31618
1.21818
1.3654
1.55597
1.42342
1.91026
1.49372
2.28187
1.57904
2.67199
1.67941
3.08243
1.7927
3.51562
1.91688
3.97433
2.05051
4.46125
2.19407
4.97931
2.34845
5.53147
2.51553
6.12111
2.69742
6.75157
2.89786
7.42702
3.11992
8.15161
3.37017
8.93141
3.65196
9.77161
3.97921
10.6818
4.35518
11.6671
4.81324
12.7423
5.35314
13.906
6.0563
15.1815
6.91314
16.5348
8.12905
17.9828
9.65987
19.3419
12.0262
14.9118
20.5704
0.2587
0.958528
0.528754
0.993861
0.808992
1.03594
1.10202
1.07238
1.40929
1.11614
1.73194
1.17107
2.07085
1.24013
2.42759
1.32267
2.80404
1.41625
3.20267
1.51825
3.62598
1.6272
4.07632
1.74373
4.55635
1.86842
5.06883
2.00305
5.61706
2.14919
6.20427
2.31065
6.83472
2.48947
7.51272
2.69218
8.24445
2.92022
9.03534
3.18831
9.89574
3.49478
10.8321
3.87686
11.8627
4.32251
12.9895
4.92957
14.2472
5.65542
15.6058
6.77049
17.119
8.14667
18.5779
10.5672
13.5119
19.9779
0.232101
0.726426
0.475502
0.750461
0.728721
0.782719
0.993296
0.807801
1.27051
0.838934
1.56159
0.879992
1.868
0.933717
2.19196
0.998712
2.53563
1.07258
2.90129
1.15258
3.29097
1.23751
3.70651
1.32819
4.15016
1.42476
4.62449
1.52873
5.13255
1.64113
5.67751
1.76568
6.26339
1.9036
6.8946
2.06096
7.57726
2.23756
8.31762
2.44795
9.12575
2.68665
10.0102
2.99243
10.9905
3.34219
12.0734
3.8467
13.3015
4.4273
14.6637
5.40823
16.237
6.57342
17.861
8.94323
11.8452
19.5277
0.208887
0.51754
0.427471
0.531876
0.655572
0.554618
0.892899
0.570474
1.14077
0.591065
1.40079
0.619968
1.67545
0.659061
1.96757
0.706586
2.27967
0.760486
2.61379
0.818459
2.97142
0.879884
3.35377
0.945841
3.76263
1.01591
4.20027
1.09108
4.66961
1.17179
5.17376
1.26154
5.71645
1.36091
6.30216
1.47524
6.93659
1.60314
7.62703
1.75751
8.38349
1.9302
9.21647
2.15945
10.1462
2.41247
11.1875
2.80536
12.3826
3.23224
13.7727
4.01815
15.3962
4.94987
17.392
6.94748
9.70693
19.5302
0.189229
0.328311
0.384862
0.336243
0.590009
0.349472
0.80186
0.358623
1.0222
0.370723
1.25313
0.389042
1.49788
0.414313
1.75957
0.444892
2.04079
0.479264
2.34364
0.515612
2.66933
0.554192
3.01878
0.596393
3.39347
0.641218
3.79522
0.689328
4.22664
0.740365
4.6904
0.797779
5.19028
0.861039
5.73063
0.93489
6.31772
1.01605
6.95806
1.11717
7.66295
1.22532
8.44326
1.37914
9.32078
1.53496
10.3182
1.80797
11.4782
2.07218
12.8764
2.62004
14.5807
3.24552
17.0919
4.43624
6.93872
19.8601
0.172706
0.155605
0.347415
0.161534
0.532184
0.164702
0.721207
0.1696
0.917226
0.174705
1.12265
0.183613
1.34096
0.196006
1.57508
0.210775
1.82713
0.227217
2.09891
0.243832
2.39171
0.261388
2.70675
0.281356
3.04577
0.302197
3.41014
0.324954
3.80213
0.348379
4.22341
0.376492
4.678
0.406457
5.17007
0.442816
5.70609
0.480033
6.29211
0.531143
6.93883
0.578595
7.65889
0.659071
8.47076
0.72309
9.40674
0.871989
10.5039
0.975005
11.8479
1.27607
13.5284
1.56501
16.193
1.77165
3.76038
19.3713
0.155605
0.317139
0.481841
0.651441
0.826145
1.00976
1.20576
1.41654
1.64376
1.88759
2.14898
2.43033
2.73253
3.05748
3.40586
3.78235
4.18881
4.63163
5.11166
5.6428
6.2214
6.88047
7.60356
8.47555
9.45055
10.7266
12.2916
14.0633
17.8237
1.17951
54.1271
1.19235
54.1274
1.20452
54.1281
1.21593
54.1288
1.22711
54.1291
1.23831
54.129
1.24911
54.1294
1.25902
54.1303
1.26818
54.1311
1.27712
54.1313
1.2862
54.1312
1.29511
54.1313
1.30311
54.1322
1.30978
54.1336
1.31535
54.1347
1.32012
54.1355
1.32417
54.1362
1.32758
54.1368
1.33045
54.1374
1.33292
54.1378
1.3351
54.1381
1.3371
54.1382
1.33894
54.1384
1.34062
54.1386
1.34205
54.1388
1.34314
54.1391
1.3438
54.1396
1.34399
54.14
1.34367
54.1405
1.34284
54.1411
1.34151
54.1416
1.33971
54.142
1.33743
54.1425
1.33469
54.143
1.33154
54.1434
1.32802
54.1438
1.32415
54.1441
1.3199
54.1445
1.31529
54.1448
1.31031
54.1452
1.30498
54.1456
1.29928
54.1459
1.29322
54.1463
1.28682
54.1466
1.28007
54.147
1.27298
54.1473
1.26555
54.1477
1.2578
54.148
1.24974
54.1483
1.24135
54.1486
1.23265
54.1489
1.22363
54.1493
1.21429
54.1496
1.20462
54.1499
1.19461
54.1502
1.18425
54.1506
1.17354
54.1509
1.16248
54.1513
1.15104
54.1517
1.13924
54.152
1.1271
54.1524
1.11465
54.1527
1.1019
54.153
1.08884
54.1533
1.07549
54.1536
1.06184
54.1539
1.04789
54.1542
1.03365
54.1545
1.01913
54.1548
1.00433
54.155
0.989255
54.1553
0.973908
54.1556
0.958287
54.1559
0.942402
54.1561
0.92625
54.1564
0.909832
54.1567
0.893178
54.1569
0.876286
54.1571
0.859159
54.1574
0.841797
54.1576
0.824205
54.1578
0.806401
54.158
0.788413
54.1582
0.770261
54.1584
0.751969
54.1585
0.73355
54.1587
0.715044
54.1587
0.696486
54.1588
0.677761
54.159
0.658811
54.1592
0.639661
54.1594
0.620341
54.1596
0.600898
54.1597
0.581365
54.1598
0.561786
54.1598
0.542189
54.1598
0.522619
54.1598
0.503104
54.1597
0.483687
54.1597
0.464397
54.1595
0.445266
54.1594
0.426325
54.1592
0.407576
54.159
0.389035
54.1588
0.3707
54.1586
0.352585
54.1584
0.334696
54.1581
0.317056
54.1579
0.299674
54.1576
0.282595
54.1573
0.265887
54.1569
0.249474
54.1566
0.233371
54.1563
0.217733
54.1559
0.202719
54.1552
0.188411
54.1545
0.174743
54.1539
0.161512
54.1535
0.148216
54.1535
0.134565