/*--------------------------------*- C++ -*----------------------------------*\
| =========                 |                                                 |
| \\      /  F ield         | OpenFOAM: The Open Source CFD Toolbox           |
|  \\    /   O peration     | Version:  5.x                                   |
|   \\  /    A nd           | Web:      www.OpenFOAM.org                      |
|    \\/     M anipulation  |                                                 |
\*---------------------------------------------------------------------------*/
/*   Windows 32 and 64 bit porting by blueCAPE: http://www.bluecape.com.pt   *\
|  Based on Windows porting (2.0.x v4) by Symscape: http://www.symscape.com   |
\*---------------------------------------------------------------------------*/
FoamFile
{
    version     2.0;
    format      ascii;
    class       volVectorField;
    location    "200";
    object      U;
}
// * * * * * * * * * * * * * * * * * * * * * * * * * * * * * * * * * * * * * //

dimensions      [0 1 -1 0 0 0 0];

internalField   nonuniform List<vector> 
43900
(
(1.16163 -0.0007179 -1.75661e-027)
(1.1672 0.0021532 -4.70782e-027)
(1.16976 0.000360788 1.44925e-030)
(1.16843 0.00179282 2.78435e-030)
(1.16972 0.00078843 3.65376e-030)
(1.1699 0.00192445 3.62291e-030)
(1.17012 0.00116828 6.28601e-027)
(1.17023 0.0017866 -1.25541e-026)
(1.17046 0.00166801 9.38245e-030)
(1.17034 0.0017494 -1.25238e-026)
(1.17021 0.00192733 1.25465e-026)
(1.17011 0.00194599 1.14451e-029)
(1.17006 0.00202071 -1.2489e-026)
(1.17005 0.00208722 2.46068e-029)
(1.17006 0.00214585 2.52753e-029)
(1.17006 0.00219577 2.5898e-029)
(1.17007 0.00224144 -2.48732e-026)
(1.17008 0.00228189 5.40904e-029)
(1.17009 0.00231866 2.49002e-026)
(1.17009 0.00235354 2.80383e-029)
(1.17009 0.0023859 2.84838e-029)
(1.17009 0.00241606 2.89029e-029)
(1.17008 0.00244563 2.92982e-029)
(1.17008 0.00247232 2.96715e-029)
(1.17008 0.00249861 3.00238e-029)
(1.17007 0.00252427 -2.46099e-026)
(1.17006 0.00254794 6.13591e-029)
(1.17006 0.00257117 6.19748e-029)
(1.17006 0.00259366 9.82506e-026)
(1.15878 0.011416 0)
(1.16563 -0.00496053 0)
(1.17154 0.00902503 0)
(1.16667 -0.000195633 0)
(1.16861 0.00616236 0)
(1.16813 0.0026847 0)
(1.16841 0.00487083 0)
(1.16758 0.00454147 0)
(1.16781 0.00456969 0)
(1.16794 0.00522009 0)
(1.16823 0.00520955 0)
(1.16847 0.00547335 0)
(1.16862 0.00572211 0)
(1.16873 0.00591559 0)
(1.16883 0.00608329 0)
(1.16892 0.00624311 0)
(1.16899 0.00639645 0)
(1.16907 0.00654298 0)
(1.1691 0.00668163 0)
(1.16913 0.00680838 0)
(1.16917 0.00692786 0)
(1.16918 0.00704338 0)
(1.1692 0.007148 0)
(1.16923 0.00725029 0)
(1.16924 0.00734577 0)
(1.16926 0.00743312 0)
(1.16928 0.00752088 0)
(1.16928 0.00760227 0)
(1.1693 0.00767833 0)
(1.10229 0.0321204 0)
(1.14496 -0.0175869 0)
(1.16324 0.0287923 0)
(1.16346 -0.00372789 0)
(1.1666 0.0208676 0)
(1.1646 0.00395338 0)
(1.16617 0.0150044 0)
(1.16667 0.00833506 0)
(1.1668 0.011805 0)
(1.16663 0.0104817 0)
(1.16658 0.0106845 0)
(1.1668 0.0108522 0)
(1.16709 0.010873 0)
(1.16731 0.0109358 0)
(1.16745 0.0110017 0)
(1.16755 0.0110801 0)
(1.16769 0.0111722 0)
(1.16774 0.0112666 0)
(1.16782 0.0113542 0)
(1.16791 0.0114481 0)
(1.16795 0.0115435 0)
(1.16805 0.0116271 0)
(1.16812 0.0117223 0)
(1.16815 0.0118118 0)
(1.16825 0.011897 0)
(1.1683 0.0119924 0)
(1.16835 0.0120729 0)
(1.16844 0.0121599 0)
(1.16848 0.01225 1.72637e-027)
(1.04105 0.0199968 0)
(1.08698 -0.00676493 0)
(1.12992 0.0200955 0)
(1.15592 0.0080908 0)
(1.16361 0.0221791 0)
(1.1663 0.0106199 0)
(1.16502 0.0204935 0)
(1.1641 0.0135314 0)
(1.16499 0.017946 0)
(1.16538 0.0156248 0)
(1.16589 0.0165729 0)
(1.16592 0.0163754 0)
(1.16592 0.0163382 0)
(1.16591 0.0163024 0)
(1.16598 0.016289 0)
(1.16611 0.0163331 0)
(1.1661 0.0163771 0)
(1.16623 0.0164079 0)
(1.16631 0.0164666 0)
(1.16634 0.0165292 0)
(1.16652 0.016582 0)
(1.16655 0.016671 0)
(1.16661 0.0167341 0)
(1.16677 0.0168053 0)
(1.16676 0.0169037 0)
(1.16683 0.0169702 0)
(1.16695 0.0170636 0)
(1.16693 0.0171532 0)
(1.16701 0.0172327 1.83985e-027)
(1.00415 0.0101085 3.6826e-027)
(1.03969 -0.000945756 0)
(1.07658 0.0107204 0)
(1.11485 0.0127299 0)
(1.14515 0.018119 0)
(1.16064 0.0170797 0)
(1.16381 0.0225031 0)
(1.16485 0.0181663 0)
(1.16401 0.0213681 0)
(1.16425 0.0198367 0)
(1.16413 0.0204759 0)
(1.16447 0.0206492 0)
(1.16448 0.0206626 0)
(1.16453 0.0207091 0)
(1.16451 0.020835 0)
(1.1644 0.020947 0)
(1.1646 0.0210211 0)
(1.16456 0.0211297 0)
(1.16461 0.0212312 0)
(1.16484 0.0213244 0)
(1.16475 0.0214697 0)
(1.16486 0.0215605 0)
(1.16503 0.0216973 0)
(1.16493 0.0218611 0)
(1.16508 0.0219511 0)
(1.16519 0.0221247 0)
(1.1651 0.0222728 0)
(1.16528 0.0223886 0)
(1.16536 0.0225563 -7.74575e-027)
(0.977278 0.00679977 -3.84388e-027)
(1.00725 0.000561673 0)
(1.03857 0.00745066 0)
(1.07104 0.0107913 0)
(1.10352 0.0145857 0)
(1.13393 0.0178122 0)
(1.15407 0.0217467 0)
(1.16202 0.0216483 0)
(1.16312 0.023978 0)
(1.16292 0.0224838 0)
(1.16312 0.0237408 0)
(1.16277 0.0236635 0)
(1.16288 0.0238782 0)
(1.16286 0.0241556 0)
(1.16289 0.0243935 0)
(1.16326 0.0246112 0)
(1.16305 0.0248341 0)
(1.16318 0.0250377 0)
(1.16337 0.0252412 0)
(1.16314 0.0254992 0)
(1.16338 0.0256443 0)
(1.16345 0.0258769 0)
(1.16328 0.0261223 0)
(1.16357 0.0262496 0)
(1.16358 0.0265261 0)
(1.1635 0.026711 0)
(1.16382 0.0268761 0)
(1.16379 0.0271463 0)
(1.16377 0.0273206 4.09553e-027)
(0.955092 0.00515048 0)
(0.9815 0.00134571 0)
(1.00915 0.00625008 0)
(1.03785 0.00937445 0)
(1.067 0.0126138 0)
(1.09589 0.0161474 0)
(1.12386 0.0198223 0)
(1.14685 0.0225767 0)
(1.15796 0.0252005 0)
(1.16085 0.0254559 0)
(1.16062 0.0256662 0)
(1.16102 0.0264054 0)
(1.16083 0.0265555 0)
(1.16103 0.0269157 0)
(1.16123 0.0273205 0)
(1.16079 0.027691 0)
(1.16107 0.0279892 0)
(1.16119 0.028304 0)
(1.16096 0.0287259 0)
(1.16136 0.0289849 0)
(1.16127 0.0293234 0)
(1.16112 0.0296855 0)
(1.16153 0.0299098 0)
(1.16139 0.0303277 0)
(1.16138 0.0305458 0)
(1.16178 0.0308385 0)
(1.16158 0.0312368 0)
(1.16166 0.0313939 0)
(1.16205 0.0317207 0)
(0.934504 0.00431996 0)
(0.958641 0.00179998 0)
(0.983933 0.00581454 0)
(1.0102 0.00876528 0)
(1.03704 0.011711 0)
(1.06402 0.0148997 0)
(1.0906 0.0183287 0)
(1.11599 0.021752 0)
(1.13901 0.0249587 0)
(1.15294 0.0271399 0)
(1.15723 0.0286539 0)
(1.15707 0.0284693 0)
(1.15752 0.0291948 0)
(1.15743 0.0295991 0)
(1.15721 0.0300338 0)
(1.15789 0.0304695 0)
(1.15789 0.0308377 0)
(1.15757 0.0314029 0)
(1.15802 0.0317207 0)
(1.15781 0.0322072 0)
(1.15778 0.0326483 0)
(1.15828 0.0329731 0)
(1.15799 0.0336011 0)
(1.15809 0.0338206 0)
(1.15845 0.0342804 0)
(1.1582 0.0348473 0)
(1.15847 0.0349826 0)
(1.15881 0.0355334 0)
(1.15857 0.0359617 0)
(0.915466 0.00375802 0)
(0.937847 0.00214242 0)
(0.961307 0.00563 0)
(0.985692 0.00847421 0)
(1.01071 0.011278 0)
(1.03605 0.0142505 0)
(1.06132 0.0174201 0)
(1.08609 0.020728 0)
(1.10979 0.0240761 0)
(1.1317 0.0271496 0)
(1.1473 0.0297318 0)
(1.15273 0.0313613 0)
(1.15252 0.0313585 0)
(1.15287 0.032196 0)
(1.1533 0.0328108 0)
(1.15271 0.0332289 0)
(1.15255 0.0339266 0)
(1.15328 0.0342914 0)
(1.15307 0.0349905 0)
(1.15311 0.0355419 0)
(1.15353 0.0359002 0)
(1.15315 0.0367324 0)
(1.15346 0.036946 0)
(1.15386 0.0376244 0)
(1.15369 0.0382178 0)
(1.15408 0.0384472 0)
(1.15424 0.0392501 0)
(1.15402 0.0396134 0)
(1.15453 0.0399574 0)
(0.897239 0.00318156 0)
(0.918376 0.00251967 0)
(0.940523 0.00563936 0)
(0.963535 0.00843231 0)
(0.98718 0.0111764 0)
(1.0112 0.01404 0)
(1.03532 0.017062 0)
(1.05923 0.0202156 0)
(1.08256 0.0234619 0)
(1.10486 0.0267296 0)
(1.1254 0.029814 0)
(1.14161 0.0324856 0)
(1.14757 0.0344059 0)
(1.14722 0.0345525 0)
(1.14725 0.0354917 0)
(1.14776 0.0363951 0)
(1.14824 0.0368094 0)
(1.14763 0.0377844 0)
(1.14759 0.0383571 0)
(1.14825 0.0389334 0)
(1.14801 0.0399456 0)
(1.1486 0.0402136 0)
(1.1488 0.0412039 0)
(1.14861 0.0417754 0)
(1.14892 0.0421774 0)
(1.14922 0.0432359 0)
(1.14933 0.0434971 0)
(1.15002 0.0441571 0)
(1.15014 0.0449539 -1.07352e-026)
(0.879449 0.00302783 0)
(0.899553 0.00283106 0)
(0.920661 0.00589483 0)
(0.942609 0.00874719 0)
(0.965192 0.0115422 0)
(0.988186 0.0144286 0)
(1.01136 0.017449 0)
(1.03447 0.0205858 0)
(1.05723 0.0238147 0)
(1.07934 0.0271085 0)
(1.10036 0.0304101 0)
(1.11961 0.0335498 0)
(1.13573 0.0363527 0)
(1.14176 0.038456 0)
(1.14135 0.0389608 0)
(1.14187 0.0397382 0)
(1.14155 0.0409108 0)
(1.14219 0.0413888 0)
(1.14308 0.042326 0)
(1.14274 0.0434309 0)
(1.14314 0.0437668 0)
(1.14317 0.0450551 0)
(1.14342 0.0455833 0)
(1.14396 0.0463225 0)
(1.14461 0.0474341 0)
(1.14478 0.0478139 0)
(1.14517 0.0488604 0)
(1.14508 0.0496561 0)
(1.14539 0.0501527 1.13364e-026)
(0.861432 0.0029671 0)
(0.880671 0.00317533 0)
(0.900896 0.00629617 0)
(0.92195 0.00927856 0)
(0.943647 0.0121998 0)
(0.96579 0.0151951 0)
(0.988168 0.0183075 0)
(1.01057 0.021524 0)
(1.03276 0.0248247 0)
(1.05451 0.0281904 0)
(1.07551 0.0315951 0)
(1.09536 0.0349822 0)
(1.11343 0.0382213 0)
(1.12889 0.041135 0)
(1.13521 0.043336 0)
(1.13471 0.0442085 0)
(1.13537 0.0448834 0)
(1.13575 0.0461513 0)
(1.13558 0.0470729 0)
(1.13601 0.0477565 0)
(1.1365 0.0493302 0)
(1.13718 0.0496992 0)
(1.13754 0.0507793 0)
(1.13793 0.0519872 0)
(1.13806 0.0524417 0)
(1.13827 0.0537841 0)
(1.13876 0.0545141 0)
(1.13985 0.0551413 0)
(1.14047 0.0563432 1.23927e-026)
(0.843104 0.00284224 0)
(0.861603 0.00353662 0)
(0.88108 0.00671881 0)
(0.901389 0.00983412 0)
(0.922348 0.0128943 0)
(0.943777 0.0160147 0)
(0.965492 0.0192356 0)
(0.987297 0.0225468 0)
(1.009 0.0259312 0)
(1.03039 0.0293727 0)
(1.05123 0.0328521 0)
(1.07127 0.0363395 0)
(1.09012 0.0397766 0)
(1.10724 0.043051 0)
(1.12157 0.0460891 0)
(1.12705 0.0482171 0)
(1.12685 0.0495621 0)
(1.12724 0.0502153 0)
(1.12741 0.0516457 0)
(1.12816 0.0530359 0)
(1.12881 0.0535501 0)
(1.12902 0.0551311 0)
(1.1292 0.0564088 0)
(1.12991 0.0569553 0)
(1.13005 0.058641 0)
(1.13119 0.0593876 0)
(1.13232 0.0601575 0)
(1.1322 0.0617805 0)
(1.13225 0.0624179 -1.30841e-026)
(0.824664 0.00273005 0)
(0.842503 0.00389147 0)
(0.861314 0.00715756 0)
(0.880978 0.0104103 0)
(0.901332 0.0136212 0)
(0.922184 0.0168816 0)
(0.943361 0.0202268 0)
(0.964691 0.0236481 0)
(0.985993 0.0271303 0)
(1.00709 0.0306589 0)
(1.02778 0.034218 0)
(1.04785 0.0377865 0)
(1.06704 0.0413299 0)
(1.08501 0.0447843 0)
(1.10123 0.0480879 0)
(1.11403 0.0511738 0)
(1.11816 0.0530878 0)
(1.1182 0.0547551 0)
(1.11901 0.0560177 0)
(1.11994 0.0568653 0)
(1.11954 0.059055 0)
(1.11958 0.0601697 0)
(1.12117 0.0608592 0)
(1.12142 0.0630474 0)
(1.12258 0.0638987 0)
(1.12332 0.0649459 0)
(1.12279 0.0670684 0)
(1.12325 0.0675623 0)
(1.12534 0.068788 -1.43989e-026)
(0.806061 0.002664 0)
(0.823316 0.00425728 0)
(0.841549 0.00765464 0)
(0.860636 0.0110681 0)
(0.880451 0.0144519 0)
(0.900831 0.0178839 0)
(0.921585 0.0213889 0)
(0.942541 0.0249577 0)
(0.963543 0.0285763 0)
(0.984425 0.0322313 0)
(1.00502 0.0359085 0)
(1.02513 0.0395912 0)
(1.04457 0.0432569 0)
(1.06308 0.0468663 0)
(1.0803 0.0503429 0)
(1.09582 0.053705 0)
(1.10608 0.0568176 0)
(1.1085 0.0586014 0)
(1.11031 0.059821 0)
(1.10944 0.0623404 0)
(1.11018 0.0632834 0)
(1.1127 0.0646499 0)
(1.11238 0.0673372 0)
(1.11225 0.0679593 0)
(1.11334 0.0695041 0)
(1.11355 0.0717661 0)
(1.11504 0.0722386 0)
(1.11737 0.0741159 0)
(1.11688 0.0760589 1.52377e-026)
(0.787232 0.00264746 0)
(0.803954 0.00464079 0)
(0.821677 0.00821784 0)
(0.840277 0.01183 0)
(0.859615 0.0154178 0)
(0.879559 0.0190503 0)
(0.89996 0.022755 0)
(0.920633 0.0265171 0)
(0.941407 0.0303208 0)
(0.962137 0.0341546 0)
(0.982663 0.0380055 0)
(1.00282 0.0418591 0)
(1.02243 0.0456986 0)
(1.04128 0.0495005 0)
(1.05911 0.0532192 0)
(1.07557 0.0567843 0)
(1.09004 0.0602535 0)
(1.09879 0.0631409 0)
(1.09831 0.0657127 0)
(1.09966 0.0664376 0)
(1.10146 0.0688379 0)
(1.10058 0.0712537 0)
(1.10133 0.0716299 0)
(1.10437 0.0742923 0)
(1.10492 0.0764421 0)
(1.10537 0.0772668 0)
(1.10659 0.0797851 0)
(1.10626 0.0812627 0)
(1.1079 0.0821321 0)
(0.768086 0.00269073 0)
(0.784311 0.00505587 0)
(0.801561 0.0088643 0)
(0.819719 0.0127196 0)
(0.83865 0.0165575 0)
(0.85821 0.0204365 0)
(0.878264 0.0243815 0)
(0.898674 0.0283871 0)
(0.919265 0.0324342 0)
(0.939869 0.0365074 0)
(0.960346 0.0405958 0)
(0.98054 0.044685 0)
(1.00029 0.048759 0)
(1.0194 0.0527982 0)
(1.03766 0.0567705 0)
(1.05477 0.0606116 0)
(1.0704 0.064308 0)
(1.08152 0.0681098 0)
(1.08754 0.0700752 0)
(1.08835 0.0733525 0)
(1.08978 0.0747119 0)
(1.09227 0.0764148 0)
(1.09294 0.0800678 0)
(1.09144 0.0815094 0)
(1.09198 0.0827962 0)
(1.09494 0.0857145 0)
(1.09696 0.0868382 0)
(1.09982 0.0891232 0)
(1.09976 0.0913747 0)
(0.748536 0.00278687 0)
(0.764285 0.00550338 0)
(0.781087 0.00958828 0)
(0.798828 0.0137273 0)
(0.81738 0.0178537 0)
(0.836604 0.0220208 0)
(0.856354 0.0262497 0)
(0.876496 0.030533 0)
(0.8969 0.0348607 0)
(0.917402 0.039216 0)
(0.93784 0.0435822 0)
(0.958082 0.0479479 0)
(0.977977 0.0522972 0)
(0.997359 0.0566131 0)
(1.01604 0.0608721 0)
(1.0338 0.0650275 0)
(1.05039 0.0690261 0)
(1.06521 0.0728341 0)
(1.07302 0.0770433 0)
(1.07719 0.0786169 0)
(1.0766 0.0816271 0)
(1.07569 0.0846909 0)
(1.07728 0.0858473 0)
(1.08222 0.0889646 0)
(1.08427 0.0913171 0)
(1.08491 0.0929321 0)
(1.08461 0.0959971 0)
(1.08432 0.0981279 0)
(1.08695 0.0995974 0)
(0.72854 0.00293441 4.38682e-026)
(0.743825 0.0059904 0)
(0.760196 0.0103966 0)
(0.77754 0.014862 0)
(0.795735 0.0193175 0)
(0.814646 0.0238146 0)
(0.834133 0.028373 0)
(0.854055 0.032983 0)
(0.874277 0.0376319 0)
(0.894675 0.04231 0)
(0.915098 0.0470029 0)
(0.935387 0.0516918 0)
(0.955403 0.0563649 0)
(0.974988 0.0610054 0)
(0.993954 0.0655934 0)
(1.01207 0.070098 0)
(1.02904 0.0744557 0)
(1.04456 0.078818 0)
(1.05676 0.0822581 0)
(1.05949 0.0873502 0)
(1.06237 0.0884414 0)
(1.06679 0.0918134 0)
(1.0694 0.0948174 0)
(1.0675 0.0971851 0)
(1.06754 0.0995372 0)
(1.06947 0.10297 0)
(1.07302 0.104873 0)
(1.07775 0.107556 0)
(1.07778 0.110313 0)
(0.708022 0.00313703 1.53938e-027)
(0.722849 0.00653099 0)
(0.738792 0.0113103 0)
(0.755747 0.0161532 0)
(0.773593 0.0209881 0)
(0.7922 0.0258676 0)
(0.811432 0.0308115 0)
(0.831151 0.0358095 0)
(0.851219 0.0408469 0)
(0.871506 0.0459127 0)
(0.891885 0.0509943 0)
(0.912215 0.0560792 0)
(0.932352 0.0611496 0)
(0.952145 0.0661902 0)
(0.97143 0.0711824 0)
(0.990019 0.076094 0)
(1.00769 0.0808561 0)
(1.02429 0.0854085 0)
(1.03798 0.0906022 0)
(1.04701 0.0930099 0)
(1.0496 0.0978506 0)
(1.04941 0.0999433 0)
(1.0501 0.102858 0)
(1.05521 0.106961 0)
(1.05824 0.110108 0)
(1.05926 0.112342 0)
(1.0598 0.115416 0)
(1.06093 0.11813 0)
(1.06582 0.119934 0)
(0.686904 0.00339107 -5.0801e-026)
(0.701269 0.00712911 0)
(0.716784 0.0123331 0)
(0.733347 0.017605 0)
(0.750841 0.0228696 0)
(0.769141 0.0281826 0)
(0.788113 0.0335647 0)
(0.807624 0.0390052 0)
(0.827538 0.0444883 0)
(0.847724 0.0499992 0)
(0.868059 0.0555274 0)
(0.888411 0.0610577 0)
(0.908638 0.0665721 0)
(0.928602 0.072055 0)
(0.948146 0.0774853 0)
(0.967094 0.0828368 0)
(0.985254 0.0880567 0)
(1.0025 0.0931246 0)
(1.01885 0.0974905 0)
(1.02752 0.104266 0)
(1.03304 0.105527 0)
(1.03823 0.110538 0)
(1.0397 0.114608 0)
(1.03795 0.116706 0)
(1.03961 0.119762 0)
(1.04492 0.122871 0)
(1.04988 0.126378 0)
(1.05373 0.129714 0)
(1.05152 0.132496 0)
(0.665136 0.00368897 0)
(0.679031 0.00778161 0)
(0.694111 0.0134573 0)
(0.710276 0.0192048 0)
(0.727413 0.0249448 0)
(0.745399 0.0307379 0)
(0.764107 0.0366061 0)
(0.783406 0.0425379 0)
(0.803165 0.0485164 0)
(0.823257 0.0545264 0)
(0.843555 0.0605534 0)
(0.863937 0.0665817 0)
(0.884278 0.0725961 0)
(0.904447 0.0785771 0)
(0.924305 0.0845044 0)
(0.943695 0.0903493 0)
(0.96243 0.0960659 0)
(0.980284 0.101585 0)
(0.996829 0.107342 0)
(1.01088 0.111418 0)
(1.0159 0.117813 0)
(1.01731 0.120202 0)
(1.02058 0.123687 0)
(1.02896 0.129744 0)
(1.03204 0.131829 0)
(1.03124 0.136025 0)
(1.03131 0.138709 0)
(1.03386 0.14259 0)
(1.0425 0.146476 0)
(0.642707 0.00402348 -6.26803e-026)
(0.656123 0.0084835 0)
(0.670758 0.0146724 0)
(0.686515 0.020937 0)
(0.703284 0.0271936 0)
(0.720948 0.033509 0)
(0.739381 0.0399074 0)
(0.758457 0.0463766 0)
(0.778051 0.0528987 0)
(0.798036 0.0594578 0)
(0.818289 0.0660381 0)
(0.838691 0.0726241 0)
(0.85912 0.0791989 0)
(0.87945 0.0857449 0)
(0.899546 0.0922452 0)
(0.919261 0.0986807 0)
(0.938431 0.105014 0)
(0.956893 0.111163 0)
(0.974767 0.11688 0)
(0.989309 0.124521 0)
(0.998964 0.12695 0)
(1.0057 0.133666 0)
(1.00703 0.136737 0)
(1.00712 0.139634 0)
(1.01013 0.144782 0)
(1.01707 0.14859 0)
(1.02284 0.152963 0)
(1.02589 0.156229 0)
(1.02528 0.159196 5.78334e-026)
(0.619635 0.00438828 -2.02145e-027)
(0.632561 0.00923027 0)
(0.646739 0.0159698 0)
(0.662075 0.0227886 0)
(0.678464 0.0295992 0)
(0.69579 0.0364758 0)
(0.713934 0.0434455 0)
(0.732774 0.0504951 0)
(0.752186 0.0576058 0)
(0.77205 0.0647608 0)
(0.792245 0.0719436 0)
(0.812652 0.0791373 0)
(0.833154 0.0863235 0)
(0.853627 0.0934834 0)
(0.873941 0.100597 0)
(0.89395 0.10764 0)
(0.913492 0.114586 0)
(0.932388 0.121369 0)
(0.950682 0.127911 0)
(0.968467 0.133852 0)
(0.979262 0.141379 0)
(0.984336 0.144935 0)
(0.990467 0.14967 0)
(0.998795 0.156682 0)
(0.999383 0.158925 0)
(0.998289 0.162572 0)
(1.00208 0.166171 0)
(1.00722 0.17074 0)
(1.01853 0.176645 1.15239e-027)
(0.595953 0.00477851 7.25375e-026)
(0.608378 0.0100182 0)
(0.622085 0.0173415 0)
(0.636984 0.0247478 0)
(0.652973 0.0321465 0)
(0.669942 0.0396208 0)
(0.687775 0.0472006 0)
(0.706354 0.0548725 0)
(0.725561 0.0626167 0)
(0.745277 0.0704159 0)
(0.765386 0.0782531 0)
(0.785773 0.0861102 0)
(0.806322 0.0939682 0)
(0.826916 0.101807 0)
(0.847433 0.109605 0)
(0.867746 0.117337 0)
(0.887722 0.124965 0)
(0.907236 0.132425 0)
(0.926326 0.139596 0)
(0.944567 0.147432 0)
(0.959671 0.152238 0)
(0.969525 0.160297 0)
(0.970875 0.163376 0)
(0.973851 0.167363 0)
(0.981667 0.174287 0)
(0.990498 0.179295 0)
(0.99277 0.184273 0)
(0.99387 0.185832 0)
(0.997313 0.189691 -6.61387e-026)
(0.571723 0.00518496 0)
(0.583635 0.0108356 0)
(0.596857 0.0187668 0)
(0.611302 0.0267839 0)
(0.626871 0.0347945 0)
(0.643459 0.0428914 0)
(0.660957 0.0511077 0)
(0.67925 0.0594292 0)
(0.698223 0.0678353 0)
(0.717764 0.0763077 0)
(0.737759 0.0848281 0)
(0.758098 0.093377 0)
(0.778669 0.101933 0)
(0.799361 0.110473 0)
(0.82006 0.118973 0)
(0.84065 0.127406 0)
(0.861015 0.135739 0)
(0.881064 0.143906 0)
(0.900858 0.151758 0)
(0.921113 0.159378 0)
(0.937005 0.168228 0)
(0.948484 0.172565 0)
(0.95747 0.180259 0)
(0.963655 0.186461 0)
(0.962561 0.188447 0)
(0.966279 0.192608 0)
(0.976838 0.19849 0)
(0.982326 0.205279 0)
(0.989177 0.208224 0)
(0.547033 0.00560169 0)
(0.558425 0.0116739 0)
(0.571148 0.0202297 0)
(0.585121 0.0288735 0)
(0.600251 0.0375127 0)
(0.616437 0.0462504 0)
(0.633575 0.0551228 0)
(0.651556 0.0641152 0)
(0.67027 0.0732061 0)
(0.68961 0.0823765 0)
(0.709467 0.0916073 0)
(0.729736 0.100878 0)
(0.750311 0.110165 0)
(0.771089 0.119444 0)
(0.791965 0.12869 0)
(0.812831 0.137872 0)
(0.833583 0.146958 0)
(0.854124 0.155908 0)
(0.874406 0.164622 0)
(0.894594 0.173278 0)
(0.915379 0.180874 0)
(0.928616 0.19084 0)
(0.934732 0.194136 0)
(0.943337 0.199775 0)
(0.95523 0.210885 0)
(0.955302 0.21182 0)
(0.957975 0.216051 0)
(0.965993 0.22078 0)
(0.970697 0.226217 7.81464e-026)
(0.521987 0.00602264 0)
(0.53285 0.0125246 0)
(0.545065 0.021715 0)
(0.558551 0.0309947 0)
(0.573221 0.0402725 0)
(0.588983 0.0496623 0)
(0.605736 0.0592036 0)
(0.623377 0.0688813 0)
(0.641803 0.0786734 0)
(0.660911 0.0885605 0)
(0.680597 0.0985229 0)
(0.700764 0.108539 0)
(0.721308 0.118586 0)
(0.742133 0.128638 0)
(0.763141 0.138669 0)
(0.784235 0.148651 0)
(0.805321 0.158552 0)
(0.826315 0.168327 0)
(0.847173 0.177874 0)
(0.868077 0.187282 0)
(0.887744 0.197188 0)
(0.907623 0.203534 0)
(0.919928 0.215848 0)
(0.922625 0.217377 0)
(0.930305 0.22218 0)
(0.942842 0.234024 0)
(0.946493 0.235032 0)
(0.952206 0.242157 0)
(0.957545 0.244956 1.07956e-027)
(0.496696 0.00644311 0)
(0.507027 0.0133811 0)
(0.518723 0.0232108 0)
(0.531709 0.0331298 0)
(0.545902 0.0430508 0)
(0.561217 0.053099 0)
(0.57756 0.063317 0)
(0.594833 0.0736896 0)
(0.61294 0.0841947 0)
(0.631782 0.0948127 0)
(0.651262 0.105523 0)
(0.671287 0.116307 0)
(0.691762 0.127138 0)
(0.712588 0.13799 0)
(0.733674 0.148836 0)
(0.754928 0.15965 0)
(0.776258 0.170405 0)
(0.797579 0.181069 0)
(0.818842 0.191576 0)
(0.840165 0.201639 0)
(0.862995 0.212484 0)
(0.879424 0.222043 0)
(0.898816 0.228155 0)
(0.912224 0.241516 0)
(0.913552 0.243128 0)
(0.920063 0.247289 0)
(0.93061 0.257657 0)
(0.937743 0.259417 0)
(0.944031 0.267762 -1.79145e-025)
(0.471275 0.00685851 0)
(0.481072 0.0142374 0)
(0.492244 0.0247061 0)
(0.504716 0.0352628 0)
(0.518415 0.0458269 0)
(0.533261 0.0565348 0)
(0.549168 0.0674325 0)
(0.566044 0.078505 0)
(0.583797 0.0897304 0)
(0.602337 0.10109 0)
(0.621571 0.112563 0)
(0.64141 0.124129 0)
(0.661766 0.135765 0)
(0.682547 0.147442 0)
(0.703664 0.159133 0)
(0.725025 0.170809 0)
(0.746543 0.182439 0)
(0.768128 0.193995 0)
(0.789701 0.20545 0)
(0.811243 0.216618 0)
(0.833908 0.227678 0)
(0.858653 0.239028 0)
(0.870962 0.248608 0)
(0.888977 0.254221 0)
(0.904588 0.267826 0)
(0.906065 0.270315 0)
(0.912554 0.274535 0)
(0.922891 0.283652 0)
(0.930503 0.286098 -9.22029e-028)
(0.445837 0.00726441 0)
(0.455103 0.0150877 0)
(0.465746 0.0261901 0)
(0.477695 0.0373778 0)
(0.490884 0.0485794 0)
(0.505241 0.059943 0)
(0.520686 0.0715176 0)
(0.537134 0.0832886 0)
(0.5545 0.0952347 0)
(0.572698 0.107338 0)
(0.591645 0.119578 0)
(0.611254 0.131935 0)
(0.63144 0.144382 0)
(0.652122 0.156893 0)
(0.673215 0.169443 0)
(0.694635 0.181997 0)
(0.716294 0.194521 0)
(0.738113 0.20698 0)
(0.760023 0.219337 0)
(0.781977 0.231468 0)
(0.804517 0.24353 0)
(0.828497 0.25538 0)
(0.854372 0.266839 0)
(0.863164 0.276958 0)
(0.879567 0.281759 0)
(0.896129 0.294957 0)
(0.89873 0.298407 0)
(0.906837 0.30259 0)
(0.917104 0.312401 1.02459e-025)
(0.420496 0.00765679 0)
(0.429235 0.0159269 0)
(0.439349 0.0276532 0)
(0.450767 0.0394606 0)
(0.463434 0.0512895 0)
(0.477283 0.0632996 0)
(0.492242 0.0755427 0)
(0.508233 0.0880046 0)
(0.525179 0.100665 0)
(0.543 0.113507 0)
(0.561618 0.126511 0)
(0.580954 0.139656 0)
(0.600931 0.152915 0)
(0.621464 0.166263 0)
(0.64248 0.17967 0)
(0.663904 0.193104 0)
(0.685658 0.206529 0)
(0.707671 0.219906 0)
(0.729884 0.233191 0)
(0.752285 0.246305 0)
(0.775183 0.259084 0)
(0.799278 0.272348 0)
(0.823516 0.28475 0)
(0.850192 0.295766 0)
(0.856822 0.307401 0)
(0.87199 0.310683 0)
(0.888003 0.323566 0)
(0.892463 0.327606 0)
(0.904941 0.333672 1.10108e-025)
(0.395357 0.00803222 0)
(0.40358 0.0167509 0)
(0.413166 0.0290879 0)
(0.42405 0.0414997 0)
(0.436184 0.0539421 0)
(0.449509 0.0665859 0)
(0.463962 0.079485 0)
(0.479472 0.0926262 0)
(0.495968 0.10599 0)
(0.513377 0.119561 0)
(0.531629 0.133321 0)
(0.55065 0.147247 0)
(0.570372 0.161318 0)
(0.590719 0.175505 0)
(0.611616 0.189772 0)
(0.632995 0.204087 0)
(0.654792 0.218413 0)
(0.676944 0.232711 0)
(0.699401 0.246939 0)
(0.722151 0.261047 0)
(0.745337 0.274915 0)
(0.769643 0.288483 0)
(0.795206 0.303243 0)
(0.819 0.315333 0)
(0.845993 0.327009 0)
(0.851354 0.338346 0)
(0.866244 0.341864 0)
(0.881073 0.352685 0)
(0.888193 0.357739 -1.17152e-025)
(0.370522 0.00838775 0)
(0.378239 0.0175563 0)
(0.387303 0.0304878 0)
(0.397652 0.0434861 0)
(0.409246 0.0565254 0)
(0.422035 0.0697872 0)
(0.435964 0.0833277 0)
(0.45097 0.0971346 0)
(0.466988 0.111191 0)
(0.483953 0.125481 0)
(0.501801 0.139989 0)
(0.520465 0.154694 0)
(0.539886 0.169574 0)
(0.559998 0.184597 0)
(0.580733 0.199727 0)
(0.60203 0.214933 0)
(0.623827 0.230174 0)
(0.646069 0.245405 0)
(0.668711 0.260584 0)
(0.691738 0.275671 0)
(0.715205 0.290595 0)
(0.73936 0.305344 0)
(0.765262 0.319796 0)
(0.792338 0.335753 0)
(0.814971 0.34784 0)
(0.842272 0.359267 0)
(0.847572 0.370767 0)
(0.862944 0.374508 0)
(0.877185 0.384452 1.25301e-025)
(0.346082 0.00872063 0)
(0.353307 0.01834 0)
(0.361858 0.031847 0)
(0.371673 0.0454108 0)
(0.382721 0.0590281 0)
(0.394965 0.0728904 0)
(0.408354 0.0870556 0)
(0.422833 0.101513 0)
(0.438346 0.116248 0)
(0.454836 0.131247 0)
(0.472244 0.146496 0)
(0.490515 0.161976 0)
(0.509594 0.177661 0)
(0.529427 0.193519 0)
(0.549948 0.209521 0)
(0.571107 0.22563 0)
(0.592851 0.241804 0)
(0.615131 0.257996 0)
(0.637903 0.27416 0)
(0.661147 0.29025 0)
(0.684881 0.306222 0)
(0.709237 0.322031 0)
(0.734506 0.33782 0)
(0.762248 0.353072 0)
(0.790724 0.370317 0)
(0.812344 0.381883 0)
(0.839821 0.393197 0)
(0.846117 0.404253 0)
(0.862257 0.407036 -2.6632e-025)
(0.322119 0.00902812 0)
(0.328871 0.0190982 0)
(0.336918 0.0331583 0)
(0.346202 0.0472639 0)
(0.356704 0.0614371 0)
(0.368393 0.0758791 0)
(0.381227 0.090649 0)
(0.39516 0.105738 0)
(0.410141 0.121135 0)
(0.426123 0.136829 0)
(0.443055 0.152808 0)
(0.460889 0.169054 0)
(0.479579 0.185541 0)
(0.499083 0.202248 0)
(0.519345 0.219141 0)
(0.540315 0.23617 0)
(0.561952 0.253298 0)
(0.584211 0.270479 0)
(0.607055 0.28766 0)
(0.630454 0.304791 0)
(0.654408 0.321823 0)
(0.678981 0.338721 0)
(0.704454 0.355433 0)
(0.731057 0.3724 0)
(0.760805 0.388159 0)
(0.790873 0.406319 0)
(0.811277 0.417231 0)
(0.839167 0.428537 0)
(0.846987 0.438947 3.82122e-028)
(0.298712 0.00930755 0)
(0.305008 0.019826 0)
(0.312565 0.0344136 0)
(0.321324 0.0490336 0)
(0.331278 0.0637375 0)
(0.342405 0.078735 0)
(0.354672 0.0940867 0)
(0.368038 0.109787 0)
(0.382463 0.125827 0)
(0.397905 0.142201 0)
(0.414323 0.158899 0)
(0.431678 0.175906 0)
(0.449929 0.193199 0)
(0.469044 0.21076 0)
(0.488991 0.228543 0)
(0.509716 0.246508 0)
(0.531189 0.264619 0)
(0.553374 0.282819 0)
(0.576236 0.301052 0)
(0.599747 0.319259 0)
(0.623891 0.337381 0)
(0.64869 0.355367 0)
(0.674301 0.373153 0)
(0.701274 0.390836 0)
(0.729699 0.408738 0)
(0.761303 0.425102 0)
(0.793186 0.443314 0)
(0.813042 0.454506 0)
(0.840733 0.464231 7.53754e-028)
(0.275929 0.00955633 0)
(0.28179 0.020518 0)
(0.288871 0.0356031 0)
(0.297113 0.0507061 0)
(0.30652 0.0659115 0)
(0.317081 0.0814369 0)
(0.328768 0.0973434 0)
(0.34155 0.113629 0)
(0.355393 0.13029 0)
(0.370263 0.147325 0)
(0.386128 0.164728 0)
(0.402957 0.182486 0)
(0.420721 0.200583 0)
(0.439394 0.218989 0)
(0.458961 0.237677 0)
(0.479381 0.256614 0)
(0.500628 0.275733 0)
(0.522679 0.294988 0)
(0.545509 0.314316 0)
(0.569095 0.333645 0)
(0.593417 0.352903 0)
(0.618477 0.372021 0)
(0.64435 0.390902 0)
(0.671355 0.409638 0)
(0.700413 0.428049 0)
(0.730897 0.44703 0)
(0.764485 0.463872 0)
(0.797396 0.481278 0)
(0.818431 0.49323 1.59033e-025)
(0.253835 0.00977197 0)
(0.259283 0.0211673 0)
(0.265903 0.0367152 0)
(0.273637 0.0522654 0)
(0.282501 0.0679387 0)
(0.292492 0.0839593 0)
(0.30359 0.100389 0)
(0.31577 0.117231 0)
(0.329006 0.134487 0)
(0.343271 0.15216 0)
(0.358543 0.170249 0)
(0.3748 0.188746 0)
(0.392022 0.207637 0)
(0.410194 0.226898 0)
(0.429309 0.246513 0)
(0.449362 0.266429 0)
(0.470316 0.28659 0)
(0.49217 0.306945 0)
(0.514912 0.327423 0)
(0.53853 0.347941 0)
(0.563013 0.368409 0)
(0.588358 0.388736 0)
(0.614599 0.408808 0)
(0.641884 0.428596 0)
(0.670862 0.448131 0)
(0.702142 0.46726 0)
(0.735236 0.487208 0)
(0.770704 0.504338 0)
(0.804153 0.519858 -1.66e-025)
(0.23249 0.00995216 0)
(0.237548 0.0217658 0)
(0.243725 0.0377368 0)
(0.250961 0.053693 0)
(0.259286 0.0697956 0)
(0.268704 0.086274 0)
(0.279204 0.103191 0)
(0.290765 0.120555 0)
(0.303369 0.138373 0)
(0.316998 0.156657 0)
(0.331637 0.17541 0)
(0.347273 0.194631 0)
(0.363897 0.21431 0)
(0.381505 0.23443 0)
(0.400096 0.254962 0)
(0.419695 0.275878 0)
(0.440287 0.297132 0)
(0.461871 0.318641 0)
(0.484457 0.340336 0)
(0.508052 0.362127 0)
(0.53266 0.383908 0)
(0.558289 0.405559 0)
(0.58496 0.42695 0)
(0.612742 0.447954 0)
(0.641965 0.468594 0)
(0.673272 0.488786 0)
(0.707075 0.508569 0)
(0.743076 0.52941 0)
(0.781131 0.545516 1.7635e-025)
(0.211949 0.0100948 0)
(0.216639 0.0223049 0)
(0.222391 0.0386534 0)
(0.229141 0.0549693 0)
(0.236932 0.0714572 0)
(0.245778 0.0883504 0)
(0.255671 0.105713 0)
(0.266598 0.123558 0)
(0.278547 0.141903 0)
(0.291508 0.160765 0)
(0.305473 0.180154 0)
(0.320438 0.200076 0)
(0.336406 0.220528 0)
(0.353384 0.241499 0)
(0.371384 0.262964 0)
(0.390433 0.284908 0)
(0.410573 0.307273 0)
(0.431797 0.329991 0)
(0.454143 0.352982 0)
(0.477639 0.376147 0)
(0.502314 0.399364 0)
(0.528194 0.422491 0)
(0.555311 0.44537 0)
(0.583707 0.467824 0)
(0.613554 0.489727 0)
(0.645183 0.511141 0)
(0.679249 0.531689 0)
(0.715604 0.552421 0)
(0.75613 0.572719 0)
(0.192261 0.0101982 0)
(0.196608 0.0227753 0)
(0.201952 0.0394502 0)
(0.208229 0.0560739 0)
(0.215493 0.0728978 0)
(0.223767 0.0901576 0)
(0.233047 0.107918 0)
(0.243326 0.1262 0)
(0.254599 0.145028 0)
(0.26686 0.164428 0)
(0.28011 0.184418 0)
(0.294356 0.205013 0)
(0.309608 0.226217 0)
(0.325885 0.248029 0)
(0.343215 0.270434 0)
(0.361631 0.293402 0)
(0.381204 0.316909 0)
(0.401973 0.340898 0)
(0.423973 0.365264 0)
(0.447268 0.389911 0)
(0.471919 0.414703 0)
(0.497983 0.43948 0)
(0.525517 0.464051 0)
(0.55457 0.488202 0)
(0.585242 0.511686 0)
(0.617678 0.534478 0)
(0.652382 0.556229 0)
(0.689002 0.577246 0)
(0.729904 0.598124 1.86526e-025)
(0.173473 0.0102612 0)
(0.177498 0.023168 0)
(0.182453 0.0401127 0)
(0.188269 0.0569872 0)
(0.195014 0.0740931 0)
(0.202717 0.0916664 0)
(0.21138 0.109773 0)
(0.221 0.12844 0)
(0.231576 0.147703 0)
(0.24311 0.167595 0)
(0.255608 0.188145 0)
(0.269085 0.209375 0)
(0.283561 0.231302 0)
(0.299068 0.253933 0)
(0.315645 0.277264 0)
(0.333344 0.301276 0)
(0.35223 0.325948 0)
(0.372409 0.351233 0)
(0.393943 0.377054 0)
(0.416914 0.40329 0)
(0.441423 0.429803 0)
(0.467568 0.456414 0)
(0.495444 0.482905 0)
(0.525135 0.509018 0)
(0.556726 0.534435 0)
(0.590292 0.558931 0)
(0.626142 0.582252 0)
(0.663925 0.604025 0)
(0.704624 0.625145 -5.87892e-027)
(0.155621 0.0102829 0)
(0.159348 0.0234744 0)
(0.163932 0.0406275 0)
(0.169299 0.0576919 0)
(0.175534 0.0750219 0)
(0.182669 0.0928516 0)
(0.190712 0.111247 0)
(0.199663 0.130246 0)
(0.209527 0.14989 0)
(0.220309 0.170222 0)
(0.232021 0.191282 0)
(0.244684 0.213102 0)
(0.258327 0.235711 0)
(0.272992 0.259129 0)
(0.288732 0.283366 0)
(0.305615 0.308417 0)
(0.32372 0.334262 0)
(0.343163 0.360874 0)
(0.364078 0.388194 0)
(0.386576 0.416114 0)
(0.410789 0.444488 0)
(0.436872 0.473125 0)
(0.464971 0.501779 0)
(0.495226 0.53015 0)
(0.527754 0.557862 0)