/*--------------------------------*- C++ -*----------------------------------*\
| =========                 |                                                 |
| \\      /  F ield         | OpenFOAM: The Open Source CFD Toolbox           |
|  \\    /   O peration     | Version:  5.x                                   |
|   \\  /    A nd           | Web:      www.OpenFOAM.org                      |
|    \\/     M anipulation  |                                                 |
\*---------------------------------------------------------------------------*/
/*   Windows 32 and 64 bit porting by blueCAPE: http://www.bluecape.com.pt   *\
|  Based on Windows porting (2.0.x v4) by Symscape: http://www.symscape.com   |
\*---------------------------------------------------------------------------*/
FoamFile
{
    version     2.0;
    format      ascii;
    class       volScalarField;
    location    "120";
    object      epsilon;
}
// * * * * * * * * * * * * * * * * * * * * * * * * * * * * * * * * * * * * * //

dimensions      [0 2 -3 0 0 0 0];

internalField   nonuniform List<scalar> 
43900
(
0.00153026
0.00151935
0.00151977
0.00151972
0.00151967
0.00151967
0.00151967
0.00151968
0.00151968
0.00151969
0.00151969
0.00151969
0.00151969
0.00151969
0.00151969
0.00151969
0.00151969
0.00151969
0.00151969
0.00151969
0.00151969
0.00151969
0.00151969
0.00151969
0.00151969
0.00151969
0.00151969
0.00151969
0.00151969
0.000269302
3.55571e-005
3.16134e-005
3.15335e-005
3.27708e-005
3.28008e-005
3.27902e-005
3.2803e-005
3.27991e-005
3.28081e-005
3.28085e-005
3.28097e-005
3.28107e-005
3.28116e-005
3.28124e-005
3.28132e-005
3.2814e-005
3.28147e-005
3.28154e-005
3.2816e-005
3.28165e-005
3.28167e-005
3.2817e-005
3.28172e-005
3.28174e-005
3.28176e-005
3.28177e-005
3.28178e-005
3.28178e-005
0.0472937
0.00483876
0.000197548
7.21496e-006
1.4824e-006
1.32016e-006
1.40024e-006
1.41765e-006
1.41785e-006
1.4172e-006
1.41751e-006
1.41795e-006
1.41833e-006
1.41867e-006
1.41898e-006
1.41924e-006
1.41946e-006
1.41966e-006
1.41982e-006
1.41996e-006
1.42008e-006
1.42017e-006
1.42026e-006
1.42034e-006
1.42042e-006
1.42049e-006
1.42055e-006
1.42061e-006
1.42064e-006
0.140145
0.0394942
0.00780979
0.00082769
3.37381e-005
1.25136e-006
1.61004e-007
1.08929e-007
1.14473e-007
1.19602e-007
1.19938e-007
1.19921e-007
1.19961e-007
1.20006e-007
1.20046e-007
1.20082e-007
1.20115e-007
1.20143e-007
1.20169e-007
1.20193e-007
1.20214e-007
1.20234e-007
1.20251e-007
1.20268e-007
1.20283e-007
1.20297e-007
1.20311e-007
1.20324e-007
1.20336e-007
0.191611
0.0788513
0.0296191
0.00855652
0.00159267
0.000134533
4.78312e-006
1.8754e-007
2.64539e-008
1.66018e-008
1.70633e-008
1.73853e-008
1.74158e-008
1.74222e-008
1.74279e-008
1.74332e-008
1.74379e-008
1.74423e-008
1.74466e-008
1.74507e-008
1.74534e-008
1.74571e-008
1.74608e-008
1.74644e-008
1.74674e-008
1.747e-008
1.74741e-008
1.74769e-008
1.74798e-008
0.218427
0.104178
0.0491784
0.0220167
0.0082778
0.00210115
0.000283383
1.51438e-005
4.80109e-007
2.36321e-008
5.56944e-009
4.80377e-009
4.83292e-009
4.83598e-009
4.83686e-009
4.8378e-009
4.83886e-009
4.84006e-009
4.84113e-009
4.84237e-009
4.84399e-009
4.8447e-009
4.84511e-009
4.84595e-009
4.84692e-009
4.8488e-009
4.84889e-009
4.84913e-009
4.84961e-009
0.229313
0.117813
0.0610321
0.0312802
0.0153018
0.00661322
0.00204046
0.000355746
2.38141e-005
7.32854e-007
2.28639e-008
3.83349e-009
3.15752e-009
3.13931e-009
3.13931e-009
3.13933e-009
3.13946e-009
3.13988e-009
3.14057e-009
3.14164e-009
3.1435e-009
3.14451e-009
3.14681e-009
3.14696e-009
3.14728e-009
3.14861e-009
3.14606e-009
3.14606e-009
3.14613e-009
0.234718
0.126516
0.0692484
0.0380652
0.0206464
0.0107217
0.00501159
0.00174527
0.000313135
1.96277e-005
5.15636e-007
1.52632e-008
4.29223e-009
4.06228e-009
4.05932e-009
4.05934e-009
4.0594e-009
4.05964e-009
4.06035e-009
4.06183e-009
4.06417e-009
4.06664e-009
4.07266e-009
4.07195e-009
4.072e-009
4.0709e-009
4.06662e-009
4.06665e-009
4.0669e-009
0.233169
0.128753
0.0724687
0.0412239
0.023422
0.0130521
0.00690897
0.00324376
0.00110608
0.000161306
7.00396e-006
1.54565e-007
1.191e-008
9.20381e-009
9.16156e-009
9.16159e-009
9.16171e-009
9.16244e-009
9.1646e-009
9.16733e-009
9.17286e-009
9.18594e-009
9.19084e-009
9.18971e-009
9.18975e-009
9.17457e-009
9.16927e-009
9.16928e-009
9.1603e-009
0.228152
0.127658
0.0728558
0.0421836
0.0245306
0.0141313
0.00788732
0.00409244
0.00179733
0.000488847
4.18192e-005
1.07674e-006
4.68483e-008
2.83386e-008
2.80423e-008
2.80422e-008
2.80429e-008
2.80472e-008
2.80555e-008
2.8067e-008
2.8084e-008
2.81325e-008
2.80963e-008
2.8096e-008
2.80553e-008
2.80301e-008
2.803e-008
2.79896e-008
2.79537e-008
0.222071
0.125393
0.072246
0.04219
0.0248115
0.0145234
0.00830504
0.00449361
0.0021523
0.000752539
0.000112109
4.27176e-006
1.64406e-007
9.18171e-008
9.06628e-008
9.0661e-008
9.06618e-008
9.06673e-008
9.06882e-008
9.07249e-008
9.08011e-008
9.09323e-008
9.06912e-008
9.06913e-008
9.04448e-008
9.04436e-008
9.04471e-008
9.02072e-008
9.00989e-008
0.215592
0.122421
0.0709771
0.0417567
0.0247031
0.0145524
0.0084109
0.00463667
0.00230074
0.000882257
0.000162342
8.25746e-006
4.30275e-007
2.70687e-007
2.67845e-007
2.67806e-007
2.67819e-007
2.67897e-007
2.67871e-007
2.67889e-007
2.67785e-007
2.67526e-007
2.67427e-007
2.67429e-007
2.66798e-007
2.66871e-007
2.66503e-007
2.66022e-007
2.6602e-007
0.208707
0.11888
0.069162
0.0408718
0.0243387
0.0144348
0.0083892
0.00465877
0.00234914
0.000936917
0.000189662
1.11464e-005
6.90423e-007
4.63084e-007
4.5881e-007
4.58861e-007
4.58591e-007
4.58593e-007
4.58339e-007
4.58338e-007
4.58041e-007
4.58041e-007
4.57418e-007
4.57209e-007
4.57208e-007
4.56801e-007
4.56184e-007
4.56049e-007
4.5605e-007
0.201393
0.114959
0.067028
0.0397041
0.0237179
0.014145
0.00828463
0.00463398
0.00235319
0.000958165
0.000204399
1.32646e-005
8.95589e-007
5.97573e-007
5.91452e-007
5.91145e-007
5.91083e-007
5.91108e-007
5.90727e-007
5.90729e-007
5.90192e-007
5.89997e-007
5.89621e-007
5.89606e-007
5.89398e-007
5.88945e-007
5.8838e-007
5.8838e-007
5.88412e-007
0.193724
0.110778
0.0647142
0.0384139
0.0229981
0.013748
0.00808359
0.00455815
0.00233794
0.000961278
0.000212024
1.48676e-005
1.05794e-006
6.84948e-007
6.76099e-007
6.75708e-007
6.75707e-007
6.75421e-007
6.75193e-007
6.75191e-007
6.74734e-007
6.74553e-007
6.74527e-007
6.74585e-007
6.73892e-007
6.73368e-007
6.73368e-007
6.73163e-007
6.73166e-007
0.185764
0.106413
0.0622821
0.0370485
0.0222319
0.0133231
0.00785522
0.00444388
0.00229735
0.000956975
0.000216928
1.63488e-005
1.20017e-006
7.391e-007
7.26642e-007
7.26186e-007
7.26336e-007
7.25983e-007
7.25944e-007
7.26091e-007
7.25448e-007
7.25124e-007
7.25127e-007
7.25001e-007
7.24893e-007
7.24903e-007
7.24394e-007
7.24389e-007
7.24127e-007
0.177526
0.10189
0.0597593
0.0356313
0.0214368
0.0128826
0.00761827
0.00432392
0.00224405
0.000945084
0.000219962
1.77935e-005
1.34281e-006
7.72988e-007
7.55803e-007
7.55427e-007
7.55136e-007
7.5514e-007
7.54944e-007
7.5484e-007
7.54548e-007
7.54527e-007
7.54307e-007
7.53994e-007
7.54011e-007
7.53885e-007
7.53891e-007
7.53716e-007
7.53288e-007
0.169003
0.0972123
0.0571529
0.0341696
0.020619
0.0124317
0.00737775
0.00420385
0.00219194
0.000929465
0.000221142
1.92168e-005
1.49411e-006
7.96551e-007
7.72035e-007
7.71372e-007
7.71423e-007
7.70996e-007
7.71289e-007
7.70767e-007
7.70759e-007
7.70996e-007
7.704e-007
7.70761e-007
7.70281e-007
7.70147e-007
7.7035e-007
7.69868e-007
7.69941e-007
0.160201
0.0923856
0.0544662
0.0326657
0.0197803
0.0119719
0.00713492
0.00408486
0.00214214
0.000916042
0.000223516
2.08622e-005
1.67687e-006
8.15207e-007
7.81944e-007
7.80474e-007
7.79805e-007
7.80435e-007
7.79959e-007
7.80196e-007
7.80276e-007
7.79468e-007
7.79928e-007
7.79523e-007
7.79181e-007
7.79811e-007
7.79193e-007
7.79022e-007
7.79027e-007
0.151143
0.0874198
0.0517037
0.031121
0.0189207
0.0115024
0.00688882
0.00396628
0.00209491
0.000906059
0.000227236
2.29543e-005
1.91836e-006
8.37219e-007
7.87609e-007
7.85123e-007
7.86097e-007
7.85562e-007
7.85543e-007
7.85577e-007
7.84588e-007
7.85364e-007
7.85244e-007
7.84552e-007
7.85068e-007
7.84612e-007
7.84277e-007
7.84746e-007
7.84253e-007
0.141872
0.0823345
0.0488742
0.0295391
0.0180413
0.0110234
0.00663951
0.00384798
0.0020493
0.000896469
0.000232535
2.55828e-005
2.22738e-006
8.6273e-007
7.92518e-007
7.90191e-007
7.88934e-007
7.88641e-007
7.89283e-007
7.88656e-007
7.8895e-007
7.89084e-007
7.87719e-007
7.8844e-007
7.88522e-007
7.87703e-007
7.88549e-007
7.87798e-007
7.87032e-007
0.132438
0.0771561
0.0459909
0.0279267
0.0171452
0.0105362
0.00638686
0.00372932
0.00200554
0.000892213
0.00024052
2.87956e-005
2.65247e-006
9.0131e-007
7.99145e-007
7.92365e-007
7.91526e-007
7.92647e-007
7.9173e-007
7.91225e-007
7.9204e-007
7.9083e-007
7.91587e-007
7.92123e-007
7.90359e-007
7.91036e-007
7.90831e-007
7.90001e-007
7.91135e-007
0.122896
0.0719097
0.0430653
0.0262881
0.0162335
0.0100403
0.00613046
0.00361013
0.00196276
0.000887478
0.000250102
3.31554e-005
3.24988e-006
9.59575e-007
8.05386e-007
7.9521e-007
7.96134e-007
7.94833e-007
7.93875e-007
7.95609e-007
7.93943e-007
7.94321e-007
7.95104e-007
7.93484e-007
7.94086e-007
7.94213e-007
7.92773e-007
7.93436e-007
7.9283e-007
0.113326
0.0666355
0.0401172
0.024633
0.0153108
0.00953794
0.00587076
0.00348987
0.00192073
0.000886233
0.00026257
3.81421e-005
3.98991e-006
1.03891e-006
8.15145e-007
8.01325e-007
7.98197e-007
7.97374e-007
7.99245e-007
7.97706e-007
7.97668e-007
7.97651e-007
7.96729e-007
7.97587e-007
7.96881e-007
7.95917e-007
7.96589e-007
7.96272e-007
7.96172e-007
0.103798
0.0613693
0.0371647
0.0229702
0.0143807
0.00903
0.00560773
0.00336839
0.00187913
0.000887296
0.00027528
4.39627e-005
5.02775e-006
1.16432e-006
8.3354e-007
8.04298e-007
8.02742e-007
8.03162e-007
8.01679e-007
8.01798e-007
8.00936e-007
8.0095e-007
8.00899e-007
8.00064e-007
8.00859e-007
8.00093e-007
7.99158e-007
7.98419e-007
7.98285e-007
0.0943976
0.0561524
0.0342278
0.0213085
0.0134467
0.00851743
0.00534116
0.00324515
0.00183756
0.000887971
0.000290821
5.16862e-005
6.43808e-006
1.34919e-006
8.55408e-007
8.123e-007
8.06322e-007
8.0589e-007
8.06863e-007
8.05309e-007
8.06117e-007
8.04936e-007
8.04444e-007
8.05455e-007
8.03836e-007
8.04258e-007
8.0389e-007
8.02609e-007
8.03233e-007
0.0852093
0.05103
0.0313299
0.0196602
0.0125149
0.00800307
0.00507198
0.00311948
0.00179389
0.000889222
0.000307228
5.96295e-005
8.09374e-006
1.59874e-006
8.96471e-007
8.19432e-007
8.13409e-007
8.12553e-007
8.10592e-007
8.12248e-007
8.10362e-007
8.1029e-007
8.11043e-007
8.09131e-007
8.09891e-007
8.08466e-007
8.07682e-007
8.08988e-007
8.06796e-007
0.076313
0.0460426
0.0284913
0.0180345
0.0115888
0.00748728
0.00479946
0.00299145
0.00175029
0.000889818
0.000323949
6.9481e-005
1.04602e-005
1.99036e-006
9.50164e-007
8.35683e-007
8.19521e-007
8.17878e-007
8.19435e-007
8.17071e-007
8.17635e-007
8.1702e-007
8.15723e-007
8.16762e-007
8.14574e-007
8.14667e-007
8.13856e-007
8.12465e-007
8.1415e-007
0.0677914
0.0412339
0.0257354
0.0164437
0.0106747
0.00697317
0.00452446
0.00285939
0.00170197
0.000888839
0.000342639
8.09152e-005
1.34328e-005
2.5344e-006
1.05262e-006
8.5358e-007
8.30279e-007
8.27241e-007
8.2452e-007
8.27676e-007
8.24825e-007
8.22684e-007
8.22725e-007
8.23418e-007
8.24554e-007
8.21102e-007
8.2192e-007
8.20438e-007
8.18344e-007
0.0597126
0.036641
0.023082
0.014898
0.00977712
0.00646229
0.00424746
0.00272459
0.00165259
0.000886389
0.000359677
9.3154e-005
1.70988e-005
3.28463e-006
1.17972e-006
8.87805e-007
8.42001e-007
8.34474e-007
8.34163e-007
8.33151e-007
8.35965e-007
8.34133e-007
8.33972e-007
8.30759e-007
8.29622e-007
8.32074e-007
8.28546e-007
8.27154e-007
8.28197e-007
0.0521391
0.0322991
0.0205505
0.013408
0.0089016
0.005957
0.00396851
0.00258474
0.00159738
0.000881321
0.000377425
0.000106815
2.15208e-005
4.28456e-006
1.39971e-006
9.28552e-007
8.60597e-007
8.48013e-007
8.48593e-007
8.4773e-007
8.43415e-007
8.44886e-007
8.42686e-007
8.42702e-007
8.43087e-007
8.397e-007
8.40855e-007
8.3955e-007
8.35189e-007
0.0451189
0.0282365
0.0181577
0.0119831
0.00805315
0.00545958
0.00368858
0.00244078
0.00153789
0.000872245
0.000391133
0.000120029
2.68087e-005
5.6865e-006
1.69065e-006
1.00541e-006
8.84613e-007
8.67151e-007
8.58349e-007
8.56195e-007
8.59435e-007
8.57533e-007
8.57529e-007
8.53315e-007
8.51737e-007
8.5536e-007
8.50972e-007
8.50887e-007
8.47622e-007
0.0386866
0.0244753
0.0159175
0.0106321
0.00723687
0.00497286
0.00340883
0.00229243
0.00147279
0.000858157
0.000405211
0.000135853
3.33691e-005
7.49416e-006
2.15854e-006
1.10709e-006
9.18531e-007
8.80992e-007
8.80914e-007
8.76074e-007
8.69996e-007
8.73485e-007
8.7226e-007
8.74633e-007
8.69314e-007
8.64743e-007
8.69232e-007
8.64974e-007
8.65255e-007
0.0328607
0.0210303
0.0138405
0.00936204
0.00645738
0.00449947
0.00313052
0.0021403
0.00140244
0.000840081
0.000413976
0.000147936
3.96086e-005
9.56363e-006
2.70927e-006
1.27651e-006
9.66264e-007
9.11943e-007
8.94545e-007
8.9895e-007
8.96581e-007
8.87648e-007
8.89744e-007
8.87957e-007
8.9257e-007
8.86236e-007
8.79965e-007
8.84369e-007
8.80147e-007
0.0276458
0.0179088
0.0119335
0.00817841
0.00571842
0.00404154
0.00285432
0.00198343
0.00132446
0.00081281
0.000417383
0.000161949
4.74512e-005
1.23618e-005
3.54046e-006
1.48129e-006
1.0463e-006
9.40994e-007
9.24218e-007
9.15157e-007
9.17939e-007
9.15852e-007
9.06491e-007
9.08379e-007
9.07705e-007
9.14519e-007
9.0671e-007
8.97247e-007
9.02639e-007
0.0230327
0.0151113
0.0102002
0.00708547
0.00502379
0.00360215
0.0025827
0.00182428
0.00124104
0.000781799
0.000415579
0.000170456
5.41774e-005
1.51425e-005
4.52939e-006
1.83327e-006
1.14173e-006
9.90059e-007
9.49568e-007
9.50681e-007
9.43342e-007
9.44113e-007
9.42847e-007
9.34902e-007
9.34968e-007
9.31148e-007
9.38012e-007
9.29753e-007
9.17978e-007
0.0189996
0.0126314
0.00864055
0.00608536
0.00437604
0.00318335
0.00231671
0.00166236
0.00115135
0.000740119
0.000409179
0.000178504
6.1126e-005
1.85581e-005
5.71671e-006
2.21498e-006
1.30565e-006
1.05201e-006
9.98619e-007
9.74839e-007
9.82124e-007
9.74445e-007
9.681e-007
9.65904e-007
9.59033e-007
9.61951e-007
9.57691e-007
9.6462e-007
9.55751e-007
0.0155146
0.0104568
0.00725121
0.00517876
0.00377731
0.0027876
0.00205878
0.00150042
0.00105672
0.000694956
0.000396465
0.000180258
6.66693e-005
2.15763e-005
7.14224e-006
2.76269e-006
1.5008e-006
1.1562e-006
1.04155e-006
1.01794e-006
1.0077e-006
1.0195e-006
1.01575e-006
1.00673e-006
1.00494e-006
9.9856e-007
9.9973e-007
9.90596e-007
9.95402e-007
0.0125379
0.00857052
0.00602603
0.00436468
0.00322885
0.00241684
0.00181061
0.00133882
0.000958139
0.000640185
0.000376511
0.00017862
7.02699e-005
2.48019e-005
8.51237e-006
3.39835e-006
1.7598e-006
1.25433e-006
1.12169e-006
1.07562e-006
1.06889e-006
1.05322e-006
1.06496e-006
1.05871e-006
1.04634e-006
1.03898e-006
1.03031e-006
1.0363e-006
1.02754e-006
0.010024
0.00695157
0.00495631
0.00364051
0.00273091
0.00207246
0.00157391
0.00118004
0.000856002
0.000582215
0.000348955
0.000173633
7.15702e-005
2.68574e-005
1.00855e-005
4.04803e-006
2.11657e-006
1.41986e-006
1.2026e-006
1.14331e-006
1.11561e-006
1.11624e-006
1.10725e-006
1.12266e-006
1.11339e-006
1.09813e-006
1.08983e-006
1.07417e-006
1.07998e-006
0.00792465
0.00557659
0.00403154
0.00300245
0.00228308
0.00175571
0.00135061
0.00102502
0.000753305
0.000517497
0.000316374
0.000163659
7.09154e-005
2.85043e-005
1.12581e-005
4.86736e-006
2.41168e-006
1.64972e-006
1.32436e-006
1.2148e-006
1.19403e-006
1.18161e-006
1.17848e-006
1.16709e-006
1.18445e-006
1.16781e-006
1.1602e-006
1.14888e-006
1.12496e-006
0.00619061
0.00442085
0.00323998
0.00244568
0.00188425
0.0014673
0.0011421
0.000876611
0.000649914
0.000451763
0.000279435
0.000149115
6.8606e-005
2.88151e-005
1.22281e-005
5.52593e-006
2.93737e-006
1.83535e-006
1.52059e-006
1.3369e-006
1.27076e-006
1.26315e-006
1.2602e-006
1.25683e-006
1.24735e-006
1.26481e-006
1.24207e-006
1.23634e-006
1.21198e-006
0.00477381
0.00345934
0.00256912
0.00196464
0.00153265
0.00120755
0.000950084
0.00073551
0.000549976
0.000383194
0.000240099
0.000131008
6.36617e-005
2.84508e-005
1.27741e-005
6.07138e-006
3.32195e-006
2.17074e-006
1.6423e-006
1.51471e-006
1.40092e-006
1.34912e-006
1.34414e-006
1.34026e-006
1.34072e-006
1.33904e-006
1.3533e-006
1.3366e-006
1.32665e-006
0.00362862
0.00266761
0.00200631
0.00155331
0.00122607
0.000976395
0.00077509
0.000604753
0.000453165
0.000318077
0.000199796
0.000111504
5.65982e-005
2.71709e-005
1.2914e-005
6.49268e-006
3.61143e-006
2.4265e-006
1.90537e-006
1.61493e-006
1.57273e-006
1.49882e-006
1.47666e-006
1.47538e-006
1.46044e-006
1.46098e-006
1.45117e-006
1.46495e-006
1.45064e-006
0.00271297
0.00202253
0.00153916
0.00120551
0.000961916
0.00077334
0.000618938
0.000484661
0.000364438
0.000254035
0.000160598
9.11256e-005
4.8177e-005
2.47744e-005
1.26023e-005
6.81178e-006
3.98895e-006
2.64556e-006
2.08627e-006
1.82269e-006
1.66542e-006
1.66602e-006
1.61916e-006
1.61888e-006
1.61019e-006
1.59081e-006
1.58797e-006
1.56744e-006
1.57977e-006
0.0019891
0.00150283
0.00115589
0.000915058
0.000737424
0.000597895
0.000480823
0.00037773
0.000282238
0.000196351
0.000124186
7.20054e-005
3.97734e-005
2.1593e-005
1.18831e-005
6.72434e-006
4.27019e-006
2.95727e-006
2.27305e-006
2.01409e-006
1.85921e-006
1.79769e-006
1.82791e-006
1.79611e-006
1.81523e-006
1.79197e-006
1.78901e-006
1.77723e-006
1.73225e-006
0.00142392
0.00108942
0.000845639
0.000676025
0.000549705
0.000448494
0.000362326
0.000283446
0.000210806
0.000145134
9.24138e-005
5.49546e-005
3.15841e-005
1.80533e-005
1.05185e-005
6.4585e-006
4.25595e-006
3.17896e-006
2.54146e-006
2.22023e-006
2.101e-006
2.00751e-006
1.99263e-006
2.03355e-006
2.01692e-006
2.03881e-006
2.01296e-006
2.01096e-006
1.99403e-006
0.000989078
0.000765516
0.000598561
0.000482817
0.000395642
0.000324631
0.000261766
0.000204357
0.000149715
0.000102842
6.52855e-005
4.02808e-005
2.40515e-005
1.44866e-005
9.12198e-006
5.96171e-006
4.22432e-006
3.27371e-006
2.78215e-006
2.42812e-006
2.30023e-006
2.24886e-006
2.23674e-006
2.23443e-006
2.30207e-006
2.2834e-006
2.3139e-006
2.28515e-006
2.28114e-006
0.00066074
0.000516599
0.000405902
0.000330172
0.000272599
0.000224087
0.000180553
0.000138734
0.000101172
6.8661e-005
4.45159e-005
2.81115e-005
1.77431e-005
1.12802e-005
7.6392e-006
5.44972e-006
4.12599e-006
3.3389e-006
2.88712e-006
2.59951e-006
2.48834e-006
2.4699e-006
2.50066e-006
2.52811e-006
2.55071e-006
2.69064e-006
2.6585e-006
2.69327e-006
2.64594e-006
0.000419036
0.000330172
0.000259969
0.000213585
0.000177439
0.000145931
0.000116505
8.8841e-005
6.37888e-005
4.35442e-005
2.90064e-005
1.90582e-005
1.27484e-005
8.82159e-006
6.32871e-006
4.87032e-006
3.94957e-006
3.30428e-006
2.97293e-006
2.76686e-006
2.72879e-006
2.72994e-006
2.74825e-006
2.85971e-006
2.90441e-006
2.97135e-006
3.22351e-006
3.18818e-006
3.23574e-006
0.000247418
0.000195622
0.000154352
0.000128579
0.000107575
8.84379e-005
6.98504e-005
5.28252e-005
3.81207e-005
2.64475e-005
1.85632e-005
1.28125e-005
9.15072e-006
6.88324e-006
5.30438e-006
4.26799e-006
3.68992e-006
3.26497e-006
3.00554e-006
2.92444e-006
2.92467e-006
2.95659e-006
3.05317e-006
3.1487e-006
3.4051e-006
3.47125e-006
3.59094e-006
3.94712e-006
3.87858e-006
0.000132072
0.000104294
8.33091e-005
7.1136e-005
6.02827e-005
4.94339e-005
3.91022e-005
2.9733e-005
2.18161e-005
1.62669e-005
1.16886e-005
8.98788e-006
6.71061e-006
5.49599e-006
4.55124e-006
3.9059e-006
3.47484e-006
3.24746e-006
3.13293e-006
3.11846e-006
3.15522e-006
3.21153e-006
3.34087e-006
3.52519e-006
3.70825e-006
4.12656e-006
4.34367e-006
4.58617e-006
5.15948e-006
6.15866e-005
4.88858e-005
4.08597e-005
3.64807e-005
3.142e-005
2.60724e-005
2.12264e-005
1.6516e-005
1.29405e-005
9.99764e-006
7.87388e-006
6.31553e-006
5.27031e-006
4.49065e-006
4.04071e-006
3.62543e-006
3.38285e-006
3.26447e-006
3.28375e-006
3.29196e-006
3.36381e-006
3.42417e-006
3.57321e-006
3.74455e-006
4.02914e-006
4.34444e-006
5.00242e-006
5.28956e-006
6.02374e-006
2.50415e-005
2.07525e-005
1.90342e-005
1.80375e-005
1.58818e-005
1.38919e-005
1.16196e-005
9.50472e-006
8.09411e-006
6.53984e-006
5.77283e-006
4.89426e-006
4.48812e-006
4.05911e-006
3.70732e-006
3.52523e-006
3.36546e-006
3.35079e-006
3.39139e-006
3.46802e-006
3.66973e-006
3.87939e-006
4.36657e-006
4.91897e-006
6.07775e-006
7.00001e-006
8.89545e-006
9.64101e-006
1.00041e-005
9.75466e-006
8.91608e-006
9.07321e-006
9.10628e-006
8.49349e-006
7.67698e-006
6.95067e-006
6.08064e-006
5.54235e-006
4.79232e-006
4.46584e-006
3.94506e-006
3.81961e-006
3.67549e-006
3.73155e-006
3.92371e-006
4.75779e-006
6.5802e-006
1.24869e-005
2.05034e-005
4.21692e-005
6.99557e-005
0.000123318
0.000203437
0.000286083
0.000423629
0.000511898
0.000598455
0.000550283
4.24358e-006
4.3007e-006
4.75214e-006
5.00413e-006
4.94329e-006
4.76034e-006
4.38174e-006
4.05379e-006
3.88702e-006
3.88046e-006
4.09803e-006
4.75656e-006
7.20673e-006
1.38396e-005
3.26551e-005
6.79587e-005
0.000159336
0.000281434
0.000563326
0.000860901
0.00148038
0.00217283
0.00323888
0.00464171
0.00611638
0.00863372
0.010254
0.0140856
0.0141206
2.28621e-006
2.46844e-006
2.77206e-006
2.98357e-006
3.13707e-006
3.39271e-006
3.9613e-006
4.76279e-006
7.10262e-006
1.33681e-005
3.44346e-005
8.40125e-005
0.000202051
0.000412849
0.000844788
0.00138938
0.00243271
0.00365109
0.00565473
0.00795828
0.0114804
0.0156249
0.0214535
0.0287709
0.037871
0.051368
0.0644
0.0926773
0.107631
1.51965e-006
1.67066e-006
2.00432e-006
2.72504e-006
5.52957e-006
9.58175e-006
2.53446e-005
5.00053e-005
0.000118565
0.000262031
0.000595226
0.00113311
0.00207815
0.00344467
0.00548722
0.00812159
0.0119875
0.0167303
0.0233572
0.0314566
0.0426469
0.056251
0.0751293
0.0982835
0.130852
0.173262
0.23135
0.326695
0.419742
1.34503e-006
1.87913e-006
3.57968e-006
9.48741e-006
3.82939e-005
8.45657e-005
0.000228451
0.000447705
0.000953178
0.00177613
0.00330103
0.00539581
0.0086357
0.0130283
0.0190172
0.0267294
0.0372725
0.0502255
0.0676053
0.0889414
0.117869
0.152925
0.202235
0.261393
0.350837
0.458446
0.640312
0.866721
1.20682
0.00151969
0.00151969
0.00151969
0.00151969
0.00151969
0.00151969
0.00151969
0.00151969
0.00151969
0.00151969
0.00151969
0.00151969
0.00151969
0.00151969
0.00151969
0.00151969
0.00151969
0.00151969
0.00151969
0.00151969
0.00151969
0.00151969
0.00151969
0.00151969
0.00151969
0.00151969
0.00151969
0.00151969
0.00151969
0.00151969
0.00151969
0.00151969
0.00151969
0.0015197
0.0015197
0.0015197
0.0015197
0.0015197
0.0015197
0.0015197
0.0015197
0.0015197
0.0015197
0.0015197
0.0015197
0.0015197
0.0015197
0.0015197
0.0015197
0.0015197
0.0015197
0.0015197
0.0015197
0.0015197
0.0015197
0.0015197
0.0015197
0.0015197
0.0015197
0.0015197
0.0015197
0.0015197
0.0015197
0.00151971
0.00151971
0.00151971
0.00151971
0.00151971
0.00151971
0.00151971
0.00151971
0.00151971
0.00151971
0.00151971
0.00151971
0.00151971
0.00151971
0.00151971
0.00151971
0.00151971
0.00151971
0.00151971
0.00151971
0.00151971
0.00151971
0.00151971
0.00151971
0.00151971
0.00151971
0.00151971
0.00151971
0.00151971
0.00151971
0.00151971
0.00151971
0.00151971
0.00151971
0.00151971
0.00151971
0.00151971
0.00151971
0.00151971
0.00151971
0.00151971
0.00151971
0.00151971
0.00151971
0.00151971
0.00151971
0.00151971
0.00151971
0.00151971
0.00151971
0.00151971
0.00151971
0.00151971
0.00151971
0.00151971
0.0015197
0.00151971
0.00151971
0.00151971
0.00151971
0.00151971
0.00151971
0.00151971
0.00151971
0.00151971
0.00151971
0.00151971
0.00151971
0.00151971
0.00151971
0.00151971
0.00151971
0.00151972
0.00151971
0.00151974
0.00154201
3.28179e-005
3.28181e-005
3.28181e-005
3.28181e-005
3.28181e-005
3.28181e-005
3.28181e-005
3.2818e-005
3.2818e-005
3.2818e-005
3.2818e-005
3.2818e-005
3.2818e-005
3.28181e-005
3.28182e-005
3.28183e-005
3.28184e-005
3.28185e-005
3.28187e-005
3.28188e-005
3.2819e-005
3.28192e-005
3.28195e-005
3.28197e-005
3.282e-005
3.28202e-005
3.28205e-005
3.28209e-005
3.28212e-005
3.28215e-005
3.28219e-005
3.28222e-005
3.28226e-005
3.28229e-005
3.28233e-005
3.28238e-005
3.28242e-005
3.28247e-005
3.28251e-005
3.28256e-005
3.2826e-005
3.28264e-005
3.28268e-005
3.28272e-005
3.28276e-005
3.2828e-005
3.28284e-005
3.28288e-005
3.28292e-005
3.28296e-005
3.28299e-005
3.28303e-005
3.28307e-005
3.28311e-005
3.28315e-005
3.2832e-005
3.28324e-005
3.28328e-005
3.28332e-005
3.28336e-005
3.2834e-005
3.28344e-005
3.28347e-005
3.28351e-005
3.28354e-005
3.28357e-005
3.28361e-005
3.28363e-005
3.28366e-005
3.28369e-005
3.28372e-005
3.28374e-005
3.28377e-005
3.28379e-005
3.28382e-005
3.28384e-005
3.28386e-005
3.28388e-005
3.2839e-005
3.28392e-005
3.28394e-005
3.28396e-005
3.28397e-005
3.28399e-005
3.28401e-005
3.28402e-005
3.28403e-005
3.28405e-005
3.28405e-005
3.28405e-005
3.28404e-005
3.28403e-005
3.28402e-005
3.28401e-005
3.284e-005
3.28399e-005
3.28397e-005
3.28396e-005
3.28394e-005
3.28393e-005
3.28391e-005
3.28389e-005
3.28387e-005
3.28385e-005
3.28383e-005
3.28382e-005
3.28381e-005
3.28379e-005
3.28378e-005
3.28376e-005
3.28375e-005
3.28374e-005
3.28371e-005
3.28367e-005
3.28363e-005
3.28358e-005
3.28354e-005
3.2835e-005
3.28349e-005
3.2835e-005
3.28352e-005
3.28354e-005
3.28357e-005
3.28359e-005
3.28361e-005
3.28363e-005
3.28365e-005
3.28365e-005
3.28374e-005
3.28368e-005
3.28386e-005
3.28381e-005
3.28397e-005
3.28433e-005
3.28409e-005
3.28474e-005
3.28576e-005
3.26617e-005
3.37402e-005
1.42071e-006
1.4208e-006
1.42086e-006
1.42092e-006
1.42098e-006
1.42104e-006
1.42109e-006
1.42114e-006
1.42119e-006
1.42125e-006
1.42129e-006
1.42134e-006
1.42139e-006
1.42144e-006
1.42149e-006
1.42153e-006
1.42158e-006
1.42163e-006
1.42168e-006
1.42173e-006
1.42178e-006
1.42183e-006
1.42187e-006
1.42192e-006
1.42197e-006
1.42203e-006
1.42208e-006
1.42213e-006
1.42218e-006
1.42223e-006
1.42228e-006
1.42233e-006
1.42239e-006
1.42244e-006
1.42249e-006
1.42255e-006
1.4226e-006
1.42266e-006
1.42272e-006
1.42278e-006
1.42284e-006
1.4229e-006
1.42296e-006
1.42302e-006
1.42308e-006
1.42314e-006
1.4232e-006
1.42326e-006
1.42332e-006
1.42338e-006
1.42344e-006
1.42351e-006
1.42357e-006
1.42363e-006
1.42369e-006
1.42375e-006
1.42381e-006
1.42387e-006
1.42392e-006
1.42398e-006
1.42403e-006
1.42408e-006
1.42412e-006
1.42417e-006
1.42422e-006
1.42426e-006
1.42431e-006
1.42436e-006
1.4244e-006
1.42444e-006
1.42448e-006
1.42452e-006
1.42456e-006
1.4246e-006
1.42464e-006
1.42467e-006
1.42471e-006
1.42474e-006
1.42477e-006
1.4248e-006
1.42483e-006
1.42486e-006
1.42489e-006
1.42491e-006
1.42494e-006
1.42497e-006
1.42499e-006
1.42501e-006
1.42503e-006
1.42505e-006
1.42506e-006
1.42507e-006
1.42507e-006
1.42507e-006
1.42507e-006
1.42506e-006
1.42505e-006
1.42503e-006
1.42501e-006
1.42499e-006
1.42497e-006
1.42494e-006
1.4249e-006
1.42487e-006
1.42484e-006
1.4248e-006
1.42476e-006
1.42472e-006
1.42468e-006
1.42463e-006
1.42459e-006
1.42456e-006
1.42453e-006
1.42449e-006
1.42446e-006
1.42443e-006
1.4244e-006
1.42437e-006
1.42435e-006
1.42433e-006
1.42431e-006
1.42429e-006
1.42427e-006
1.42424e-006
1.42422e-006
1.42416e-006
1.42415e-006
1.42409e-006
1.42405e-006
1.4241e-006
1.42394e-006
1.42409e-006
1.42375e-006
1.42441e-006
1.42594e-006
1.42543e-006
1.33436e-006
2.28349e-006
0.000186026
1.20349e-007
1.20363e-007
1.20376e-007
1.20389e-007
1.20401e-007
1.20413e-007
1.20424e-007
1.20435e-007
1.20447e-007
1.20458e-007
1.20468e-007
1.20479e-007
1.2049e-007
1.20501e-007
1.20513e-007
1.20524e-007
1.20535e-007
1.20546e-007
1.20558e-007
1.20569e-007
1.20581e-007
1.20592e-007
1.20604e-007
1.20616e-007
1.20628e-007
1.2064e-007
1.20652e-007
1.20665e-007
1.20677e-007
1.20689e-007
1.20702e-007
1.20714e-007
1.20727e-007
1.2074e-007
1.20752e-007
1.20765e-007
1.20777e-007
1.2079e-007
1.20803e-007
1.20815e-007
1.20828e-007
1.2084e-007
1.20852e-007
1.20865e-007
1.20877e-007
1.20889e-007
1.20901e-007
1.20913e-007
1.20925e-007
1.20937e-007
1.20949e-007
1.20961e-007
1.20972e-007
1.20984e-007
1.20995e-007
1.21006e-007
1.21017e-007
1.21028e-007
1.21039e-007
1.21049e-007
1.2106e-007
1.2107e-007
1.2108e-007
1.2109e-007
1.21099e-007
1.21109e-007
1.21118e-007
1.21127e-007
1.21136e-007
1.21145e-007
1.21153e-007
1.21162e-007
1.2117e-007
1.21178e-007
1.21186e-007
1.21193e-007
1.21201e-007
1.21208e-007
1.21214e-007
1.21221e-007
1.21227e-007
1.21233e-007
1.21239e-007
1.21244e-007
1.21249e-007
1.21254e-007
1.21258e-007
1.21262e-007
1.21266e-007
1.21271e-007
1.21275e-007
1.21279e-007
1.21282e-007
1.21285e-007
1.21288e-007
1.2129e-007
1.21291e-007
1.21293e-007
1.21293e-007
1.21293e-007
1.21292e-007
1.21291e-007
1.21289e-007
1.21287e-007
1.21285e-007
1.21282e-007
1.21279e-007
1.21275e-007
1.21271e-007
1.21266e-007
1.21261e-007
1.21256e-007
1.21252e-007
1.21248e-007
1.21244e-007
1.21239e-007
1.21234e-007
1.21228e-007
1.2122e-007
1.21213e-007
1.21204e-007
1.21194e-007
1.21184e-007
1.2117e-007
1.21156e-007
1.21141e-007
1.21115e-007
1.21109e-007
1.21073e-007
1.21078e-007
1.21056e-007
1.21019e-007
1.21115e-007
1.20854e-007
1.14124e-007
1.1272e-007
7.3028e-007
9.77003e-005
0.00578133
1.74825e-008
1.74865e-008
1.749e-008
1.74932e-008
1.74964e-008
1.74994e-008
1.75024e-008
1.75054e-008
1.75084e-008
1.75114e-008
1.75145e-008
1.75175e-008
1.75206e-008
1.75238e-008
1.75269e-008
1.75302e-008
1.75335e-008
1.75368e-008
1.75402e-008
1.75437e-008
1.75472e-008
1.75507e-008
1.75544e-008
1.7558e-008
1.75617e-008
1.75655e-008
1.75693e-008
1.75731e-008
1.7577e-008
1.75808e-008
1.75848e-008
1.75887e-008
1.75927e-008
1.75967e-008
1.76007e-008
1.76048e-008
1.76088e-008
1.76129e-008
1.7617e-008
1.76211e-008
1.76251e-008
1.76292e-008
1.76332e-008
1.76372e-008
1.76413e-008
1.76452e-008
1.76492e-008
1.76532e-008
1.76571e-008
1.7661e-008
1.76649e-008
1.76687e-008
1.76725e-008
1.76763e-008
1.76801e-008
1.76838e-008
1.76874e-008
1.7691e-008
1.76946e-008
1.76982e-008
1.77017e-008
1.77052e-008
1.77086e-008
1.7712e-008
1.77153e-008
1.77186e-008
1.77218e-008
1.7725e-008
1.77281e-008
1.77311e-008
1.77341e-008
1.7737e-008
1.77399e-008
1.77427e-008
1.77454e-008
1.77481e-008
1.77507e-008
1.77533e-008
1.77557e-008
1.77581e-008
1.77605e-008
1.77627e-008
1.77649e-008
1.7767e-008
1.77691e-008
1.7771e-008
1.77729e-008
1.77746e-008
1.77764e-008
1.77781e-008
1.77798e-008
1.77814e-008
1.7783e-008
1.77844e-008
1.77858e-008
1.77871e-008
1.77883e-008
1.77894e-008
1.77904e-008
1.77912e-008