/*--------------------------------*- C++ -*----------------------------------*\
| =========                 |                                                 |
| \\      /  F ield         | OpenFOAM: The Open Source CFD Toolbox           |
|  \\    /   O peration     | Version:  5.x                                   |
|   \\  /    A nd           | Web:      www.OpenFOAM.org                      |
|    \\/     M anipulation  |                                                 |
\*---------------------------------------------------------------------------*/
/*   Windows 32 and 64 bit porting by blueCAPE: http://www.bluecape.com.pt   *\
|  Based on Windows porting (2.0.x v4) by Symscape: http://www.symscape.com   |
\*---------------------------------------------------------------------------*/
FoamFile
{
    version     2.0;
    format      ascii;
    class       volScalarField;
    location    "120";
    object      k;
}
// * * * * * * * * * * * * * * * * * * * * * * * * * * * * * * * * * * * * * //

dimensions      [0 2 -2 0 0 0 0];

internalField   nonuniform List<scalar> 
43900
(
0.00098556
0.000989746
0.000990232
0.000990193
0.000990121
0.00099012
0.000990118
0.000990132
0.000990128
0.000990135
0.000990135
0.000990136
0.000990136
0.000990137
0.000990137
0.000990138
0.000990138
0.000990139
0.000990139
0.00099014
0.00099014
0.00099014
0.00099014
0.00099014
0.000990141
0.000990141
0.000990141
0.000990141
0.000990141
0.00102711
4.89382e-005
3.88325e-005
3.80792e-005
4.0909e-005
4.09782e-005
4.09567e-005
4.09694e-005
4.09655e-005
4.09767e-005
4.09775e-005
4.09791e-005
4.09806e-005
4.09819e-005
4.0983e-005
4.09842e-005
4.09852e-005
4.09861e-005
4.09871e-005
4.09879e-005
4.09884e-005
4.09888e-005
4.09891e-005
4.09894e-005
4.09897e-005
4.09899e-005
4.09901e-005
4.09903e-005
4.09902e-005
0.273033
0.0453955
0.00269936
6.40147e-005
3.80655e-006
3.0423e-006
3.29875e-006
3.37732e-006
3.37668e-006
3.37241e-006
3.37296e-006
3.37402e-006
3.37494e-006
3.37576e-006
3.37647e-006
3.37709e-006
3.37763e-006
3.37809e-006
3.37848e-006
3.37881e-006
3.37908e-006
3.37932e-006
3.37953e-006
3.37972e-006
3.3799e-006
3.38007e-006
3.38023e-006
3.38037e-006
3.38046e-006
0.835128
0.340293
0.0979751
0.0151193
0.000805484
2.04038e-005
1.01152e-006
4.71502e-007
4.87888e-007
5.31422e-007
5.34289e-007
5.33902e-007
5.34034e-007
5.34227e-007
5.34397e-007
5.3455e-007
5.34689e-007
5.34812e-007
5.34924e-007
5.35024e-007
5.3512e-007
5.35206e-007
5.35285e-007
5.35355e-007
5.35424e-007
5.35487e-007
5.35547e-007
5.35606e-007
5.35661e-007
1.23198
0.685216
0.346723
0.137486
0.0351079
0.00399433
0.000166196
4.95345e-006
3.29291e-007
1.3072e-007
1.25532e-007
1.30467e-007
1.30995e-007
1.31051e-007
1.31096e-007
1.31138e-007
1.31173e-007
1.31205e-007
1.31236e-007
1.31265e-007
1.31277e-007
1.31305e-007
1.31333e-007
1.31361e-007
1.31383e-007
1.31398e-007
1.31436e-007
1.31457e-007
1.31479e-007
1.49324
0.93115
0.56801
0.326289
0.159556
0.0532909
0.00956425
0.000628508
2.11816e-005
7.04242e-007
9.66398e-008
6.97633e-008
6.85986e-008
6.8579e-008
6.85796e-008
6.85824e-008
6.85901e-008
6.86058e-008
6.86203e-008
6.86406e-008
6.86754e-008
6.86849e-008
6.86942e-008
6.87031e-008
6.87167e-008
6.87518e-008
6.873e-008
6.87302e-008
6.87321e-008
1.645
1.08415
0.711834
0.457947
0.280078
0.153117
0.0620661
0.0140764
0.00116907
3.87793e-005
1.10734e-006
1.00648e-007
7.58315e-008
7.52835e-008
7.52829e-008
7.5283e-008
7.52852e-008
7.52945e-008
7.53117e-008
7.53389e-008
7.53902e-008
7.54105e-008
7.54577e-008
7.54604e-008
7.54666e-008
7.55069e-008
7.54361e-008
7.54364e-008
7.54382e-008
1.75129
1.19481
0.818042
0.556705
0.370942
0.235864
0.135717
0.0605767
0.0140683
0.0010889
3.05664e-005
8.47159e-007
1.78689e-007
1.64579e-007
1.64396e-007
1.64395e-007
1.64398e-007
1.64408e-007
1.64441e-007
1.64516e-007
1.64615e-007
1.64745e-007
1.65143e-007
1.65001e-007
1.65002e-007
1.65097e-007
1.64597e-007
1.64597e-007
1.646e-007
1.78718
1.24117
0.868084
0.607227
0.420574
0.283986
0.181919
0.10437
0.0455002
0.00857283
0.000443357
1.02036e-005
8.24438e-007
6.43732e-007
6.41038e-007
6.41038e-007
6.41081e-007
6.41359e-007
6.41541e-007
6.41697e-007
6.41927e-007
6.42432e-007
6.44277e-007
6.42921e-007
6.4292e-007
6.43238e-007
6.40678e-007
6.40667e-007
6.40683e-007
1.784
1.2506
0.8846
0.627741
0.443318
0.307965
0.20654
0.129173
0.0696593
0.0245798
0.00266301
7.58158e-005
3.85761e-006
2.55206e-006
2.53191e-006
2.5319e-006
2.53239e-006
2.53563e-006
2.53614e-006
2.5365e-006
2.53723e-006
2.53833e-006
2.54311e-006
2.53376e-006
2.53312e-006
2.53332e-006
2.5263e-006
2.5263e-006
2.52658e-006
1.77028
1.24815
0.887924
0.634475
0.452296
0.318445
0.218064
0.141405
0.0821276
0.036316
0.00703772
0.000313871
1.45024e-005
9.13962e-006
9.05748e-006
9.0575e-006
9.05955e-006
9.06766e-006
9.08146e-006
9.07736e-006
9.07739e-006
9.07572e-006
9.08873e-006
9.05126e-006
9.02921e-006
9.02088e-006
9.01872e-006
9.01873e-006
9.02067e-006
1.74564
1.23619
0.883342
0.633634
0.453542
0.321235
0.222096
0.146331
0.0876005
0.0420098
0.0100884
0.000627274
4.07937e-005
2.85174e-005
2.83075e-005
2.83075e-005
2.83079e-005
2.83293e-005
2.83159e-005
2.83146e-005
2.83147e-005
2.83054e-005
2.83344e-005
2.82279e-005
2.81401e-005
2.81399e-005
2.81422e-005
2.81313e-005
2.81315e-005
1.71302
1.21569
0.87136
0.627684
0.45115
0.320665
0.222552
0.14764
0.0896125
0.0444607
0.0117405
0.00085617
6.83698e-005
5.05069e-005
5.01551e-005
5.01543e-005
5.01638e-005
5.01402e-005
5.01039e-005
5.01038e-005
5.01064e-005
5.01193e-005
5.00842e-005
4.99666e-005
4.99462e-005
4.99127e-005
4.9913e-005
4.98977e-005
4.98978e-005
1.67493
1.19032
0.854365
0.616544
0.444623
0.317519
0.221417
0.147496
0.0900816
0.0454493
0.0126095
0.00101842
8.93484e-005
6.58716e-005
6.53761e-005
6.5375e-005
6.53812e-005
6.53394e-005
6.53027e-005
6.53027e-005
6.52751e-005
6.52905e-005
6.52375e-005
6.51596e-005
6.5137e-005
6.51087e-005
6.51089e-005
6.50525e-005
6.50234e-005
1.63332
1.1621
0.835135
0.603457
0.435751
0.311785
0.218303
0.146303
0.0898614
0.0456919
0.0130591
0.00113704
0.000105031
7.57816e-005
7.50886e-005
7.50624e-005
7.50624e-005
7.50149e-005
7.50085e-005
7.50085e-005
7.50075e-005
7.49817e-005
7.49195e-005
7.49183e-005
7.48734e-005
7.48531e-005
7.48556e-005
7.47931e-005
7.47822e-005
1.58908
1.13192
0.814431
0.589272
0.426103
0.30534
0.214119
0.143886
0.0889529
0.0456107
0.013341
0.00124204
0.00011779
8.19049e-005
8.09293e-005
8.09043e-005
8.09157e-005
8.08579e-005
8.08525e-005
8.08355e-005
8.08356e-005
8.07907e-005
8.07836e-005
8.07438e-005
8.07232e-005
8.07267e-005
8.07079e-005
8.06684e-005
8.06705e-005
1.54249
1.10011
0.792598
0.574313
0.415937
0.29855
0.209727
0.141216
0.0875417
0.0452894
0.0135343
0.00134339
0.000129627
8.55879e-005
8.42418e-005
8.42045e-005
8.41828e-005
8.41655e-005
8.41606e-005
8.41623e-005
8.41678e-005
8.4128e-005
8.41183e-005
8.40791e-005
8.4091e-005
8.40758e-005
8.40762e-005
8.40506e-005
8.40127e-005
1.49354
1.06672
0.769726
0.558683
0.405358
0.291527
0.205226
0.138512
0.0861195
0.0447596
0.0136053
0.00143857
0.000141403
8.80175e-005
8.61096e-005
8.6034e-005
8.60523e-005
8.60138e-005
8.6045e-005
8.60155e-005
8.60265e-005
8.60091e-005
8.59624e-005
8.59877e-005
8.59452e-005
8.59306e-005
8.59595e-005
8.59082e-005
8.59074e-005
1.44218
1.03175
0.745817
0.542396
0.394386
0.284298
0.20065
0.135821
0.0847569
0.0443036
0.0137293
0.00154657
0.000155008
8.9739e-005
8.72015e-005
8.70941e-005
8.70272e-005
8.70712e-005
8.70382e-005
8.70403e-005
8.70647e-005
8.69852e-005
8.70255e-005
8.70001e-005
8.69637e-005
8.70034e-005
8.6962e-005
8.6948e-005
8.69598e-005
1.38839
0.99517
0.720857
0.525437
0.383006
0.276845
0.195983
0.133134
0.0834719
0.0439766
0.0139218
0.00168264
0.000172487
9.15647e-005
8.77951e-005
8.75994e-005
8.76916e-005
8.7652e-005
8.76457e-005
8.76417e-005
8.75568e-005
8.76113e-005
8.76177e-005
8.75576e-005
8.76004e-005
8.75592e-005
8.7522e-005
8.75723e-005
8.75427e-005
1.33226
0.957021
0.694853
0.5078
0.371206
0.26916
0.191217
0.130442
0.0822269
0.0436443
0.0141909
0.00185281
0.000194527
9.34999e-005
8.82588e-005
8.80932e-005
8.8001e-005
8.79777e-005
8.80346e-005
8.79803e-005
8.79978e-005
8.80029e-005
8.78901e-005
8.79444e-005
8.79757e-005
8.7902e-005
8.79613e-005
8.79123e-005
8.78479e-005
1.27388
0.917372
0.667848
0.489509
0.358998
0.261241
0.186343
0.127736
0.0810608
0.0435543
0.0146151
0.00206262
0.000224712
9.6351e-005
8.88322e-005
8.83051e-005
8.82414e-005
8.83416e-005
8.82737e-005
8.82234e-005
8.82986e-005
8.81788e-005
8.82422e-005
8.82992e-005
8.8152e-005
8.82098e-005
8.81985e-005
8.81329e-005
8.82264e-005
1.2134
0.876288
0.639868
0.470565
0.346366
0.253067
0.181343
0.125
0.0799215
0.043461
0.015138
0.00234727
0.000266812
0.000100605
8.93219e-005
8.85567e-005
8.86431e-005
8.85429e-005
8.84584e-005
8.85974e-005
8.84672e-005
8.8508e-005
8.85616e-005
8.84249e-005
8.84801e-005
8.8499e-005
8.83807e-005
8.84289e-005
8.83817e-005
1.15112
0.833943
0.61101
0.45102
0.333339
0.244652
0.176214
0.122221
0.0788141
0.0435223
0.0158017
0.00267034
0.000318618
0.000106264
9.00711e-005
8.90797e-005
8.88241e-005
8.87576e-005
8.89087e-005
8.87795e-005
8.87784e-005
8.8786e-005
8.87056e-005
8.87718e-005
8.87212e-005
8.86442e-005
8.8699e-005
8.86866e-005
8.86855e-005
1.08727
0.790487
0.581363
0.43092
0.319931
0.235989
0.170944
0.119386
0.0777153
0.0436429
0.0164767
0.00304519
0.000390814
0.000115177
9.14363e-005
8.93143e-005
8.9202e-005
8.92384e-005
8.9115e-005
8.9122e-005
8.90579e-005
8.90603e-005
8.90556e-005
8.89796e-005
8.90463e-005
8.89933e-005
8.89237e-005
8.88713e-005
8.88608e-005
1.02223
0.746128
0.551036
0.410314
0.306156
0.227072
0.165516
0.116476
0.0766133
0.0437701
0.0173068
0.00353932
0.000488228
0.000128183
9.30097e-005
8.99488e-005
8.94961e-005
8.94647e-005
8.95441e-005
8.94165e-005
8.94811e-005
8.93951e-005
8.93465e-005
8.94236e-005
8.92925e-005
8.93296e-005
8.93185e-005
8.92193e-005
8.92625e-005
0.956404
0.701117
0.520184
0.389291
0.292062
0.217924
0.159932
0.113465
0.0754508
0.0439267
0.0181688
0.00404224
0.000601806
0.000145668
9.59799e-005
9.04896e-005
9.00746e-005
9.00195e-005
8.98534e-005
8.99819e-005
8.98297e-005
8.98201e-005
8.98853e-005
8.97284e-005
8.97889e-005
8.96859e-005
8.96173e-005
8.97227e-005
8.95527e-005
0.890198
0.6557
0.48894
0.367913
0.277661
0.208526
0.154162
0.110349
0.0742704
0.044084
0.0190623
0.00466587
0.000763519
0.000172939
9.97454e-005
9.17208e-005
9.05603e-005
9.04303e-005
9.05612e-005
9.03703e-005
9.0414e-005
9.03797e-005
9.02744e-005
9.03518e-005
9.01711e-005
9.01803e-005
9.01286e-005
9.00155e-005
9.01507e-005
0.824112
0.610181
0.457489
0.346288
0.263012
0.198903
0.1482
0.107066
0.0729414
0.044178
0.020048
0.00537956
0.000965203
0.00021069
0.000106961
9.30171e-005
9.13926e-005
9.12015e-005
9.09725e-005
9.12168e-005
9.10014e-005
9.08257e-005
9.08257e-005
9.08804e-005
9.09731e-005
9.07084e-005
9.07766e-005
9.06787e-005
9.04962e-005
0.758607
0.564847
0.426001
0.324504
0.248152
0.18906
0.142042
0.103642
0.0715433
0.0441665
0.0209585
0.00614416
0.00121296
0.000262403
0.000115753
9.5512e-005
9.22949e-005
9.17625e-005
9.17317e-005
9.16534e-005
9.18754e-005
9.17397e-005
9.17272e-005
9.14826e-005
9.13831e-005
9.15751e-005
9.1309e-005
9.1208e-005
9.129e-005
0.694181
0.520012
0.394668
0.302673
0.233132
0.179006
0.135659
0.0999953
0.06994
0.0440821
0.021887
0.00698425
0.00150988
0.000331376
0.000131101
9.83864e-005
9.37157e-005
9.28291e-005
9.28867e-005
9.28194e-005
9.2472e-005
9.25831e-005
9.2433e-005
9.24354e-005
9.24605e-005
9.21879e-005
9.22793e-005
9.21895e-005
9.18553e-005
0.63131
0.475981
0.36368
0.280905
0.218011
0.168764
0.129054
0.0961331
0.0681507
0.0438553
0.0226256
0.0078009
0.0018633
0.000427429
0.000151031
0.000103798
9.54884e-005
9.4313e-005
9.36635e-005
9.34939e-005
9.37399e-005
9.35938e-005
9.35936e-005
9.32767e-005
9.31454e-005
9.34253e-005
9.30961e-005
9.30864e-005
9.28484e-005
0.570448
0.433055
0.333231
0.259318
0.202854
0.158362
0.122227
0.092029
0.0661344
0.0434315
0.0233801
0.0087568
0.00229953
0.000551395
0.000183401
0.000110871
9.79721e-005
9.53897e-005
9.54257e-005
9.50834e-005
9.45817e-005
9.48473e-005
9.47542e-005
9.49397e-005
9.45468e-005
9.41712e-005
9.45149e-005
9.41964e-005
9.42187e-005
0.512004
0.391513
0.303507
0.238034
0.187732
0.147834
0.115188
0.0876793
0.0638767
0.0428017
0.0238613
0.00949952
0.00271233
0.000692528
0.000221198
0.000122589
0.000101356
9.77186e-005
9.64781e-005
9.68325e-005
9.66574e-005
9.59607e-005
9.61159e-005
9.59847e-005
9.63292e-005
9.58654e-005
9.53628e-005
9.5697e-005
9.53914e-005
0.456341
0.351609
0.274684
0.217166
0.172712
0.137207
0.107925
0.0830311
0.0612842
0.0418102
0.0241167
0.0103414
0.00322806
0.000882281
0.000278022
0.000136618
0.000107026
9.98571e-005
9.87617e-005
9.80822e-005
9.82963e-005
9.81474e-005
9.74229e-005
9.75623e-005
9.75203e-005
9.80393e-005
9.74769e-005
9.67108e-005
9.7116e-005
0.40377
0.313574
0.246928
0.196835
0.157879
0.126541
0.100485
0.0781342
0.0584117
0.040606
0.0240561
0.0108735
0.00367135
0.00107198
0.000345593
0.000160608
0.000113533
0.000103405
0.000100654
0.000100777
0.000100246
0.000100298
0.000100203
9.95924e-005
9.95947e-005
9.93084e-005
9.98248e-005
9.923e-005
9.83037e-005
0.35453
0.277597
0.220388
0.177151
0.143308
0.115879
0.0928765
0.0729555
0.0552012
0.0389424
0.0237841
0.0113492
0.00412483
0.00130183
0.00042698
0.000186781
0.000124899
0.000107776
0.000104276
0.000102598
0.000103154
0.000102618
0.000102168
0.000101995
0.000101466
0.000101671
0.000101331
0.000101848
0.000101208
0.308801
0.243835
0.195192
0.15822
0.129086
0.10529
0.0851591
0.0675568
0.0516923
0.0370527
0.0232072
0.0114813
0.00448376
0.00150691
0.000523066
0.000223674
0.00013798
0.000115026
0.000107336
0.000105827
0.000105071
0.000105913
0.000105662
0.00010504
0.000104883
0.000104364
0.000104478
0.000103817
0.000104166
0.266689
0.212399
0.171449
0.14014
0.115297
0.0948404
0.0773742
0.0619407
0.0478882
0.0347045
0.0222324
0.0113978
0.00472218
0.00172027
0.000617229
0.000266725
0.000155586
0.000121616
0.000113007
0.000110019
0.000109583
0.000108511
0.000109357
0.000108935
0.000108068
0.00010751
0.000106781
0.000107203
0.000106574
0.228233
0.183361
0.149242
0.122994
0.102017
0.0845977
0.0695805
0.0561714
0.0438015
0.0321094
0.0208562
0.0111239
0.0048072
0.00185904
0.00072083
0.000310356
0.000179187
0.000132908
0.000118617
0.000114762
0.000112955
0.000113019
0.000112373
0.000113466
0.000112849
0.000111853
0.000111246
0.000110016
0.000110408
0.193413
0.156751
0.128628
0.106855
0.0893248
0.0746389
0.061847
0.0502872
0.0395162
0.0291365
0.0191586
0.0105598
0.00476764
0.00196637
0.000800037
0.000364197
0.000198744
0.000147903
0.000126961
0.000119934
0.000118585
0.000117835
0.000117618
0.000116735
0.000117881
0.00011676
0.000116273
0.000115489
0.00011372
0.162152
0.132564
0.109643
0.0917836
0.0772929
0.0650392
0.0542471
0.0443811
0.0350383
0.0259872
0.0171843
0.00968863
0.00461904
0.001983
0.000861684
0.000407234
0.000232739
0.000159995
0.000139587
0.000128228
0.00012411
0.00012368
0.000123501
0.000123263
0.000122572
0.000123694
0.000122153
0.000121715
0.000120023
0.13433
0.11076
0.0923016
0.0778253
0.0659862
0.0558751
0.046865
0.0385035
0.0305085
0.0225978
0.0150087
0.0085828
0.00429705
0.00195519
0.00089708
0.00044279
0.000257515
0.000181644
0.000147528
0.000139544
0.000132652
0.000129498
0.000129242
0.000128961
0.000128953
0.00012881
0.000129766
0.000128702
0.00012802
0.109784
0.0912728
0.0765963
0.0650137
0.0554638
0.0472195
0.0397716
0.0327752
0.0259395
0.0192145
0.0127106
0.00736529
0.00382375
0.00186439
0.000897998
0.00046749
0.00027558
0.000197494
0.000164386
0.000146069
0.000143655
0.000139483
0.000138188
0.000138094
0.000137098
0.00013709
0.000136347
0.000137245
0.000136364
0.0883264
0.0740132
0.0625047
0.0533708
0.0457764
0.0391432
0.0330728
0.0272505
0.0215253
0.0157678
0.0103915
0.00607144
0.00325898
0.00169197
0.000874507
0.000483302
0.000297674
0.000210837
0.000175079
0.000159407
0.000149853
0.00015018
0.000147494
0.000147588
0.000147081
0.000145918
0.000145688
0.000144127
0.000144844
0.0697511
0.0588773
0.0499912
0.042908
0.0369684
0.0317142
0.0268109
0.0220521
0.017244
0.0124962
0.00816136
0.00482646
0.00268883
0.00146903
0.000820508
0.000476329
0.000312943
0.000228992
0.000186719
0.000171019
0.000162357
0.000158705
0.000160566
0.000158761
0.000160012
0.000158733
0.000158576
0.000157863
0.000154966
0.053846
0.0457528
0.0390115
0.0336287
0.029075
0.0249774
0.0210982
0.0172145
0.0132995
0.00945807
0.00614541
0.00369529
0.00213417
0.001227
0.000723815
0.000455324
0.000311105
0.000241426
0.000202228
0.000183236
0.000176505
0.000171807
0.000171169
0.000173587
0.000172663
0.000173938
0.000172501
0.000172389
0.000171355
0.0404034
0.034525
0.0295161
0.0255299
0.0221216
0.0190028
0.0159508
0.0128879
0.00974148
0.00682446
0.00439189
0.00271314
0.00162697
0.000985975
0.000626216
0.000419251
0.000306248
0.000245771
0.00021519
0.00019497
0.0001884
0.000186097
0.000186006
0.000185884
0.000189661
0.000188578
0.000190087
0.000188412
0.000188113
0.0292276
0.0250814
0.0214552
0.0186047
0.0161393
0.0138099
0.0114936
0.00908443
0.0067443
0.00463066
0.00301279
0.00190302
0.00120252
0.000771286
0.000526373
0.000382146
0.000297468
0.000247858
0.000220664
0.000204709
0.000199408
0.000198753
0.000200254
0.00020306
0.000204433
0.000212294
0.000211059
0.000212893
0.000210173
0.0201395
0.0173157
0.0147849
0.0128558
0.0111406
0.0094625
0.00773848
0.00599635
0.00434424
0.00297304
0.00197651
0.00129801
0.000869222
0.000604407
0.000439456
0.000343174
0.000283993
0.000244804
0.000225229
0.00021474
0.000213261
0.000213508
0.000214681
0.000220499
0.000224532
0.000227735
0.000239892
0.000238935
0.000242131
0.0129779
0.0111354
0.00948211
0.00828101
0.00715756
0.00601111
0.00481306
0.00365668
0.00263663
0.00182725
0.00127313
0.000880392
0.000630612
0.000475876
0.000372047
0.000305493
0.000267215
0.000241447
0.000227197
0.000223304
0.000223505
0.000225581
0.00023187
0.000237372
0.000249925
0.000257303
0.000262176
0.000277152
0.000273558
0.00760391
0.00648137
0.00553945
0.00489265
0.00422463
0.00349969
0.00277182
0.0020996
0.00153428
0.00113109
0.000815668
0.00062198
0.000470875
0.00038587
0.000323644
0.000281814
0.000254557
0.000240676
0.000234864
0.000234379
0.000236456
0.000239444
0.000246069
0.000256157
0.000265457
0.000284691
0.000300214
0.0003118
0.000338539
0.00391327
0.00332793
0.00292747
0.00265617
0.00229815
0.00190615
0.00153493
0.0011895
0.000921687
0.000710617
0.000559548
0.000450228
0.000377042
0.000324677
0.000292886
0.000265852
0.000250309
0.000243097
0.000244197
0.000244965
0.000249879
0.000253835
0.000262222
0.000269765
0.000283493
0.000297782
0.000329252
0.000343073
0.000370523
0.0017597
0.00154197
0.00145247
0.00137573
0.00120344
0.00104065
0.000861067
0.000702906
0.000589346
0.000479715
0.000417765
0.000358115
0.000326275
0.000298228
0.000275515
0.000261836
0.0002509
0.000249418
0.000250932
0.000253909
0.000261905
0.000268935
0.00028614
0.000299912
0.000330463
0.000349463
0.000395673
0.00042004
0.000442585
0.000756932
0.000716618
0.000729808
0.000726174
0.000662978
0.000595635
0.000528641
0.000463515
0.000416898
0.000365445
0.000341073
0.000301861
0.000290609
0.000274344
0.000271847
0.000272659
0.000286866
0.000320569
0.000433698
0.000565172
0.000916282
0.00131021
0.00205231
0.00294166
0.00390715
0.0050249
0.00582733
0.00581434
0.00516399
0.00036269
0.00037121
0.000402903
0.000417045
0.000404868
0.000381376
0.000353055
0.000323508
0.000306014
0.000295462
0.000298246
0.000310793
0.000362547
0.000495946
0.000867005
0.00146208
0.00295136
0.00461258
0.00831457
0.0115433
0.0179947
0.0243611
0.0329966
0.0433373
0.0526804
0.0671907
0.0741053
0.0886965
0.0832135
0.000212237
0.000226771
0.000248311
0.000263224
0.000269009
0.000278816
0.000298205
0.000323739
0.000382468
0.000523476
0.000963948
0.00189342
0.00391858
0.0069684
0.0124228
0.0184869
0.028709
0.0393998
0.0550172
0.0712531
0.0932455
0.1175
0.146616
0.18251
0.218181
0.272902
0.311783
0.403604
0.411648
0.000150386
0.000162054
0.00018648
0.000227686
0.00038369
0.000507529
0.000988864
0.00148079
0.00280541
0.00507576
0.00979892
0.0161986
0.0256648
0.0377116
0.0535729
0.0718612
0.0956604
0.12242
0.15569
0.193535
0.239633
0.293223
0.356871
0.434358
0.522343
0.643648
0.763952
0.99428
1.10577
0.000134693
0.000169843
0.000260268
0.000493113
0.0015454
0.00250709
0.00530509
0.00811304
0.0141508
0.0225845
0.0351496
0.0508583
0.0715131
0.0967471
0.127412
0.163241
0.207013
0.257008
0.317158
0.38649
0.469914
0.566927
0.684644
0.824809
0.997583
1.21698
1.4906
1.88228
2.22109
0.000990141
0.000990141
0.000990141
0.000990141
0.000990141
0.000990141
0.000990141
0.000990141
0.00099014
0.00099014
0.00099014
0.00099014
0.00099014
0.00099014
0.00099014
0.00099014
0.000990141
0.000990141
0.000990141
0.000990141
0.000990141
0.000990141
0.000990141
0.000990141
0.000990142
0.000990142
0.000990142
0.000990142
0.000990143
0.000990143
0.000990143
0.000990143
0.000990144
0.000990144
0.000990144
0.000990145
0.000990145
0.000990145
0.000990146
0.000990146
0.000990146
0.000990147
0.000990147
0.000990147
0.000990148
0.000990148
0.000990148
0.000990148
0.000990149
0.000990149
0.000990149
0.00099015
0.00099015
0.00099015
0.000990151
0.000990151
0.000990151
0.000990152
0.000990152
0.000990152
0.000990153
0.000990153
0.000990153
0.000990153
0.000990154
0.000990154
0.000990154
0.000990154
0.000990155
0.000990155
0.000990155
0.000990155
0.000990155
0.000990156
0.000990156
0.000990156
0.000990156
0.000990156
0.000990156
0.000990157
0.000990157
0.000990157
0.000990157
0.000990157
0.000990157
0.000990157
0.000990157
0.000990158
0.000990158
0.000990158
0.000990157
0.000990157
0.000990157
0.000990157
0.000990157
0.000990157
0.000990157
0.000990157
0.000990157
0.000990157
0.000990156
0.000990156
0.000990156
0.000990156
0.000990156
0.000990156
0.000990156
0.000990156
0.000990155
0.000990155
0.000990155
0.000990155
0.000990155
0.000990155
0.000990154
0.000990154
0.000990154
0.000990153
0.000990153
0.000990153
0.000990153
0.000990154
0.000990154
0.000990154
0.000990154
0.000990155
0.000990155
0.000990155
0.000990156
0.000990155
0.000990157
0.000990156
0.000990158
0.00099016
0.000990159
0.000990164
0.000990162
0.000990187
0.00100821
4.09904e-005
4.09907e-005
4.09908e-005
4.09908e-005
4.09908e-005
4.09908e-005
4.09908e-005
4.09908e-005
4.09908e-005
4.09908e-005
4.09908e-005
4.09909e-005
4.0991e-005
4.09911e-005
4.09912e-005
4.09913e-005
4.09915e-005
4.09917e-005
4.09919e-005
4.09921e-005
4.09924e-005
4.09926e-005
4.09929e-005
4.09933e-005
4.09936e-005
4.0994e-005
4.09943e-005
4.09947e-005
4.09951e-005
4.09956e-005
4.0996e-005
4.09965e-005
4.09969e-005
4.09974e-005
4.09979e-005
4.09985e-005
4.09991e-005
4.09996e-005
4.10002e-005
4.10007e-005
4.10013e-005
4.10018e-005
4.10023e-005
4.10028e-005
4.10033e-005
4.10039e-005
4.10044e-005
4.10049e-005
4.10054e-005
4.10059e-005
4.10064e-005
4.10069e-005
4.10074e-005
4.10079e-005
4.10084e-005
4.1009e-005
4.10095e-005
4.101e-005
4.10106e-005
4.10111e-005
4.10116e-005
4.10121e-005
4.10125e-005
4.1013e-005
4.10134e-005
4.10138e-005
4.10142e-005
4.10146e-005
4.10149e-005
4.10153e-005
4.10156e-005
4.10159e-005
4.10163e-005
4.10166e-005
4.10169e-005
4.10172e-005
4.10174e-005
4.10177e-005
4.1018e-005
4.10182e-005
4.10185e-005
4.10187e-005
4.10189e-005
4.10191e-005
4.10193e-005
4.10195e-005
4.10197e-005
4.10198e-005
4.10199e-005
4.10198e-005
4.10198e-005
4.10197e-005
4.10195e-005
4.10194e-005
4.10193e-005
4.10191e-005
4.10189e-005
4.10187e-005
4.10185e-005
4.10183e-005
4.1018e-005
4.10177e-005
4.10175e-005
4.10172e-005
4.1017e-005
4.10168e-005
4.10166e-005
4.10164e-005
4.10162e-005
4.1016e-005
4.10159e-005
4.10157e-005
4.10153e-005
4.10148e-005
4.10143e-005
4.10137e-005
4.10132e-005
4.10127e-005
4.10126e-005
4.10127e-005
4.1013e-005
4.10133e-005
4.10136e-005
4.10139e-005
4.10141e-005
4.10143e-005
4.10145e-005
4.10145e-005
4.10156e-005
4.10149e-005
4.1017e-005
4.10165e-005
4.10182e-005
4.10229e-005
4.10194e-005
4.10278e-005
4.10534e-005
4.05964e-005
4.20961e-005
3.38063e-006
3.38083e-006
3.38098e-006
3.38113e-006
3.38127e-006
3.38141e-006
3.38155e-006
3.38168e-006
3.3818e-006
3.38193e-006
3.38205e-006
3.38217e-006
3.38229e-006
3.38241e-006
3.38253e-006
3.38264e-006
3.38276e-006
3.38288e-006
3.383e-006
3.38311e-006
3.38323e-006
3.38336e-006
3.38348e-006
3.3836e-006
3.38372e-006
3.38384e-006
3.38397e-006
3.38409e-006
3.38422e-006
3.38434e-006
3.38447e-006
3.38459e-006
3.38472e-006
3.38485e-006
3.38498e-006
3.38511e-006
3.38525e-006
3.38539e-006
3.38552e-006
3.38566e-006
3.3858e-006
3.38595e-006
3.38609e-006
3.38623e-006
3.38638e-006
3.38652e-006
3.38667e-006
3.38681e-006
3.38696e-006
3.3871e-006
3.38725e-006
3.38739e-006
3.38754e-006
3.38769e-006
3.38783e-006
3.38797e-006
3.38811e-006
3.38825e-006
3.38838e-006
3.38851e-006
3.38863e-006
3.38874e-006
3.38886e-006
3.38897e-006
3.38908e-006
3.38919e-006
3.3893e-006
3.3894e-006
3.38951e-006
3.38961e-006
3.38971e-006
3.3898e-006
3.3899e-006
3.38999e-006
3.39007e-006
3.39016e-006
3.39024e-006
3.39031e-006
3.39039e-006
3.39046e-006
3.39053e-006
3.39059e-006
3.39066e-006
3.39072e-006
3.39078e-006
3.39084e-006
3.39089e-006
3.39095e-006
3.391e-006
3.39104e-006
3.39107e-006
3.39109e-006
3.3911e-006
3.3911e-006
3.39109e-006
3.39107e-006
3.39104e-006
3.39101e-006
3.39096e-006
3.39091e-006
3.39085e-006
3.39078e-006
3.3907e-006
3.39063e-006
3.39054e-006
3.39046e-006
3.39037e-006
3.39027e-006
3.39017e-006
3.39006e-006
3.38996e-006
3.38988e-006
3.38981e-006
3.38974e-006
3.38967e-006
3.3896e-006
3.38953e-006
3.38946e-006
3.38941e-006
3.38936e-006
3.38932e-006
3.38928e-006
3.38923e-006
3.38916e-006
3.3891e-006
3.38897e-006
3.38891e-006
3.38878e-006
3.38867e-006
3.38881e-006
3.3884e-006
3.38875e-006
3.38795e-006
3.38959e-006
3.39747e-006
3.39391e-006
3.03305e-006
8.19892e-006
0.00133031
5.35718e-007
5.35779e-007
5.3584e-007
5.35897e-007
5.35951e-007
5.36004e-007
5.36056e-007
5.36105e-007
5.36156e-007
5.36205e-007
5.36253e-007
5.36303e-007
5.36352e-007
5.36401e-007
5.3645e-007
5.365e-007
5.3655e-007
5.366e-007
5.36651e-007
5.36702e-007
5.36753e-007
5.36805e-007
5.36858e-007
5.36911e-007
5.36964e-007
5.37017e-007
5.37071e-007
5.37126e-007
5.37181e-007
5.37236e-007
5.37292e-007
5.37347e-007
5.37403e-007
5.3746e-007
5.37516e-007
5.37572e-007
5.37628e-007
5.37684e-007
5.37739e-007
5.37795e-007
5.3785e-007
5.37906e-007
5.37961e-007
5.38015e-007
5.3807e-007
5.38124e-007
5.38178e-007
5.38231e-007
5.38284e-007
5.38337e-007
5.38389e-007
5.38441e-007
5.38492e-007
5.38543e-007
5.38593e-007
5.38642e-007
5.38691e-007
5.38739e-007
5.38786e-007
5.38832e-007
5.38878e-007
5.38923e-007
5.38967e-007
5.39011e-007
5.39054e-007
5.39096e-007
5.39138e-007
5.39179e-007
5.39218e-007
5.39257e-007
5.39295e-007
5.39332e-007
5.39369e-007
5.39404e-007
5.39438e-007
5.39472e-007
5.39504e-007
5.39535e-007
5.39565e-007
5.39594e-007
5.39622e-007
5.39649e-007
5.39674e-007
5.39698e-007
5.39721e-007
5.39742e-007
5.39761e-007
5.39778e-007
5.39797e-007
5.39817e-007
5.39836e-007
5.39854e-007
5.3987e-007
5.39884e-007
5.39896e-007
5.39906e-007
5.39915e-007
5.39921e-007
5.39924e-007
5.39925e-007
5.39923e-007
5.3992e-007
5.39914e-007
5.39907e-007
5.39898e-007
5.39887e-007
5.39874e-007
5.39859e-007
5.39842e-007
5.39822e-007
5.398e-007
5.39778e-007
5.39761e-007
5.39745e-007
5.39728e-007
5.39707e-007
5.39685e-007
5.39659e-007
5.3963e-007
5.39597e-007
5.3956e-007
5.39518e-007
5.39473e-007
5.39413e-007
5.39351e-007
5.39284e-007
5.39169e-007
5.39141e-007
5.38985e-007
5.38989e-007
5.38908e-007
5.38725e-007
5.39396e-007
5.37291e-007
4.81512e-007
4.97987e-007
7.67479e-006
0.0012087
0.0448865
1.31497e-007
1.31536e-007
1.31564e-007
1.3159e-007
1.31616e-007
1.31641e-007
1.31665e-007
1.3169e-007
1.31714e-007
1.31739e-007
1.31764e-007
1.3179e-007
1.31816e-007
1.31842e-007
1.31869e-007
1.31896e-007
1.31924e-007
1.31951e-007
1.31981e-007
1.3201e-007
1.32039e-007
1.32069e-007
1.321e-007
1.32131e-007
1.32162e-007
1.32194e-007
1.32226e-007
1.32258e-007
1.32291e-007
1.32324e-007
1.32357e-007
1.3239e-007
1.32424e-007
1.32457e-007
1.32491e-007
1.32526e-007
1.3256e-007
1.32594e-007
1.32629e-007
1.32663e-007
1.32697e-007
1.32732e-007
1.32766e-007
1.328e-007
1.32833e-007
1.32867e-007
1.32901e-007
1.32934e-007
1.32967e-007
1.33e-007
1.33033e-007
1.33065e-007
1.33098e-007
1.3313e-007
1.33161e-007
1.33192e-007
1.33223e-007
1.33254e-007
1.33284e-007
1.33314e-007
1.33344e-007
1.33373e-007
1.33402e-007
1.33431e-007
1.33459e-007
1.33487e-007
1.33514e-007
1.33541e-007
1.33567e-007
1.33593e-007
1.33618e-007
1.33643e-007
1.33668e-007
1.33692e-007
1.33715e-007
1.33738e-007
1.3376e-007
1.33782e-007
1.33803e-007
1.33824e-007
1.33844e-007
1.33864e-007
1.33883e-007
1.33901e-007
1.33919e-007
1.33936e-007
1.33952e-007
1.33968e-007
1.33983e-007
1.33998e-007
1.34013e-007
1.34027e-007
1.34041e-007
1.34054e-007
1.34067e-007
1.34078e-007
1.34089e-007
1.341e-007
1.34109e-007
1.34118e-007
1.34125e-007
1.34132e-007
1.34138e-007
1.34142e-007
1.34146e-007
1.34149e-007
1.34151e-007
1.34151e-007
1.34151e-007
1.34149e-007
1.34146e-007
1.34141e-007
1.34136e-007
1.34131e-007
1.34124e-007
1.34115e-007
1.34106e-007
1.34095e-007
1.34082e-007
1.34067e-007
1.3405e-007
1.3403e-007
1.34008e-007
1.3398e-007
1.33947e-007
1.33914e-007
1.33863e-007
1.33831e-007
1.33791e-007
1.33711e-007
1.33782e-007
1.33415e-007
1.31127e-007
1.28703e-007
3.16345e-007
1.09328e-005
0.000931197
0.0290687
0.238416
6.87505e-008
6.8712e-008
6.86992e-008
6.8696e-008
6.86938e-008
6.86895e-008
6.86842e-008
6.86787e-008
6.86714e-008
6.86641e-008
6.86561e-008
6.86477e-008
6.86385e-008
6.8629e-008
6.86192e-008
6.86089e-008
6.8598e-008
6.85871e-008
6.85759e-008
6.85634e-008
6.85506e-008
6.85385e-008
6.85259e-008
6.85132e-008
6.85003e-008
6.84874e-008
6.84743e-008
6.84617e-008
6.84478e-008
6.84343e-008
6.84207e-008
6.84074e-008
6.83939e-008
6.83805e-008
6.83667e-008
6.83532e-008
6.83394e-008
6.83256e-008
6.83126e-008
6.82993e-008
6.82858e-008
6.82728e-008
6.82598e-008
6.82468e-008
6.82335e-008
6.82208e-008
6.82081e-008
6.81955e-008
6.81825e-008
6.81701e-008
6.81581e-008
6.8146e-008
6.81343e-008
6.81218e-008
6.81099e-008
6.80986e-008
6.80875e-008
6.80764e-008
6.80655e-008
6.8055e-008