/*--------------------------------*- C++ -*----------------------------------*\
| =========                 |                                                 |
| \\      /  F ield         | OpenFOAM: The Open Source CFD Toolbox           |
|  \\    /   O peration     | Version:  5.x                                   |
|   \\  /    A nd           | Web:      www.OpenFOAM.org                      |
|    \\/     M anipulation  |                                                 |
\*---------------------------------------------------------------------------*/
/*   Windows 32 and 64 bit porting by blueCAPE: http://www.bluecape.com.pt   *\
|  Based on Windows porting (2.0.x v4) by Symscape: http://www.symscape.com   |
\*---------------------------------------------------------------------------*/
FoamFile
{
    version     2.0;
    format      ascii;
    class       volScalarField;
    location    "120";
    object      nut;
}
// * * * * * * * * * * * * * * * * * * * * * * * * * * * * * * * * * * * * * //

dimensions      [0 2 -1 0 0 0 0];

internalField   nonuniform List<scalar> 
43900
(
5.71273e-005
5.80272e-005
5.80682e-005
5.80655e-005
5.8059e-005
5.80589e-005
5.80587e-005
5.80598e-005
5.80595e-005
5.80601e-005
5.80601e-005
5.80601e-005
5.80602e-005
5.80602e-005
5.80602e-005
5.80603e-005
5.80603e-005
5.80604e-005
5.80604e-005
5.80604e-005
5.80605e-005
5.80605e-005
5.80605e-005
5.80605e-005
5.80605e-005
5.80605e-005
5.80605e-005
5.80605e-005
5.80605e-005
0.000352562
6.06195e-006
4.29302e-006
4.13852e-006
4.59614e-006
4.6075e-006
4.60415e-006
4.60519e-006
4.60487e-006
4.60613e-006
4.60625e-006
4.60645e-006
4.60663e-006
4.60679e-006
4.60694e-006
4.60708e-006
4.6072e-006
4.60732e-006
4.60743e-006
4.60752e-006
4.60759e-006
4.60763e-006
4.60767e-006
4.6077e-006
4.60774e-006
4.60777e-006
4.60779e-006
4.60781e-006
4.60781e-006
0.141863
0.0383296
0.00331965
5.11174e-005
8.79709e-007
6.30983e-007
6.99419e-007
7.24133e-007
7.23753e-007
7.22256e-007
7.22335e-007
7.22568e-007
7.22766e-007
7.2294e-007
7.23093e-007
7.23225e-007
7.23339e-007
7.23438e-007
7.23521e-007
7.23591e-007
7.2365e-007
7.23701e-007
7.23747e-007
7.23789e-007
7.23828e-007
7.23865e-007
7.23898e-007
7.2393e-007
7.2395e-007
0.44789
0.263886
0.11062
0.0248563
0.00173075
2.99422e-005
5.71941e-007
1.83682e-007
1.87145e-007
2.12511e-007
2.1421e-007
2.1393e-007
2.13964e-007
2.14038e-007
2.14103e-007
2.14161e-007
2.14214e-007
2.14261e-007
2.14305e-007
2.14344e-007
2.14383e-007
2.14417e-007
2.14448e-007
2.14475e-007
2.14503e-007
2.14529e-007
2.14553e-007
2.14576e-007
2.14599e-007
0.712901
0.535906
0.365289
0.19882
0.0696508
0.0106734
0.000519726
1.17751e-005
3.68903e-007
9.26339e-008
8.31166e-008
8.81171e-008
8.86766e-008
8.87203e-008
8.87522e-008
8.87812e-008
8.88051e-008
8.88259e-008
8.88463e-008
8.88648e-008
8.88672e-008
8.8886e-008
8.89047e-008
8.89246e-008
8.89384e-008
8.89459e-008
8.89774e-008
8.89911e-008
8.90055e-008
0.918747
0.749038
0.590446
0.435206
0.276792
0.121644
0.0290516
0.00234763
8.41044e-005
1.88879e-006
1.50919e-007
9.11831e-008
8.7632e-008
8.75266e-008
8.75122e-008
8.75025e-008
8.75028e-008
8.75211e-008
8.75389e-008
8.75683e-008
8.76278e-008
8.76391e-008
8.76556e-008
8.7663e-008
8.76803e-008
8.77358e-008
8.76785e-008
8.76746e-008
8.76707e-008
1.06205
0.897897
0.747209
0.603397
0.461379
0.319063
0.169911
0.0501287
0.00516523
0.000184682
4.82678e-006
2.37828e-007
1.63907e-007
1.62483e-007
1.6248e-007
1.6248e-007
1.62482e-007
1.62501e-007
1.6254e-007
1.62602e-007
1.62726e-007
1.62762e-007
1.62847e-007
1.6285e-007
1.62861e-007
1.62966e-007
1.62792e-007
1.62794e-007
1.62798e-007
1.17602
1.01553
0.869729
0.732763
0.599805
0.466983
0.330776
0.18923
0.0568843
0.00543686
0.000163075
4.23183e-006
6.69511e-007
6.00101e-007
5.99201e-007
5.99192e-007
5.99205e-007
5.99239e-007
5.99374e-007
5.99704e-007
6.00081e-007
6.00665e-007
6.02679e-007
6.01747e-007
6.01746e-007
6.02599e-007
5.99584e-007
5.99582e-007
5.99568e-007
1.23285
1.07684
0.935871
0.804999
0.679678
0.556102
0.431106
0.302233
0.168454
0.0410053
0.00252584
6.06235e-005
5.13624e-006
4.05214e-006
4.03683e-006
4.03682e-006
4.03731e-006
4.04048e-006
4.04183e-006
4.04259e-006
4.04305e-006
4.04364e-006
4.06474e-006
4.04815e-006
4.04811e-006
4.05882e-006
4.02891e-006
4.02876e-006
4.03292e-006
1.25547
1.10263
0.966655
0.840737
0.721047
0.604038
0.486767
0.366949
0.242981
0.111231
0.015262
0.000480453
2.85882e-005
2.06845e-005
2.05744e-005
2.05742e-005
2.05818e-005
2.06312e-005
2.06333e-005
2.06308e-005
2.06302e-005
2.06125e-005
2.07169e-005
2.05651e-005
2.05845e-005
2.06062e-005
2.04923e-005
2.05219e-005
2.05528e-005
1.2701
1.11817
0.982157
0.858741
0.742053
0.628411
0.51531
0.400474
0.282045
0.157728
0.0397617
0.00207558
0.000115135
8.18795e-005
8.14382e-005
8.14401e-005
8.14764e-005
8.16174e-005
8.18471e-005
8.17401e-005
8.1672e-005
8.15243e-005
8.19753e-005
8.13009e-005
8.11257e-005
8.09772e-005
8.09353e-005
8.11507e-005
8.12831e-005
1.27209
1.12347
0.989424
0.865353
0.749424
0.638196
0.527815
0.41563
0.300184
0.180031
0.0564229
0.00428855
0.000348082
0.000270393
0.000269253
0.000269293
0.000269287
0.000269616
0.000269386
0.000269345
0.000269451
0.000269535
0.000270188
0.000268157
0.000267122
0.000267046
0.000267457
0.000267736
0.00026774
1.2654
1.11886
0.98803
0.867564
0.752641
0.641112
0.531356
0.421093
0.30766
0.189887
0.0654089
0.00591872
0.000609335
0.000495775
0.000493447
0.000493376
0.000493853
0.000493386
0.000492945
0.000492944
0.000493316
0.000493569
0.000493548
0.00049146
0.000491058
0.000490838
0.000491506
0.000491351
0.000491353
1.25369
1.10925
0.980107
0.86166
0.750152
0.641473
0.532587
0.422519
0.310353
0.194025
0.0700095
0.00703729
0.000802245
0.000653504
0.000650371
0.000650686
0.000650878
0.000650018
0.000649707
0.000649706
0.000649747
0.000650268
0.000649626
0.000648094
0.000647872
0.000647807
0.000648433
0.000647311
0.000646696
1.23936
1.09718
0.969965
0.853192
0.743067
0.636376
0.530587
0.422631
0.310854
0.195467
0.0723909
0.00782622
0.000938459
0.000754593
0.000750551
0.000750462
0.000750462
0.00074983
0.000749955
0.000749958
0.000750445
0.000750132
0.000748916
0.000748828
0.000748699
0.000748875
0.000748925
0.000747903
0.000747682
1.22341
1.08362
0.958492
0.843536
0.735016
0.629801
0.525284
0.419289
0.309981
0.195648
0.0738425
0.00849238
0.00104043
0.000816881
0.000811211
0.000811219
0.000811279
0.000810515
0.00081045
0.000809946
0.000810666
0.000810126
0.000809981
0.000809323
0.00080903
0.00080909
0.000809281
0.000808494
0.00080883
1.20622
1.06901
0.946114
0.83312
0.726338
0.622692
0.519631
0.415078
0.307355
0.195328
0.0749496
0.00912824
0.00112622
0.000852892
0.000845062
0.000844735
0.000844625
0.000844275
0.000844395
0.000844544
0.000844981
0.000844207
0.000844259
0.000843822
0.000844042
0.000843878
0.000843878
0.000843561
0.000843281
1.18791
1.05347
0.932989
0.822116
0.717218
0.615272
0.513786
0.410744
0.304521
0.193991
0.0753331
0.00969226
0.00120442
0.00087532
0.000864387
0.000863613
0.000863923
0.000863628
0.000863926
0.000863918
0.000864149
0.000863533
0.000863263
0.000863367
0.000863052
0.000862907
0.00086326
0.00086277
0.000862673
1.16847
1.03701
0.919138
0.810559
0.707706
0.607615
0.507848
0.406442
0.301818
0.192843
0.0758985
0.0103186
0.00128959
0.000889072
0.000875215
0.000874704
0.00087411
0.000874289
0.000874159
0.000873936
0.000874336
0.000873645
0.000873938
0.000873883
0.000873533
0.000873627
0.000873487
0.000873398
0.00087363
1.14784
1.01959
0.904523
0.798417
0.697775
0.599695
0.501803
0.402194
0.299334
0.192101
0.0767639
0.0111009
0.00139581
0.00090128
0.00088079
0.000879643
0.000880404
0.00088021
0.000880104
0.000879985
0.000879388
0.000879614
0.000879877
0.000879444
0.000879726
0.00087941
0.000879037
0.000879523
0.00087948
1.12596
1.00116
0.889097
0.785651
0.687392
0.591489
0.495632
0.397963
0.296937
0.191233
0.0779419
0.0120769
0.00152901
0.000911989
0.000884605
0.000883884
0.00088344
0.0008833
0.000883725
0.000883336
0.000883358
0.000883309
0.000882573
0.000882857
0.000883392
0.00088283
0.000883075
0.000882932
0.000882497
1.10278
0.981666
0.872824
0.772228
0.676526
0.582964
0.489306
0.393766
0.294872
0.191353
0.0799271
0.013297
0.00171334
0.000927002
0.000888705
0.000885705
0.000885365
0.000886122
0.000885785
0.00088534
0.000885938
0.000884888
0.000885312
0.000885857
0.000884876
0.000885279
0.000885281
0.000884894
0.000885501
1.07824
0.961057
0.855649
0.758092
0.665122
0.574071
0.48278
0.389528
0.292888
0.19155
0.082463
0.014956
0.00197145
0.000949304
0.000891569
0.000887572
0.000888272
0.000887717
0.000887091
0.000887944
0.000887191
0.000887588
0.000887789
0.000886857
0.000887291
0.000887529
0.000886766
0.000886991
0.000886721
1.05233
0.939312
0.837547
0.743219
0.653159
0.564786
0.476024
0.385232
0.291061
0.192361
0.0855869
0.0168257
0.00228992
0.00097822
0.000895734
0.000891233
0.000889599
0.000889183
0.000890126
0.000889253
0.000889273
0.000889443
0.000888862
0.000889231
0.000889005
0.000888537
0.000888886
0.00088899
0.00088908
1.02501
0.916392
0.818477
0.727564
0.640585
0.555057
0.468992
0.380824
0.289267
0.193197
0.0887584
0.018984
0.00273406
0.00102541
0.000902721
0.000892622
0.000892104
0.000892366
0.000891546
0.000891554
0.000891231
0.000891262
0.000891225
0.000890631
0.000891082
0.000890875
0.000890522
0.000890297
0.000890235
0.996281
0.892278
0.798407
0.711084
0.627352
0.544829
0.461624
0.376253
0.287482
0.194178
0.0926941
0.0218126
0.00333221
0.00109605
0.000910176
0.000896431
0.00089401
0.000893862
0.000894369
0.000893543
0.000893939
0.000893529
0.000893103
0.000893523
0.0008927
0.000892972
0.000893159
0.000892599
0.000892769
0.966136
0.866958
0.777316
0.693752
0.613428
0.534068
0.453874
0.371438
0.285611
0.195294
0.096702
0.0246618
0.00402722
0.00119452
0.00092484
0.000899347
0.000897714
0.000897562
0.000896415
0.000897148
0.000896196
0.000896085
0.000896553
0.000895538
0.000895904
0.000895424
0.000894923
0.000895582
0.000894615
0.934582
0.840414
0.755163
0.675507
0.598734
0.522684
0.445663
0.36635
0.283638
0.196564
0.100952
0.0281996
0.0050158
0.00135237
0.000942387
0.000906017
0.000900655
0.000899874
0.000900766
0.000899569
0.000899817
0.000899811
0.000899144
0.00089954
0.000898353
0.000898432
0.000898298
0.000897579
0.000898413
0.901654
0.812653
0.731935
0.656322
0.58323
0.510618
0.436889
0.360805
0.281344
0.19762
0.105571
0.0321889
0.00624183
0.00157635
0.000978178
0.00091227
0.000905401
0.000904928
0.000903362
0.000904756
0.000903602
0.000902457
0.000902413
0.000902739
0.000903336
0.000901862
0.000902321
0.000902002
0.000900673
0.867381
0.783674
0.707605
0.636144
0.566847
0.497798
0.42751
0.354824
0.278751
0.198063
0.109913
0.0364725
0.00774412
0.00188666
0.00102218
0.000924784
0.000910512
0.000908155
0.000907884
0.000907436
0.000908767
0.000908076
0.000908002
0.000906659
0.000905929
0.000907059
0.000905635
0.000905152
0.000905639
0.831811
0.753491
0.682155
0.614929
0.549514
0.484119
0.41736
0.348164
0.275605
0.198442
0.114231
0.0411006
0.00953385
0.00230663
0.00110514
0.000938224
0.000918474
0.000914551
0.000915061
0.000914666
0.000912476
0.000913077
0.000912496
0.000912526
0.000912604
0.00091089
0.000911444
0.000911085
0.000909214
0.795003
0.722124
0.655573
0.592637
0.53117
0.469509
0.406375
0.340769
0.271806
0.198449
0.117792
0.0456295
0.0116555
0.00289151
0.00121428
0.000964445
0.000927663
0.000923191
0.000919856
0.000918834
0.000920192
0.000919361
0.000919362
0.000917655
0.000916768
0.000918381
0.000916623
0.000916522
0.000915355
0.757032
0.689606
0.627854
0.569234
0.511752
0.453876
0.394433
0.332503
0.267274
0.197827
0.12141
0.0507999
0.0142619
0.00365128
0.00140244
0.000999293
0.000940488
0.000929552
0.000930336
0.000928777
0.000925421
0.000926909
0.00092639
0.000927496
0.000925465
0.000922979
0.000924926
0.000923228
0.000923363
0.717979
0.655978
0.599005
0.544692
0.491206
0.437149
0.38145
0.323267
0.261845
0.196265
0.123781
0.0548998
0.0167161
0.00451331
0.00162537
0.00105955
0.000956859
0.000942387
0.000936478
0.000938749
0.000937828
0.00093366
0.000934475
0.000933801
0.000935657
0.000933291
0.000930111
0.000931978
0.000930477
0.677942
0.621293
0.569038
0.51899
0.469475
0.419225
0.367266
0.312829
0.255212
0.193561
0.125414
0.0594322
0.0197642
0.00566726
0.00196491
0.00113401
0.000985288
0.000953704
0.000949828
0.000946079
0.000947333
0.000946619
0.000942326
0.00094306
0.000942948
0.00094591
0.000943142
0.000938168
0.000940395
0.637037
0.585625
0.53799
0.492131
0.446539
0.400073
0.351857
0.301185
0.247432
0.189814
0.125326
0.0624261
0.0223911
0.00682997
0.00237319
0.00126633
0.00101607
0.000971993
0.000960246
0.00096146
0.000958746
0.000958961
0.000958425
0.000954837
0.000954812
0.000953225
0.000956116
0.000953148
0.000947436
0.595395
0.549064
0.505912
0.464134
0.422381
0.379635
0.335106
0.28816
0.238194
0.184411
0.124424
0.0649424
0.0250512
0.00821894
0.00287019
0.00141755
0.00107531
0.000993714
0.000979975
0.000971829
0.000975106
0.000972598
0.000970404
0.000969325
0.000966162
0.000967129
0.000964934
0.000967812
0.000964552
0.55317
0.511723
0.472886
0.43505
0.397028
0.357921
0.317027
0.273758
0.22758
0.177797
0.12226
0.0658154
0.0271394
0.00947203
0.00344763
0.00162982
0.0011417
0.00102991
0.000995523
0.000990169
0.000986005
0.000990261
0.000989213
0.000986364
0.000985161
0.000981678
0.000982673
0.00097923
0.000981052
0.510535
0.473742
0.43902
0.40496
0.370533
0.334951
0.297585
0.257912
0.215412
0.16932
0.118151
0.0654574
0.0285601
0.0107387
0.00402795
0.0018841
0.00123799
0.00106125
0.00102467
0.00101279
0.0010111
0.00100617
0.00101065
0.0010088
0.00100454
0.00100122
0.000996009
0.000998094
0.000994819
0.467687
0.435285
0.40445
0.373978
0.342988
0.310795
0.276846
0.240645
0.201718
0.159377
0.112187
0.0641388
0.0290599
0.0115813
0.00463674
0.0021415
0.00136528
0.00111969
0.00105297
0.00103675
0.0010293
0.00102989
0.00102641
0.00103211
0.00102942
0.00102539
0.001022
0.00101411
0.00101585
0.424846
0.396547
0.369352
0.342261
0.314533
0.285575
0.254889
0.222038
0.186561
0.147642
0.104417
0.0613221
0.0288476
0.0122085
0.0051168
0.00245257
0.00147405
0.0011934
0.00109542
0.00106567
0.00105995
0.00105758
0.00105649
0.00105084
0.00105587
0.00105065
0.00104873
0.00104484
0.00103461
0.382257
0.357755
0.333937
0.310008
0.285353
0.259461
0.231894
0.202223
0.170009
0.13454
0.09511
0.0566559
0.0279888
0.0122819
0.00546485
0.002701
0.00165968
0.00125527
0.00115325
0.00110691
0.00109091
0.00108989
0.00108929
0.00108801
0.00108402
0.00108872
0.00108119
0.00107843
0.00106973
0.340191
0.319165
0.298453
0.27746
0.255686
0.232688
0.208055
0.181407
0.152315
0.119938
0.0844379
0.0506063
0.0261039
0.0120928
0.00566989
0.00290637
0.00179661
0.00136797
0.00119271
0.001157
0.00113047
0.00111871
0.00111843
0.00111679
0.00111626
0.0011152
0.00111988
0.00111536
0.00111184
0.298937
0.281062
0.263184
0.244903
0.225812
0.205522
0.18367
0.159866
0.133631
0.104464
0.0727758
0.0437857
0.0232498
0.0115136
0.00561994
0.00302945
0.0018926
0.00144667
0.00127642
0.00118907
0.00118095
0.00116824
0.00116387
0.0011633
0.0011583
0.00115773
0.00115295
0.00115721
0.00115367
0.258809
0.243762
0.228447
0.212657
0.19606
0.178314
0.159051
0.137897
0.114424
0.0880834
0.0605148
0.0364071
0.0198411
0.0103998
0.0054616
0.00308617
0.00199925
0.00151223
0.00132233
0.00125471
0.00121353
0.00121839
0.00120921
0.00121096
0.00120914
0.00120461
0.00120294
0.00119273
0.00119522
0.220134
0.2076
0.194587
0.18108
0.166796
0.1514
0.134549
0.115867
0.0948205
0.0715752
0.0482721
0.0291162
0.0163597
0.0089948
0.00509891
0.00303673
0.00206407
0.00159585
0.00138042
0.00130693
0.00127601
0.00126099
0.00126939
0.00126298
0.00126946
0.00126545
0.00126504
0.001262
0.00124769
0.183258
0.172935
0.161973
0.150557
0.138405
0.125193
0.110569
0.0940942
0.0755148
0.0554726
0.0367797
0.0223633
0.0129787
0.0075054
0.00448275
0.00288903
0.00204673
0.00165016
0.00144825
0.00136103
0.00133454
0.00132333
0.00132333
0.00133359
0.00133031
0.00133554
0.00133042
0.00133003
0.00132527
0.148541
0.140138
0.130994
0.121494
0.11132
0.100112
0.0874772
0.0731503
0.0570461
0.0407576
0.0265907
0.0164471
0.00990513
0.00603961
0.00386902
0.0026535
0.00199817
0.0016606
0.00149797
0.00140898
0.00138878
0.00138598
0.00139213
0.00139174
0.0014063
0.00140166
0.0014054
0.00139812
0.00139614
0.116359
0.109596
0.102068
0.0943509
0.085998
0.0765956
0.0658493
0.0535369
0.0404626
0.0281072
0.0183512
0.0115943
0.00733489
0.00474629
0.00326424
0.00241172
0.00193017
0.00165594
0.00151789
0.00145085
0.0014382
0.00143942
0.00144328
0.0014679
0.00147463
0.00150752
0.00150805
0.00151456
0.0015025
0.0871138
0.0817302
0.0756761
0.0696413
0.0629527
0.0552213
0.0462603
0.0364252
0.0266272
0.0182689
0.0121213
0.00795637
0.00533396
0.00372696
0.00274637
0.00217627
0.00183784
0.00163231
0.00153571
0.00149996
0.00150002
0.00150286
0.00150929
0.00153015
0.00156221
0.00157089
0.00160674
0.00161161
0.00163068
0.061266
0.057047
0.0524252
0.0479999
0.042861
0.0367717
0.0298481
0.0227812
0.0164127
0.011362
0.00785847
0.00544456
0.00391122
0.00296099
0.00234857
0.00196798
0.00174159
0.00160696
0.0015457
0.00153459
0.00153723
0.00154901
0.00158482
0.00161053
0.00165094
0.0017165
0.00172274
0.00175145
0.00173648
0.0394008
0.0362508
0.03315
0.030286
0.0266457
0.0222986
0.0176836
0.0133438
0.00971121
0.00707835
0.00512282
0.0038738
0.00297366
0.00243825
0.00207132
0.00182998
0.00167833
0.00160532
0.00158463
0.0015854
0.00159482
0.00160672
0.00163116
0.00167523
0.00171026
0.00176767
0.00186745
0.00190785
0.00199919
0.0223788
0.0203896
0.018877
0.0174057
0.0151285
0.0125423
0.00998945
0.00771016
0.00590826
0.00454586
0.00357873
0.00288867
0.00242765
0.00211269
0.00191066
0.00175453
0.00166691
0.00162926
0.00163438
0.00164057
0.00167059
0.00169352
0.0017319
0.0017491
0.00179521
0.00183698
0.00195038
0.00200261
0.0020512
0.011129
0.0103116
0.00997519
0.00944348
0.00820715
0.00701606
0.00574281
0.00467841
0.00386202
0.00316696
0.00272093
0.0023583
0.00213474
0.001972
0.00184278
0.00175031
0.00168344
0.0016709
0.001671
0.00167308
0.00168227
0.00167793
0.00168756
0.00164572
0.00161713
0.00157017
0.00158397
0.00164703
0.00176221
0.0052862
0.00518375
0.00528323
0.00521174
0.00465752
0.00415922
0.00361857
0.00317996
0.00282233
0.00250807
0.00234441
0.00207875
0.00198994
0.00184296
0.00178239
0.00170524
0.00155666
0.00140555
0.00135569
0.0014021
0.00179187
0.00220853
0.00307398
0.00382822
0.00480253
0.00536428
0.00597034
0.00508406
0.00436142
0.00278985
0.00288366
0.00307436
0.00312809
0.00298438
0.00274986
0.00256024
0.00232354
0.00216825
0.00202471
0.00195352
0.00182764
0.00164147
0.00159951
0.00207174
0.00283101
0.00492009
0.00680384
0.0110449
0.01393
0.019686
0.0245817
0.0302542
0.0364156
0.0408363
0.0470611
0.0482003
0.0502666
0.0441343
0.00177325
0.00187497
0.00200185
0.00209005
0.00207612
0.0020622
0.00202039
0.00198049
0.00185359
0.00184488
0.00242859
0.00384056
0.00683971
0.0105856
0.0164411
0.0221385
0.0304922
0.0382656
0.0481756
0.0574158
0.068162
0.0795251
0.0901795
0.104199
0.113128
0.130485
0.13585
0.15819
0.141697
0.00133941
0.00141473
0.00156149
0.00171216
0.00239614
0.00241947
0.0034724
0.00394649
0.00597418
0.00884897
0.0145184
0.0208413
0.0285261
0.0371573
0.047074
0.0572256
0.0687031
0.0806197
0.0933996
0.107164
0.121185
0.137565
0.152565
0.172766
0.187661
0.215197
0.227041
0.272344
0.262174
0.00121395
0.0013816
0.00170309
0.00230668
0.00561301
0.00668942
0.0110876
0.0132318
0.0189075
0.0258456
0.0336847
0.0431428
0.0532986
0.0646591
0.0768281
0.0897244
0.103478
0.118362
0.13391
0.151153
0.168609
0.189156
0.208601
0.234237
0.255291
0.290754
0.312301
0.367903
0.367903
5.80605e-005
5.80605e-005
5.80605e-005
5.80605e-005
5.80605e-005
5.80605e-005
5.80605e-005
5.80605e-005
5.80605e-005
5.80605e-005
5.80605e-005
5.80605e-005
5.80605e-005
5.80605e-005
5.80605e-005
5.80605e-005
5.80605e-005
5.80605e-005
5.80605e-005
5.80605e-005
5.80605e-005
5.80605e-005
5.80605e-005
5.80606e-005
5.80606e-005
5.80606e-005
5.80606e-005
5.80606e-005
5.80606e-005
5.80607e-005
5.80607e-005
5.80607e-005
5.80607e-005
5.80608e-005
5.80608e-005
5.80608e-005
5.80608e-005
5.80609e-005
5.80609e-005
5.80609e-005
5.80609e-005
5.8061e-005
5.8061e-005
5.8061e-005
5.8061e-005
5.80611e-005
5.80611e-005
5.80611e-005
5.80611e-005
5.80612e-005
5.80612e-005
5.80612e-005
5.80612e-005
5.80612e-005
5.80613e-005
5.80613e-005
5.80613e-005
5.80613e-005
5.80614e-005
5.80614e-005
5.80614e-005
5.80614e-005
5.80615e-005
5.80615e-005
5.80615e-005
5.80615e-005
5.80615e-005
5.80616e-005
5.80616e-005
5.80616e-005
5.80616e-005
5.80616e-005
5.80616e-005
5.80617e-005
5.80617e-005
5.80617e-005
5.80617e-005
5.80617e-005
5.80617e-005
5.80617e-005
5.80617e-005
5.80618e-005
5.80618e-005
5.80618e-005
5.80618e-005
5.80618e-005
5.80618e-005
5.80618e-005
5.80618e-005
5.80618e-005
5.80618e-005
5.80618e-005
5.80618e-005
5.80618e-005
5.80618e-005
5.80618e-005
5.80618e-005
5.80617e-005
5.80617e-005
5.80617e-005
5.80617e-005
5.80617e-005
5.80617e-005
5.80617e-005
5.80617e-005
5.80617e-005
5.80617e-005
5.80617e-005
5.80616e-005
5.80616e-005
5.80616e-005
5.80616e-005
5.80616e-005
5.80616e-005
5.80616e-005
5.80615e-005
5.80615e-005
5.80615e-005
5.80615e-005
5.80615e-005
5.80615e-005
5.80615e-005
5.80615e-005
5.80615e-005
5.80616e-005
5.80616e-005
5.80616e-005
5.80616e-005
5.80616e-005
5.80616e-005
5.80617e-005
5.80617e-005
5.80618e-005
5.8062e-005
5.80619e-005
5.80623e-005
5.80621e-005
5.80643e-005
5.9328e-005
4.60783e-006
4.60787e-006
4.60788e-006
4.60788e-006
4.60789e-006
4.60789e-006
4.6079e-006
4.6079e-006
4.6079e-006
4.60791e-006
4.60791e-006
4.60792e-006
4.60793e-006
4.60795e-006
4.60796e-006
4.60798e-006
4.608e-006
4.60802e-006
4.60805e-006
4.60808e-006
4.60811e-006
4.60814e-006
4.60818e-006
4.60821e-006
4.60825e-006
4.6083e-006
4.60834e-006
4.60839e-006
4.60843e-006
4.60848e-006
4.60853e-006
4.60858e-006
4.60864e-006
4.60869e-006
4.60875e-006
4.60881e-006
4.60888e-006
4.60894e-006
4.60901e-006
4.60907e-006
4.60913e-006
4.60919e-006
4.60925e-006
4.60931e-006
4.60937e-006
4.60943e-006
4.60949e-006
4.60955e-006
4.60961e-006
4.60966e-006
4.60972e-006
4.60978e-006
4.60984e-006
4.6099e-006
4.60996e-006
4.61002e-006
4.61009e-006
4.61015e-006
4.61021e-006
4.61027e-006
4.61033e-006
4.61038e-006
4.61043e-006
4.61048e-006
4.61053e-006
4.61058e-006
4.61062e-006
4.61067e-006
4.61071e-006
4.61075e-006
4.61079e-006
4.61083e-006
4.61086e-006
4.6109e-006
4.61093e-006
4.61097e-006
4.611e-006
4.61103e-006
4.61106e-006
4.61109e-006
4.61111e-006
4.61114e-006
4.61117e-006
4.61119e-006
4.61121e-006
4.61123e-006
4.61125e-006
4.61127e-006
4.61128e-006
4.61128e-006
4.61127e-006
4.61126e-006
4.61124e-006
4.61123e-006
4.61121e-006
4.61119e-006
4.61117e-006
4.61115e-006
4.61112e-006
4.61109e-006
4.61106e-006
4.61103e-006
4.611e-006
4.61097e-006
4.61094e-006
4.61091e-006
4.61089e-006
4.61086e-006
4.61084e-006
4.61081e-006
4.61079e-006
4.61077e-006
4.61073e-006
4.61068e-006
4.61062e-006
4.61055e-006
4.6105e-006
4.61044e-006
4.61043e-006
4.61044e-006
4.61047e-006
4.6105e-006
4.61054e-006
4.61057e-006
4.61059e-006
4.61062e-006
4.61064e-006
4.61064e-006
4.61075e-006
4.61068e-006
4.6109e-006
4.61086e-006
4.61102e-006
4.61157e-006
4.61111e-006
4.6121e-006
4.61641e-006
4.54128e-006
4.72692e-006
7.23986e-007
7.2403e-007
7.24064e-007
7.24096e-007
7.24128e-007
7.24159e-007
7.24188e-007
7.24217e-007
7.24246e-007
7.24273e-007
7.243e-007
7.24327e-007
7.24354e-007
7.24379e-007
7.24406e-007
7.24431e-007
7.24457e-007
7.24484e-007
7.2451e-007
7.24536e-007
7.24562e-007
7.24589e-007
7.24615e-007
7.24642e-007
7.24669e-007
7.24696e-007
7.24723e-007
7.2475e-007
7.24778e-007
7.24805e-007
7.24833e-007
7.2486e-007
7.24888e-007
7.24915e-007
7.24944e-007
7.24972e-007
7.25002e-007
7.25031e-007
7.25061e-007
7.25091e-007
7.25122e-007
7.25152e-007
7.25183e-007
7.25214e-007
7.25245e-007
7.25276e-007
7.25307e-007
7.25338e-007
7.25369e-007
7.254e-007
7.25432e-007
7.25463e-007
7.25494e-007
7.25525e-007
7.25555e-007
7.25586e-007
7.25615e-007
7.25644e-007
7.25673e-007
7.257e-007
7.25725e-007
7.2575e-007
7.25774e-007
7.25798e-007
7.25821e-007
7.25845e-007
7.25868e-007
7.2589e-007
7.25912e-007
7.25934e-007
7.25955e-007
7.25975e-007
7.25995e-007
7.26014e-007
7.26033e-007
7.2605e-007
7.26067e-007
7.26083e-007
7.26099e-007
7.26114e-007
7.26129e-007
7.26143e-007
7.26156e-007
7.26169e-007
7.26182e-007
7.26194e-007
7.26205e-007
7.26215e-007
7.26226e-007
7.26235e-007
7.26242e-007
7.26247e-007
7.26249e-007
7.26249e-007
7.26248e-007
7.26244e-007
7.26239e-007
7.26231e-007
7.26222e-007
7.26211e-007
7.26198e-007
7.26183e-007
7.26167e-007
7.26151e-007
7.26133e-007
7.26115e-007
7.26095e-007
7.26075e-007
7.26053e-007
7.26031e-007
7.26009e-007
7.25991e-007
7.25977e-007
7.25963e-007
7.25949e-007
7.25935e-007
7.25921e-007
7.25908e-007
7.25897e-007
7.25887e-007
7.25878e-007
7.25868e-007
7.25858e-007
7.25841e-007
7.25828e-007
7.25801e-007
7.25785e-007
7.25761e-007
7.25729e-007
7.25763e-007
7.2567e-007
7.25744e-007
7.25575e-007
7.2594e-007
7.28536e-007
7.27271e-007
6.20478e-007
2.64946e-006
0.000856193
2.14622e-007
2.14646e-007
2.14671e-007
2.14694e-007
2.14715e-007
2.14737e-007
2.14758e-007
2.14778e-007
2.14798e-007
2.14818e-007
2.14837e-007
2.14857e-007
2.14877e-007
2.14896e-007
2.14916e-007
2.14936e-007
2.14956e-007
2.14976e-007
2.14996e-007
2.15017e-007
2.15037e-007
2.15058e-007
2.15079e-007
2.151e-007
2.15122e-007
2.15143e-007
2.15165e-007
2.15187e-007
2.15209e-007
2.15231e-007
2.15253e-007
2.15275e-007
2.15298e-007
2.1532e-007
2.15343e-007
2.15365e-007
2.15387e-007
2.1541e-007
2.15432e-007
2.15454e-007
2.15476e-007
2.15498e-007
2.1552e-007
2.15542e-007
2.15564e-007
2.15586e-007
2.15607e-007
2.15628e-007
2.1565e-007
2.15671e-007
2.15691e-007
2.15712e-007
2.15732e-007
2.15752e-007
2.15772e-007
2.15792e-007
2.15811e-007
2.1583e-007
2.15849e-007
2.15868e-007
2.15886e-007
2.15904e-007
2.15922e-007
2.15939e-007
2.15956e-007
2.15973e-007
2.1599e-007
2.16006e-007
2.16022e-007
2.16037e-007
2.16052e-007
2.16067e-007
2.16082e-007
2.16096e-007
2.1611e-007
2.16123e-007
2.16136e-007
2.16148e-007
2.1616e-007
2.16172e-007
2.16183e-007
2.16194e-007
2.16204e-007
2.16214e-007
2.16223e-007
2.16231e-007
2.16239e-007
2.16246e-007
2.16253e-007
2.16261e-007
2.16269e-007
2.16277e-007
2.16283e-007
2.16289e-007
2.16295e-007
2.16299e-007
2.16303e-007
2.16306e-007
2.16308e-007
2.16309e-007
2.16309e-007
2.16308e-007
2.16306e-007
2.16304e-007
2.16301e-007
2.16297e-007
2.16293e-007
2.16287e-007
2.16281e-007
2.16274e-007
2.16265e-007
2.16257e-007
2.1625e-007
2.16245e-007
2.16238e-007
2.1623e-007
2.16222e-007
2.16213e-007
2.16201e-007
2.16189e-007
2.16175e-007
2.16158e-007
2.1614e-007
2.16117e-007
2.16092e-007
2.16066e-007
2.1602e-007
2.16008e-007
2.15948e-007
2.15942e-007
2.15917e-007
2.15835e-007
2.16202e-007
2.1498e-007
1.82844e-007
1.98005e-007
7.25916e-006
0.00134581
0.031365
8.90164e-008
8.90485e-008
8.90697e-008
8.90881e-008
8.91075e-008
8.91247e-008
8.91421e-008
8.91608e-008
8.91788e-008
8.9197e-008
8.92156e-008
8.92347e-008
8.92539e-008
8.92735e-008
8.92933e-008
8.93137e-008
8.93345e-008
8.93554e-008
8.93773e-008
8.93991e-008
8.94215e-008
8.94439e-008
8.94669e-008
8.94903e-008
8.95138e-008
8.95375e-008
8.95616e-008
8.95858e-008
8.96103e-008
8.96349e-008
8.96599e-008
8.96849e-008
8.971e-008
8.97352e-008
8.97608e-008
8.97866e-008
8.98123e-008
8.98382e-008
8.98639e-008
8.98896e-008
8.99155e-008
8.99412e-008
8.99667e-008
8.99922e-008
9.00177e-008
9.00428e-008
9.0068e-008
9.00931e-008
9.01183e-008
9.0143e-008
9.01674e-008
9.01918e-008
9.02161e-008
9.02402e-008
9.02639e-008
9.02873e-008
9.03104e-008
9.03334e-008
9.03562e-008
9.03787e-008
9.0401e-008
9.04233e-008
9.0445e-008
9.04665e-008
9.04881e-008
9.05088e-008
9.05294e-008
9.05496e-008
9.05694e-008
9.05889e-008
9.06079e-008
9.06269e-008
9.06454e-008
9.06634e-008
9.06811e-008
9.06985e-008
9.07154e-008
9.0732e-008
9.0748e-008
9.07638e-008
9.07791e-008
9.07941e-008
9.08087e-008
9.08229e-008
9.08367e-008
9.08498e-008
9.08624e-008
9.08746e-008
9.08863e-008
9.0898e-008
9.09094e-008
9.09205e-008
9.09313e-008
9.09417e-008
9.09515e-008
9.09609e-008
9.09698e-008
9.09782e-008
9.09861e-008
9.09932e-008
9.09998e-008
9.10056e-008
9.10109e-008
9.10151e-008
9.10192e-008
9.10226e-008
9.10254e-008
9.10264e-008
9.10275e-008
9.10278e-008
9.10268e-008
9.10246e-008
9.10219e-008
9.10189e-008
9.1015e-008
9.10101e-008
9.10043e-008
9.09977e-008
9.09901e-008
9.09812e-008
9.09708e-008
9.09585e-008
9.09443e-008
9.09266e-008
9.09054e-008
9.08835e-008
9.08515e-008
9.08277e-008
9.08036e-008
9.07479e-008
9.07968e-008
9.05049e-008
8.8041e-008
8.98416e-008
3.35078e-007
2.02795e-005
0.00154417
0.0326316
0.167348
8.76937e-008
8.76007e-008
8.75647e-008
8.75479e-008
8.75308e-008
8.75107e-008
8.74882e-008
8.74641e-008
8.74375e-008
8.74104e-008
8.73813e-008
8.73509e-008
8.7319e-008
8.7286e-008
8.72521e-008
8.7217e-008
8.71801e-008
8.71433e-008
8.71048e-008
8.70642e-008
8.7023e-008
8.69825e-008
8.6941e-008
8.68987e-008
8.68559e-008
8.68131e-008
8.67696e-008
8.67268e-008
8.66816e-008
8.6637e-008
8.6592e-008
8.65475e-008
8.65023e-008
8.64574e-008
8.64116e-008
8.63662e-008
8.63204e-008
8.62745e-008
8.62299e-008
8.6185e-008
8.61396e-008
8.60952e-008
8.60507e-008
8.60064e-008
8.59618e-008
8.59185e-008
8.5875e-008
8.58318e-008
8.5788e-008
8.57458e-008
8.57042e-008
8.56627e-008
8.56219e-008
8.55799e-008
8.55395e-008
8.55e-008
8.54612e-008
8.54227e-008
8.53846e-008
8.53474e-008
8.53108e-008
8.52744e-008
8.52386e-008
8.52035e-008
8.51675e-008
8.51339e-008
8.51003e-008
8.50674e-008
8.50348e-008
8.50029e-008
8.49722e-008
8.49413e-008
8.49096e-008
8.488e-008
8.4851e-008
8.48224e-008
8.47945e-008
8.47672e-008
8.47413e-008
8.47152e-008
8.46894e-008
8.46641e-008
8.46391e-008
8.46141e-008
8.45904e-008
8.45663e-008
8.45439e-008
8.45217e-008
8.45008e-008
8.44801e-008
8.44597e-008
8.44399e-008
8.44208e-008
8.44021e-008
8.43844e-008
8.43672e-008
8.43503e-008
8.43342e-008
8.43184e-008
8.43033e-008
8.42886e-008
8.42744e-008
8.42609e-008
8.42487e-008
8.42351e-008
8.42227e-008
8.42114e-008
8.42002e-008
8.41899e-008
8.41802e-008
8.4171e-008
8.41625e-008
8.41547e-008
8.41472e-008
8.414e-008
8.41328e-008
8.4126e-008
8.41192e-008
8.41122e-008
8.41055e-008
8.40995e-008