/*--------------------------------*- C++ -*----------------------------------*\
| =========                 |                                                 |
| \\      /  F ield         | OpenFOAM: The Open Source CFD Toolbox           |
|  \\    /   O peration     | Version:  5.x                                   |
|   \\  /    A nd           | Web:      www.OpenFOAM.org                      |
|    \\/     M anipulation  |                                                 |
\*---------------------------------------------------------------------------*/
/*   Windows 32 and 64 bit porting by blueCAPE: http://www.bluecape.com.pt   *\
|  Based on Windows porting (2.0.x v4) by Symscape: http://www.symscape.com   |
\*---------------------------------------------------------------------------*/
FoamFile
{
    version     2.0;
    format      ascii;
    class       volScalarField;
    location    "120";
    object      p;
}
// * * * * * * * * * * * * * * * * * * * * * * * * * * * * * * * * * * * * * //

dimensions      [0 2 -2 0 0 0 0];

internalField   nonuniform List<scalar> 
43900
(
0.425613
0.425352
0.425242
0.425112
0.424939
0.424676
0.42451
0.424181
0.423929
0.423633
0.423312
0.422996
0.422662
0.422318
0.421966
0.421605
0.421236
0.420861
0.420479
0.42009
0.419696
0.419296
0.418892
0.418482
0.418067
0.417649
0.417226
0.416798
0.416367
0.423762
0.43122
0.425584
0.428591
0.42634
0.427026
0.426214
0.426015
0.425649
0.425244
0.424874
0.424481
0.424083
0.423685
0.423284
0.42288
0.422472
0.422061
0.421647
0.42123
0.42081
0.420386
0.419959
0.419529
0.419097
0.418661
0.418222
0.41778
0.417335
0.417722
0.438354
0.427311
0.433808
0.42844
0.431201
0.428707
0.429172
0.428088
0.427715
0.427189
0.426674
0.426184
0.425703
0.425229
0.424759
0.424294
0.423832
0.423371
0.422912
0.422454
0.421996
0.421537
0.421077
0.420616
0.420154
0.41969
0.419224
0.418755
0.412422
0.438493
0.432223
0.432129
0.431655
0.431272
0.430069
0.430125
0.429258
0.42894
0.428361
0.427854
0.427351
0.426847
0.426346
0.425848
0.425352
0.424858
0.424366
0.423875
0.423384
0.422894
0.422404
0.421913
0.421421
0.420928
0.420433
0.419937
0.419439
0.413376
0.436373
0.431432
0.430737
0.430801
0.430466
0.430237
0.429988
0.429491
0.429192
0.428754
0.428353
0.427935
0.427506
0.427068
0.426622
0.426168
0.425708
0.425241
0.424769
0.424292
0.423809
0.423323
0.422831
0.422336
0.421836
0.421331
0.420823
0.420311
0.417937
0.435226
0.432185
0.431946
0.431868
0.431438
0.431239
0.431016
0.430756
0.430514
0.430218
0.429927
0.429621
0.4293
0.428962
0.42861
0.428243
0.427862
0.427468
0.42706
0.42664
0.426209
0.425766
0.425313
0.424849
0.424376
0.423892
0.4234
0.422898
0.42375
0.43684
0.434978
0.434552
0.434554
0.434433
0.434201
0.433873
0.433621
0.433408
0.433167
0.43292
0.43266
0.432384
0.432092
0.431785
0.431462
0.431125
0.430772
0.430403
0.43002
0.429622
0.429209
0.428781
0.428339
0.427884
0.427414
0.426932
0.426436
0.430495
0.439593
0.438569
0.438098
0.437979
0.437874
0.437699
0.437417
0.437152
0.436876
0.436602
0.436333
0.436051
0.435752
0.435438
0.435107
0.434761
0.434398
0.434019
0.433624
0.433213
0.432786
0.432343
0.431884
0.43141
0.430921
0.430417
0.429897
0.429363
0.439038
0.443896
0.443455
0.442992
0.442721
0.442488
0.442232
0.441942
0.441608
0.441228
0.440867
0.440544
0.440214
0.439867
0.439502
0.439119
0.438718
0.438299
0.437862
0.437407
0.436935
0.436445
0.435938
0.435413
0.434872
0.434313
0.433738
0.433147
0.432539
0.447645
0.450561
0.450282
0.449825
0.44948
0.449166
0.448831
0.448465
0.448069
0.447648
0.447222
0.446846
0.446488
0.446111
0.44571
0.445285
0.444836
0.444363
0.443868
0.443351
0.442811
0.44225
0.441668
0.441065
0.440442
0.439799
0.439137
0.438455
0.437755
0.457012
0.458931
0.458693
0.458252
0.457879
0.457525
0.457148
0.456739
0.456297
0.455837
0.45538
0.454963
0.454592
0.454205
0.453786
0.453335
0.452851
0.452337
0.451792
0.451217
0.450614
0.449983
0.449324
0.448639
0.447928
0.447192
0.446431
0.445647
0.444839
0.46738
0.468282
0.468028
0.467606
0.467207
0.466804
0.466367
0.465886
0.465361
0.464803
0.464253
0.463754
0.463317
0.462871
0.46239
0.461873
0.461319
0.460731
0.460108
0.459452
0.458762
0.458039
0.457285
0.4565
0.455685
0.45484
0.453967
0.453065
0.452136
0.478539
0.478811
0.478483
0.478038
0.477589
0.477118
0.4766
0.476024
0.475386
0.474693
0.473998
0.473363
0.472799
0.472234
0.471632
0.470992
0.470313
0.469596
0.468843
0.468052
0.467226
0.466364
0.465467
0.464537
0.463572
0.462576
0.461547
0.460487
0.459398
0.490658
0.490624
0.49021
0.489714
0.4892
0.488652
0.488051
0.487383
0.486638
0.48582
0.484988
0.484219
0.483533
0.48284
0.482108
0.481329
0.480506
0.479641
0.47873
0.477781
0.476787
0.475755
0.474685
0.473571
0.472426
0.47124
0.470018
0.468765
0.467473
0.503845
0.503673
0.503186
0.502632
0.502051
0.501423
0.500734
0.499969
0.499118
0.498182
0.497224
0.496334
0.495524
0.494717
0.493852
0.492939
0.491972
0.490949
0.489884
0.488758
0.487593
0.48638
0.485113
0.483815
0.48246
0.481069
0.479643
0.478165
0.47666
0.518118
0.517883
0.517328
0.516705
0.516048
0.515334
0.514544
0.513665
0.512689
0.511615
0.510508
0.509476
0.508536
0.507582
0.506579
0.505504
0.50437
0.503184
0.501919
0.500619
0.499257
0.49783
0.496369
0.494831
0.493264
0.491652
0.48997
0.488271
0.486513
0.533479
0.533215
0.53259
0.531886
0.531139
0.530322
0.529416
0.528406
0.52728
0.526042
0.524768
0.523552
0.522434
0.521317
0.520121
0.518859
0.517548
0.516132
0.514669
0.513137
0.511532
0.509892
0.508151
0.506392
0.504573
0.502661
0.50075
0.498756
0.49671
0.549943
0.549668
0.548971
0.548174
0.547324
0.546393
0.545355
0.544196
0.542901
0.541467
0.539966
0.538555
0.537254
0.535933
0.534536
0.533079
0.531498
0.529867
0.528139
0.526342
0.524514
0.52255
0.520573
0.51852
0.516356
0.514204
0.511948
0.509625
0.507284
0.567477
0.5672
0.566423
0.565523
0.564557
0.563496
0.56231
0.560981
0.559491
0.55785
0.556156
0.554516
0.55298
0.551447
0.549825
0.548082
0.546283
0.544356
0.542355
0.540309
0.538107
0.535888
0.533586
0.531144
0.528719
0.526182
0.523543
0.52091
0.518182
0.586044
0.585768
0.584907
0.583896
0.582807
0.581606
0.580262
0.578755
0.577071
0.575199
0.573216
0.571324
0.569564
0.567788
0.565885
0.563888
0.561759
0.559545
0.557274
0.554833
0.552352
0.549799
0.547058
0.544338
0.541521
0.53854
0.535599
0.532541
0.529365
0.605569
0.605297
0.604344
0.603212
0.601986
0.60063
0.599106
0.59739
0.595458
0.593314
0.591073
0.58892
0.586908
0.584832
0.582633
0.58031
0.577869
0.575396
0.572696
0.569915
0.567114
0.564059
0.561016
0.55792
0.554551
0.551258
0.547859
0.544256
0.540746
0.625947
0.625683
0.624633
0.62337
0.621999
0.620475
0.618759
0.616826
0.614662
0.612266
0.609725
0.607214
0.604864
0.602513
0.599978
0.597294
0.594623
0.591641
0.588531
0.585496
0.582105
0.578695
0.575317
0.571524
0.567851
0.56415
0.560086
0.556162
0.552112
0.647095
0.646841
0.645691
0.644294
0.64277
0.641072
0.639157
0.636993
0.634551
0.631824
0.628936
0.626108
0.623405
0.620701
0.617809
0.614883
0.61162
0.608198
0.60497
0.601197
0.597363
0.593689
0.589497
0.585456
0.581426
0.576876
0.572477
0.568025
0.563268
0.668858
0.668617
0.667362
0.665824
0.664137
0.66225
0.66011
0.657687
0.654957
0.651914
0.648673
0.64547
0.642403
0.639295
0.636108
0.632583
0.62895
0.625433
0.621269
0.617092
0.613086
0.608527
0.60403
0.599467
0.594508
0.589698
0.584723
0.579474
0.57434
0.691095
0.69087
0.689511
0.687829
0.685978
0.6839
0.681541
0.678867
0.675849
0.672494
0.668897
0.665231
0.661782
0.658297
0.654471
0.650667
0.646785
0.642287
0.63784
0.633421
0.628561
0.623556
0.61843
0.613135
0.607812
0.602275
0.596575
0.590897
0.585103
0.713658
0.713449
0.711989
0.710169
0.708157
0.70589
0.703308
0.700373
0.69705
0.693306
0.689265
0.685311
0.681286
0.677296
0.673364
0.668976
0.664269
0.659572
0.654557
0.649373
0.644065
0.638424
0.632728
0.626807
0.620737
0.614596
0.608318
0.601871
0.595168
0.73633
0.736135
0.734573
0.732612
0.730432
0.727964
0.725141
0.72192
0.718269
0.714184
0.70978
0.705179
0.700965
0.696694
0.691912
0.687083
0.682103
0.67664
0.671118
0.665392
0.659312
0.653131
0.646673
0.640081
0.633405
0.626461
0.61939
0.61212
0.604847
0.758964
0.758783
0.75713
0.755042
0.752712
0.750063
0.747027
0.743559
0.739619
0.735186
0.730316
0.725473
0.720588
0.715561
0.710606
0.705336
0.699507
0.693696
0.687411
0.680963
0.674472
0.667427
0.660331
0.653107
0.645431
0.63778
0.62999
0.622007
0.613932
0.781338
0.781166
0.779429
0.777224
0.774752
0.77193
0.768685
0.764969
0.760739
0.755965
0.750804
0.745304
0.739861
0.734636
0.729011
0.723012
0.717006
0.710293
0.703492
0.696488
0.688941
0.681464
0.6736
0.665337
0.657016
0.648627
0.639897
0.630968
0.621984
0.80327
0.8031
0.801289
0.798983
0.796383
0.793402
0.789961
0.78601
0.781504
0.776386
0.770656
0.76484
0.759066
0.753178
0.747121
0.740753
0.733737
0.726653
0.719152
0.711269
0.703319
0.694921
0.686133
0.677143
0.668107
0.658567
0.64887
0.639324
0.629283
0.824566
0.824387
0.822514
0.820121
0.817408
0.814282
0.810659
0.806482
0.801701
0.796296
0.790367
0.784047
0.777792
0.771416
0.764616
0.757674
0.750512
0.742565
0.734326
0.725683
0.716922
0.707867
0.698178
0.688288
0.678106
0.667755
0.657383
0.646457
0.635363
0.845068
0.844868
0.842948
0.840494
0.837696
0.834458
0.830695
0.826355
0.82138
0.815718
0.809383
0.802728
0.795782
0.788881
0.782024
0.774673
0.766364
0.757701
0.748936
0.739777
0.729982
0.719829
0.709438
0.698695
0.687576
0.676134
0.664453
0.652563
0.64056
0.864618
0.864382
0.86243
0.859933
0.85707
0.853739
0.849853
0.84535
0.840174
0.834258
0.827644
0.82046
0.813386
0.806342
0.798451
0.790108
0.781794
0.772849
0.763048
0.752765
0.742341
0.731488
0.720083
0.70823
0.695937
0.683475
0.670727
0.657633
0.644314
0.883089
0.8828
0.88083
0.878314
0.875409
0.872012
0.868035
0.863418
0.858097
0.852006
0.845127
0.837904
0.83023
0.822173
0.814179
0.805872
0.796824
0.786767
0.776287
0.76567
0.754099
0.742052
0.729763
0.716879
0.703645
0.689877
0.675758
0.661447
0.646947
0.900389
0.900028
0.898058
0.895546
0.892628
0.889198
0.885169
0.880479
0.875062
0.868848
0.861823
0.853981
0.846168
0.838181
0.829688
0.820541
0.810653
0.800201
0.789248
0.777494
0.765153
0.752063
0.738615
0.724763
0.710052
0.695029
0.679726
0.664073
0.648086
0.916443
0.915992
0.914033
0.911547
0.908637
0.905197
0.901143
0.896414
0.890938
0.884622
0.877447
0.869755
0.861564
0.853078
0.84405
0.834311
0.824002
0.813178
0.801414
0.788685
0.775287
0.761449
0.746694
0.731247
0.715516
0.699256
0.682464
0.665176
0.647593
0.931212
0.930655
0.928723
0.926284
0.923407
0.919988
0.915948
0.911226
0.905762
0.899463
0.892232
0.884249
0.875814
0.866992
0.857738
0.847963
0.837078
0.825106
0.812409
0.79909
0.78493
0.769713
0.753812
0.737227
0.719936
0.702061
0.683568
0.664825
0.6456
0.944682
0.944007
0.942114
0.93974
0.936918
0.933545
0.929548
0.924868
0.91943
0.913143
0.905944
0.897923
0.88945
0.880602
0.870934
0.860331
0.848873
0.836497
0.823201
0.808889
0.793526
0.777346
0.759985
0.741937
0.72312
0.703456
0.683473
0.662945
0.641978
0.956862
0.956063
0.954221
0.95193
0.94918
0.945877
0.941954
0.937352
0.932002
0.925805
0.91866
0.910749
0.90217
0.892906
0.883155
0.872432
0.860392
0.847336
0.833205
0.817717
0.801234
0.78381
0.765473
0.745691
0.725027
0.703794
0.681881
0.659239
0.636082
0.967788
0.966859
0.965083
0.962888
0.960229
0.957018
0.953199
0.948715
0.943487
0.937408
0.930435
0.922532
0.91401
0.904878
0.894828
0.883475
0.871182
0.857413
0.842214
0.825908
0.808502
0.789719
0.769523
0.748336
0.725876
0.702552
0.678533
0.653736
0.628511
0.977515
0.976448
0.974753
0.97267
0.970116
0.96702
0.963333
0.958999
0.953945
0.948055
0.94121
0.933564
0.925103
0.915854
0.905519
0.893996
0.88108
0.866845
0.850954
0.833514
0.814743
0.794454
0.772697
0.74974
0.725655
0.700028
0.673581
0.646433
0.618701
0.986105
0.984897
0.9833
0.981342
0.978908
0.975946
0.972418
0.96827
0.96342
0.957752
0.951152
0.943682
0.935338
0.926144
0.915586
0.903754
0.890345
0.875255
0.858732
0.840361
0.820165
0.798413
0.775197
0.750244
0.723737
0.696002
0.66703
0.637289
0.606639
0.993632
0.992286
0.990807
0.988981
0.986679
0.983871
0.980529
0.976599
0.971993
0.966607
0.960268
0.953013
0.944864
0.935495
0.924845
0.912658
0.89874
0.883188
0.865595
0.846352
0.825026
0.801645
0.776598
0.749541
0.720657
0.690301
0.658726
0.625913
0.592289
1.00017
0.998697
0.997356
0.99567
0.99351
0.990876
0.987745
0.984063
0.979737
0.974582
0.968578
0.961514
0.953453
0.944139
0.933357
0.920796
0.906468
0.89016
0.871922
0.851403
0.828988
0.804121
0.777077
0.747827
0.716528
0.68344
0.648503
0.612412
0.575242
1.0058
1.00421
1.00303
1.00149
0.999483
0.997041
0.994146
0.990729
0.986675
0.981866
0.976036
0.969319
0.961324
0.951941
0.940945
0.928113
0.913261
0.896323
0.877409
0.855993
0.832022
0.805835
0.776697
0.74528
0.711291
0.674964
0.636667
0.596518
0.555747
1.01059
1.00893
1.00793
1.00652
1.00468
1.00245
0.999806
0.996674
0.992934
0.988352
0.982902
0.976232
0.968318
0.958892
0.947633
0.934488
0.919318
0.901986
0.882018
0.859729
0.834648
0.806611
0.775698
0.741742
0.704919
0.665036
0.622939
0.578684
0.53304
1.01463
1.01292
1.01211
1.01084
1.00917
1.00717
1.0048
1.00197
0.998485
0.994235
0.988895
0.982368
0.974452
0.964838
0.95347
0.940159
0.92448
0.906744
0.886118
0.862875
0.836638
0.806936
0.773908
0.737345
0.697449
0.654045
0.607437
0.558337
0.507506
1.01798
1.01628
1.01567
1.01452
1.01303
1.01128
1.00919
1.00663
1.00344
0.999319
0.994171
0.987641
0.979688
0.969978
0.958457
0.944929
0.928961
0.910787
0.889584
0.865504
0.838078
0.806813
0.771817
0.732406
0.689169
0.641634
0.590297
0.535396
0.478469
1.0207
1.01909
1.01865
1.01761
1.01633
1.01484
1.01303
1.01073
1.00768
1.0038
0.99857
0.992191
0.984076
0.974234
0.962772
0.948885
0.932754
0.914167
0.892445
0.867554
0.839092
0.806415
0.769348
0.727335
0.680183
0.628146
0.571174
0.510137
0.445652
1.02285
1.02142
1.02111
1.02018
1.01912
1.0179
1.01632
1.01421
1.01137
1.00743
1.00238
0.99581
0.987742
0.977873
0.966306
0.952147
0.935954
0.916939
0.894631
0.86927
0.839794
0.805839
0.766686
0.722023
0.670954
0.613765
0.550663
0.481852
0.409187
1.02451
1.02331
1.02308
1.02227
1.02147
1.02046
1.0191
1.01713
1.01434
1.01049
1.00539
0.998838
0.990732
0.980842
0.969161
0.954789
0.938509
0.919136
0.896462
0.870623
0.840184
0.805027
0.764132
0.716714
0.661837
0.599086
0.528581
0.45109
0.367549
1.02574
1.0248
1.02461
1.02395
1.0234
1.02257
1.02136
1.01947
1.0167
1.01294
1.00771
1.0013
0.993113
0.983189
0.97141
0.956994
0.940478
0.920903
0.898102
0.871488
0.840369
0.804108
0.761693
0.711663
0.652956
0.584445
0.505588
0.416987
0.32125
1.0266
1.0259
1.02576
1.02524
1.02494
1.02422
1.02314
1.02123
1.01862
1.01476
1.00959
1.00321
0.994945
0.985064
0.973137
0.958766
0.942071
0.922211
0.899269
0.872063
0.840475
0.803119
0.759286
0.706819
0.644624
0.569992
0.482288
0.380549
0.268285
1.02715
1.02664
1.02658
1.02624
1.02612
1.02545
1.02447
1.02259
1.02003
1.01609
1.01111
1.00459
0.996415
0.986506
0.974439
0.96013
0.943231
0.923199
0.900033
0.87243
0.840334
0.80201
0.756921
0.702216
0.63687
0.556109
0.458975
0.342529
0.208932
1.02748
1.02712
1.02716
1.02697
1.02697
1.02636
1.02543
1.0236
1.02102
1.01713
1.01222
1.00557
0.997543
0.987487
0.975402
0.961112
0.944017
0.923949
0.90045
0.872576
0.83992
0.80075
0.754495
0.697759
0.629397
0.542793
0.435741
0.301299
0.142019
1.02766
1.02744
1.02754
1.02752
1.02753
1.02701
1.02609
1.02433
1.0217
1.01792
1.01293
1.00634
0.998264
0.988138
0.975906
0.961649
0.944123
0.924053
0.89984
0.87187
0.838063
0.798463
0.750191
0.692144
0.619704
0.528571
0.410003
0.254271
0.0545115
1.02776
1.02765
1.02779
1.02793
1.02783
1.02747
1.02644
1.02486
1.02205
1.01842
1.01322
1.00669
0.998406
0.988228
0.975639
0.961243
0.943193
0.92284
0.897841
0.869423
0.834456
0.79402
0.743791
0.68387
0.6076
0.511299
0.381935
0.201872
-0.0583544
1.02781
1.02776
1.02792
1.02823
1.02794
1.02781
1.02654
1.02516
1.02217
1.01853
1.01307
1.00633
0.997721
0.987233
0.974297
0.959456
0.941018
0.92015
0.894605
0.865455
0.829648
0.788076
0.736398
0.674243
0.595007
0.493185
0.356637
0.158816
-0.162525
1.02784
1.02782
1.02799
1.02828
1.02789
1.02768
1.02629
1.02477
1.0213
1.01731
1.01146
1.00434
0.99537
0.984514
0.971237
0.95607
0.937188
0.915932
0.889798
0.860206
0.823493
0.781453
0.728191
0.665701
0.582936
0.480874
0.337202
0.147909
-0.0751907
0.415855
0.415258
0.414656
0.414047
0.413433
0.412813
0.412189
0.411559
0.410925
0.410287
0.409644
0.408998
0.408347
0.407694
0.407036
0.406376
0.405713
0.405047
0.404378
0.403708
0.403034
0.402359
0.401682
0.401004
0.400323
0.399642
0.398959
0.398276
0.397592
0.396907
0.396222
0.395537
0.394852
0.394167
0.393483
0.392799
0.392116
0.391434
0.390753
0.390073
0.389396
0.38872
0.388046
0.387374
0.386705
0.386039
0.385375
0.384715
0.384058
0.383404
0.382754
0.382108
0.381467
0.380829
0.380197
0.379569
0.378946
0.378328
0.377716
0.377109
0.376508
0.375913
0.375324
0.374741
0.374165
0.373595
0.373032
0.372476
0.371928
0.371387
0.370853
0.370327
0.369809
0.369298
0.368796
0.368303
0.367817
0.367341
0.366873
0.366414
0.365964
0.365524
0.365092
0.36467
0.364258
0.363855
0.363462
0.363079
0.362706
0.362343
0.36199
0.361648
0.361316
0.360995
0.360684
0.360383
0.360093
0.359814
0.359546
0.359288
0.359041
0.358805
0.358579
0.358365
0.358161
0.357968
0.357785
0.357613
0.357451
0.3573
0.357159
0.357028
0.356907
0.356795
0.356693
0.356601
0.356518
0.356444
0.356379
0.356324
0.356279
0.356241
0.356212
0.35619
0.356175
0.356167
0.356163
0.35617
0.356178
0.356197
0.356219
0.356249
0.356285
0.356321
0.356372
0.35641
0.356495
0.35651
0.35668
0.416808
0.416196
0.415579
0.414957
0.41433
0.413698
0.413061
0.41242
0.411774
0.411123
0.410467
0.409808
0.409144
0.408476
0.407804
0.407128
0.406449
0.405767
0.405081
0.404392
0.4037
0.403006
0.40231
0.401611
0.400911
0.400208
0.399504
0.398799
0.398093
0.397386
0.396678
0.39597
0.395262
0.394554
0.393846
0.393139
0.392433
0.391728
0.391024
0.390322
0.389621
0.388923
0.388227
0.387533
0.386842
0.386153
0.385468
0.384786
0.384108
0.383433
0.382762
0.382095
0.381433
0.380775
0.380122
0.379473
0.37883
0.378192
0.37756
0.376933
0.376312
0.375697
0.375089
0.374487
0.373892
0.373304
0.372722
0.372149
0.371582
0.371023
0.370472
0.369929
0.369394
0.368867
0.368349
0.367839
0.367338
0.366845
0.366362
0.365888
0.365423
0.364968
0.364522
0.364086
0.363659
0.363243
0.362837
0.36244
0.362054
0.361679
0.361313
0.360958
0.360613
0.360279
0.359955
0.359643
0.359341
0.35905
0.35877
0.358501
0.358243
0.357996
0.357761
0.357537
0.357324
0.357122
0.356932
0.356753
0.356585
0.356429
0.356285
0.356152
0.356031
0.355921
0.355823
0.355736
0.35566
0.355596
0.355542
0.355499
0.355465
0.355442
0.355428
0.355421
0.355428
0.355433
0.355459
0.355474
0.355512
0.355538
0.355572
0.355608
0.355647
0.355676
0.355728
0.355724
0.355735
0.355713
0.35569
0.418201
0.417559
0.416913
0.416262
0.415607
0.414947
0.414282
0.413613
0.412939
0.412261
0.411579
0.410892
0.4102
0.409505
0.408805
0.408102
0.407395
0.406684
0.405969
0.405252
0.404531
0.403807
0.40308
0.40235
0.401619
0.400885
0.400149
0.399411
0.398672
0.397931
0.39719
0.396448
0.395705
0.394962
0.394219
0.393476
0.392734
0.391992
0.39125
0.39051
0.389772
0.389035
0.3883
0.387567
0.386836
0.386108
0.385383
0.384661
0.383943
0.383228
0.382517
0.38181
0.381108
0.38041
0.379717
0.379029
0.378347
0.377671
0.377
0.376335
0.375677
0.375025
0.37438
0.373741
0.37311
0.372486
0.37187
0.371261
0.37066
0.370067
0.369483
0.368907
0.368339
0.367781
0.367231
0.366691
0.36616
0.365638
0.365126
0.364624
0.364132
0.363649
0.363177
0.362715
0.362263
0.361822
0.361391
0.360972
0.360562
0.360164
0.359778
0.359402
0.359038
0.358686
0.358345
0.358016
0.357699
0.357394
0.357102
0.356821
0.356553
0.356297
0.356054
0.355823
0.355605
0.3554
0.355208
0.355028
0.354862
0.354709
0.35457
0.354443
0.354329
0.35423
0.354143
0.354071
0.354011
0.353965
0.353931
0.35391
0.353902
0.353907
0.353926
0.353957
0.354003
0.354061
0.354128
0.354222
0.354307
0.354421
0.354538
0.354654
0.354774
0.354943
0.354903
0.355386
0.354993
0.356171
0.354765
0.418849
0.418166
0.417478
0.416785
0.416087
0.415384
0.414675
0.413962
0.413243
0.412518
0.411789
0.411054
0.410314
0.40957
0.408821
0.408067
0.407309
0.406548
0.405782
0.405012
0.404239
0.403463
0.402684
0.401902
0.401117
0.40033
0.399541
0.39875
0.397957
0.397163
0.396368
0.395572
0.394775
0.393978
0.393181
0.392384
0.391588
0.390792
0.389998
0.389204
0.388413
0.387623
0.386836
0.386051
0.385269
0.38449
0.383714
0.382942
0.382173
0.381409
0.38065
0.379895
0.379145
0.3784
0.377661
0.376927
0.376199
0.375478
0.374763
0.374055
0.373354
0.37266
0.371973
0.371294
0.370623
0.36996
0.369305
0.368659
0.368022
0.367393
0.366774
0.366164
0.365563
0.364972
0.364391
0.36382
0.363259
0.362709
0.362169
0.361641
0.361123
0.360616
0.360121
0.359637
0.359165
0.358704
0.358256
0.35782
0.357396
0.356985
0.356587
0.356202
0.35583
0.355471
0.355125
0.354793
0.354474
0.354169
0.353877
0.3536
0.353336
0.353087
0.352852
0.352632
0.352426
0.352234
0.352058
0.351896
0.351749
0.351618
0.351502
0.351402
0.351317
0.351248
0.351194
0.351157
0.351136
0.351131
0.351143
0.351171
0.351219
0.351283
0.351366
0.351474
0.351586
0.351739
0.351899
0.352081
0.352313
0.352541
0.352754
0.35324
0.353013
0.354316
0.352961
0.356059
0.352482
0.359062
0.350675
0.419702
0.418993
0.418277
0.417553
0.416821
0.416082
0.415335
0.41458
0.413818
0.413049
0.412272
0.411488
0.410697
0.4099
0.409096
0.408286
0.40747
0.406648
0.40582
0.404988
0.40415
0.403308
0.402462
0.401611
0.400757
0.3999
0.39904
0.398178
0.397313
0.396447
0.395579
0.394711
0.393841
0.392972
0.392102
0.391233
0.390365
0.389497
0.388631
0.387767
0.386905
0.386045
0.385189
0.384335
0.383484
0.382638
0.381795
0.380957
0.380123
0.379294
0.37847
0.377652
0.37684
0.376033
0.375233
0.37444
0.373653
0.372874
0.372102
0.371337
0.370581
0.369833
0.369093
0.368362
0.36764
0.366927
0.366223
0.365529
0.364844
0.364169
0.363505
0.36285
0.362207
0.361574
0.360951
0.36034
0.359741
0.359152
0.358576
0.358011
0.357458
0.356918
0.356389
0.355874
0.35537
0.35488
0.354403
0.35394
0.353489
0.353053
0.352629
0.35222
0.351824
0.351442
0.351075
0.350722
0.350383
0.35006
0.349751
0.349457
0.349178
0.348915
0.348667
0.348435
0.348219
0.348019
0.347836
0.347669
0.347519
0.347387
0.347272
0.347176
0.347097
0.347038
0.346998
0.346979
0.34698
0.347002
0.347046
0.347114
0.347203
0.347321
0.34746
0.347631
0.347831
0.348043
0.34833
0.348608
0.34889
0.349476
0.349336
0.350921
0.349518
0.353307
0.349103
0.35687
0.347141
0.361792
0.338001
0.422297
0.421591
0.42087
0.420136
0.419388
0.418628
0.417855
0.41707
0.416274
0.415467
0.414649
0.413822
0.412985
0.412138
0.411283
0.410419
0.409547
0.408667
0.40778
0.406885
0.405984
0.405077
0.404164
0.403246
0.402323
0.401395
0.400463
0.399528
0.398589
0.397648
0.396704
0.395758
0.394811
0.393862
0.392913
0.391963
0.391013
0.390064
0.389116
0.388169
0.387223
0.38628
0.385339
0.384402
0.383467
0.382536
0.38161
0.380688
0.37977
0.378858
0.377951
0.37705
0.376155
0.375267
0.374386
0.373512
0.372645
0.371787
0.370936
0.370094
0.36926
0.368435
0.367619
0.366813
0.366016
0.36523
0.364453
0.363687
0.362932
0.362188
0.361454
0.360732
0.360022
0.359323
0.358636
0.357962
0.357299
0.356649
0.356012
0.355388
0.354777
0.354178
0.353593
0.353021
0.352463
0.351918
0.351387
0.35087
0.350367
0.349878
0.349403
0.348943
0.348498
0.348068
0.347652
0.347252
0.346867
0.346498
0.346144
0.345807
0.345486
0.345181
0.344893
0.344621
0.344367
0.34413
0.343911
0.34371
0.343527
0.343362
0.343217
0.34309
0.342984
0.342898
0.342833
0.342789
0.342767
0.342768
0.342792
0.342841
0.342913
0.343012
0.343135
0.343281
0.343468
0.343662
0.343884
0.344233
0.344268
0.345087
0.344575
0.346245
0.344837
0.347583
0.345313
0.348906
0.344772
0.35569
0.323925
0.425838
0.425128
0.424397
0.423644
0.422872
0.42208
0.42127
0.420442
0.419598
0.418738
0.417862
0.416971
0.416067
0.41515
0.41422
0.413279
0.412326
0.411363
0.41039
0.409408
0.408418
0.407419
0.406413
0.405401
0.404382
0.403357
0.402328
0.401293
0.400255
0.399213
0.398168
0.39712
0.39607
0.395019
0.393967
0.392915
0.391863
0.390812
0.389763
0.388714
0.387668
0.386625
0.385585
0.384549
0.383516
0.382488
0.381465
0.380448
0.379436
0.37843
0.377431
0.376438
0.375453
0.374476
0.373506
0.372544
0.371592
0.370647
0.369713
0.368787
0.367871
0.366966
0.36607
0.365185
0.364311
0.363448
0.362597
0.361757
0.360929
0.360113
0.35931
0.358519
0.35774
0.356975
0.356222
0.355483
0.354757
0.354045
0.353346
0.352662
0.351991
0.351335
0.350693
0.350066
0.349454
0.348856
0.348273
0.347705
0.347152
0.346614
0.346092
0.345585
0.345094
0.344619
0.344159
0.343715
0.343288
0.342876
0.342481
0.342103
0.341741
0.341395
0.341067
0.340756
0.340462
0.340186
0.339927
0.339685
0.339462
0.339257
0.339069
0.3389
0.33875
0.338618
0.338504
0.338409
0.338333
0.338275
0.338236
0.338212
0.338224
0.338232
0.338271
0.338316
0.338376
0.338489
0.33849
0.338777
0.338596
0.339153
0.338734
0.339521
0.339029
0.339672
0.339879
0.339852
0.340094
0.346831
0.315401
0.428718
0.427949
0.427155
0.426336
0.425493
0.424628
0.42374
0.422831
0.421902
0.420952
0.419983
0.418996
0.417992
0.416971
0.415934
0.414882
0.413817
0.412738
0.411647
0.410544
0.409431
0.408307
0.407175
0.406035
0.404887
0.403733
0.402573
0.401408
0.400239
0.399066
0.39789
0.396713
0.395534
0.394355
0.393176
0.391997
0.39082
0.389645
0.388473
0.387303
0.386137
0.384976
0.383819
0.382667
0.381521
0.380381
0.379248
0.378123
0.377004
0.375894
0.374792
0.373699
0.372615
0.37154
0.370476
0.369422
0.368379
0.367346
0.366325
0.365315
0.364318
0.363332
0.362358
0.361398
0.36045
0.359515
0.358593
0.357684
0.356789
0.355908
0.35504
0.354187
0.353348
0.352523
0.351713
0.350917
0.350137
0.349371
0.34862
0.347884
0.347164
0.34646
0.345771
0.345097
0.344439
0.343797
0.343171
0.342561
0.341967
0.341389
0.340827
0.340281
0.339752
0.339239
0.338742
0.338261
0.337797
0.337349
0.336918
0.336503
0.336105
0.335723
0.335358
0.335009
0.334677
0.334361
0.334061
0.333778
0.333511
0.33326
0.333025
0.332807
0.332604
0.332417
0.332245
0.332088
0.331946
0.331819
0.331706
0.331605
0.331523
0.331445
0.331395
0.331346
0.33128
0.331332
0.331194
0.331381
0.331158
0.331471
0.331214
0.331554
0.331449
0.331399
0.331961
0.330826
0.330135
0.336846
0.310235
0.431804
0.430928
0.430023
0.429092
0.428135
0.427152
0.426144
0.425113
0.424058
0.422982
0.421884
0.420766
0.419629
0.418473
0.417299
0.416109
0.414904
0.413684
0.41245
0.411204
0.409946
0.408678
0.4074
0.406113
0.404818
0.403517
0.402209
0.400897
0.39958
0.398261
0.396938
0.395615
0.39429
0.392966
0.391643
0.390321
0.389001
0.387684
0.386372
0.385063
0.38376
0.382462
0.381171
0.379887
0.37861
0.377341
0.376081
0.37483
0.373588
0.372357
0.371136
0.369926
0.368727
0.36754
0.366365
0.365203
0.364054
0.362917
0.361795
0.360686
0.359591
0.35851
0.357444
0.356392
0.355356
0.354335
0.353329
0.352338
0.351363
0.350404
0.349461
0.348534
0.347623
0.346728
0.34585
0.344988
0.344143
0.343315
0.342504
0.341709
0.340931
0.34017
0.339426
0.338699
0.337988
0.337295
0.336618
0.335958
0.335315
0.33469
0.334081
0.333489
0.332914
0.332355
0.331814
0.331289
0.330782
0.33029
0.329816
0.329358
0.328916
0.328491
0.328082
0.327689
0.327313
0.326952
0.326607
0.326278
0.325964
0.325666
0.325383
0.325115
0.324861
0.324623
0.324398
0.324188
0.323992
0.32381
0.323641
0.323485
0.32334
0.323232
0.323077
0.323039
0.322926
0.322937
0.322765
0.322874
0.322681
0.322862
0.322696
0.322866
0.322973
0.322664
0.323143
0.322288
0.321109
0.326485
0.306333
0.436908
0.435899
0.434859
0.433788
0.432687
0.431558
0.4304
0.429216
0.428007
0.426773
0.425516
0.424236
0.422936
0.421616
0.420278
0.418922
0.41755
0.416162
0.414759
0.413343
0.411915
0.410475
0.409025
0.407567
0.406101
0.404628
0.40315
0.401667
0.400182
0.398694
0.397204
0.395714
0.394225
0.392737
0.391251
0.389768
0.388289
0.386814
0.385346
0.383883
0.382427
0.380979
0.379539
0.378108
0.376687
0.375276
0.373876
0.372487
0.37111
0.369745
0.368393
0.367054
0.365729
0.364418
0.363121
0.36184
0.360573
0.359322
0.358086
0.356867
0.355664
0.354478
0.353308
0.352156
0.351021
0.349904
0.348804
0.347722
0.346659
0.345613
0.344585
0.343576
0.342586
0.341614
0.34066
0.339725
0.338808
0.33791
0.337031
0.33617
0.335327
0.334503
0.333698
0.33291
0.332141
0.331391
0.330659
0.329944
0.329248
0.32857
0.327911
0.327268
0.326644
0.326037
0.325448
0.324877
0.324323
0.323786
0.323267
0.322764
0.322279
0.32181
0.321358
0.320922
0.320503
0.3201
0.319714
0.319343
0.318988
0.318649
0.318325
0.318017
0.317725
0.317447
0.317185
0.316937
0.316705
0.316488
0.316285
0.316098
0.31592
0.315782
0.315592
0.315538
0.315306
0.315346
0.31517
0.3152
0.315009
0.315055
0.314945
0.314806
0.315221
0.314704
0.314474
0.313963
0.313116
0.316861
0.302759
0.443862
0.442697
0.441495
0.440255
0.43898
0.43767
0.436329
0.434957
0.433555
0.432127
0.430672
0.429193
0.42769
0.426166
0.424619
0.423054
0.42147
0.41987
0.418256
0.416629
0.414992
0.413345
0.411689
0.410026
0.408357
0.406682
0.405003
0.403321
0.401637
0.399953
0.398268
0.396585
0.394904
0.393227
0.391554
0.389887
0.388227
0.386573
0.384929
0.383293
0.381668
0.380053
0.378451
0.37686
0.375283
0.373719
0.372169
0.370634
0.369115
0.367611
0.366123
0.364653
0.363199
0.361763
0.360345
0.358945
0.357563
0.3562
0.354857
0.353532
0.352227
0.350942
0.349676
0.348431
0.347205
0.346
0.344816
0.343652
0.342508
0.341385
0.340282
0.339201
0.33814
0.337099
0.336079
0.33508
0.334101
0.333142
0.332204
0.331286
0.330389
0.329511
0.328653
0.327816
0.326998
0.3262
0.325422
0.324663
0.323924
0.323204
0.322503
0.321821
0.321158
0.320514
0.319888
0.31928
0.318691
0.31812
0.317567
0.317031
0.316513
0.316012
0.315529
0.315063
0.314613
0.31418
0.313764
0.313364
0.312981
0.312613
0.312261
0.311925
0.311605
0.311299
0.311009
0.310734
0.310474
0.310228
0.309997
0.30978
0.309573
0.309393
0.309192
0.309067
0.308854
0.308786
0.308573
0.30857
0.308266
0.30821
0.308155
0.307766
0.308026
0.307292
0.306998
0.306663
0.305712
0.308596
0.299077
0.451012
0.449671
0.448286
0.446858
0.445388
0.443878
0.442332
0.440749
0.439133
0.437484
0.435804
0.434097
0.432364
0.430609
0.428835
0.427044
0.425236
0.423412
0.421571
0.419714
0.41784
0.415953
0.414054
0.412148
0.410235
0.408319
0.4064
0.404482
0.402565