/*--------------------------------*- C++ -*----------------------------------*\
| =========                 |                                                 |
| \\      /  F ield         | OpenFOAM: The Open Source CFD Toolbox           |
|  \\    /   O peration     | Version:  5.x                                   |
|   \\  /    A nd           | Web:      www.OpenFOAM.org                      |
|    \\/     M anipulation  |                                                 |
\*---------------------------------------------------------------------------*/
/*   Windows 32 and 64 bit porting by blueCAPE: http://www.bluecape.com.pt   *\
|  Based on Windows porting (2.0.x v4) by Symscape: http://www.symscape.com   |
\*---------------------------------------------------------------------------*/
FoamFile
{
    version     2.0;
    format      ascii;
    class       surfaceScalarField;
    location    "120";
    object      phi;
}
// * * * * * * * * * * * * * * * * * * * * * * * * * * * * * * * * * * * * * //

dimensions      [0 3 -1 0 0 0 0];

internalField   nonuniform List<scalar> 
87341
(
0.357507
39.5655
0.496186
39.7844
0.489285
39.9299
0.580043
39.8323
0.618572
39.8845
0.655624
39.886
0.696379
39.8823
0.717338
39.9021
0.744918
39.8955
0.76161
39.9063
0.778239
39.9064
0.793932
39.9073
0.808763
39.9082
0.822844
39.909
0.836172
39.9097
0.848764
39.9104
0.860639
39.9112
0.87183
39.9118
0.882242
39.9126
0.891992
39.9133
0.901306
39.9137
0.910371
39.914
0.9192
39.9142
0.92781
39.9144
0.936222
39.9146
0.944464
39.9148
0.95257
39.9149
0.960576
39.915
39.9149
0.968683
0.910453
38.6551
1.28348
39.4113
1.3757
39.8377
1.54258
39.6654
1.58791
39.8392
1.75695
39.7169
1.85498
39.7843
1.99943
39.7576
2.10361
39.7913
2.21127
39.7987
2.30841
39.8093
2.39569
39.8201
2.47424
39.8297
2.54488
39.8383
2.60876
39.8458
2.66691
39.8523
2.72024
39.8578
2.76953
39.8626
2.81583
39.8663
2.85967
39.8695
2.90126
39.8721
2.94077
39.8745
2.97841
39.8766
3.0144
39.8784
3.04883
39.8802
3.0818
39.8818
3.1134
39.8833
3.14364
39.8848
39.8857
3.17288
1.93097
36.7241
3.11339
38.2289
3.75299
39.1981
3.73871
39.6797
3.86901
39.7089
3.80392
39.782
3.81895
39.7692
3.81508
39.7615
3.83601
39.7703
3.86978
39.7649
3.90539
39.7737
3.9469
39.7785
3.99133
39.7852
4.03763
39.792
4.08513
39.7983
4.13327
39.8042
4.18164
39.8095
4.22998
39.8142
4.2776
39.8187
4.32415
39.8229
4.36942
39.8269
4.41319
39.8307
4.45553
39.8342
4.4965
39.8375
4.53618
39.8405
4.57469
39.8433
4.6121
39.8459
4.64853
39.8484
39.8512
4.68298
1.66392
35.0602
3.3909
36.5019
4.68603
37.903
5.39409
38.9716
5.55261
39.5504
5.57676
39.7579
5.56278
39.7832
5.52685
39.7974
5.50137
39.7958
5.46912
39.7972
5.44971
39.7931
5.43884
39.7894
5.43663
39.7874
5.44294
39.7857
5.45671
39.7846
5.47668
39.7842
5.50166
39.7845
5.53058
39.7853
5.56209
39.7872
5.59565
39.7894
5.63074
39.7918
5.66732
39.7941
5.705
39.7965
5.74346
39.799
5.78251
39.8015
5.82179
39.804
5.86107
39.8067
5.90023
39.8092
39.8125
5.93897
1.06814
33.992
2.41348
35.1566
3.95005
36.3664
5.30422
37.6174
6.185
38.6696
6.56508
39.3778
6.67715
39.6711
6.72241
39.7522
6.76403
39.7542
6.80679
39.7544
6.84346
39.7564
6.87226
39.7606
6.89938
39.7603
6.92479
39.7603
6.94978
39.7596
6.97489
39.7591
7.00057
39.7588
7.02708
39.7588
7.05598
39.7583
7.08758
39.7578
7.12181
39.7575
7.1584
39.7575
7.19717
39.7578
7.23783
39.7584
7.28013
39.7592
7.32393
39.7602
7.36909
39.7615
7.41538
39.7629
39.7633
7.46459
0.835987
33.1561
1.83486
34.1577
2.99077
35.2105
4.30198
36.3062
5.56031
37.4113
6.50538
38.4327
6.99816
39.1783
7.18451
39.5658
7.27897
39.6597
7.36872
39.6646
7.4512
39.6739
7.52282
39.689
7.59208
39.6911
7.66054
39.6918
7.72807
39.6921
7.79509
39.692
7.862
39.6919
7.92915
39.6916
7.99667
39.6908
8.06454
39.6899
8.13292
39.6892
8.20156
39.6889
8.27055
39.6888
8.33995
39.689
8.40976
39.6894
8.48001
39.69
8.55068
39.6908
8.62163
39.6919
39.6913
8.69363
0.696262
32.4598
1.48965
33.3644
2.38444
34.3157
3.38424
35.3064
4.47862
36.3169
5.59185
37.3195
6.49103
38.2792
7.01777
39.0391
7.21021
39.4673
7.29581
39.579
7.38045
39.5893
7.4748
39.5946
7.5713
39.5946
7.66937
39.5938
7.76869
39.5927
7.86915
39.5916
7.97068
39.5904
8.07326
39.5891
8.17616
39.5879
8.27912
39.5869
8.38219
39.5861
8.4852
39.5859
8.58813
39.5859
8.69102
39.5861
8.79381
39.5866
8.89644
39.5874
8.99881
39.5885
9.10084
39.5899
39.5907
9.20142
0.580154
31.8796
1.21872
32.7258
1.92143
33.613
2.69036
34.5375
3.52208
35.4852
4.40322
36.4384
5.30735
37.375
6.08246
38.264
6.54954
39.0002
6.73633
39.3923
6.86343
39.4622
6.99959
39.4585
7.13959
39.4545
7.2821
39.4513
7.4265
39.4483
7.5723
39.4458
7.71906
39.4436
7.86636
39.4418
8.01355
39.4407
8.16035
39.4401
8.30656
39.4399
8.45197
39.4404
8.59649
39.4413
8.73996
39.4426
8.8823
39.4442
9.0234
39.4463
9.16308
39.4488
9.30131
39.4517
39.4563
9.43574
0.510091
31.3695
1.06234
32.1735
1.65311
33.0222
2.28386
33.9067
2.9533
34.8157
3.65631
35.7354
4.3826
36.6488
5.11282
37.5337
5.75822
38.3548
6.14028
39.0102
6.33792
39.2646
6.51694
39.2795
6.69944
39.272
6.88481
39.2659
7.07226
39.2609
7.26127
39.2568
7.45117
39.2537
7.64143
39.2515
7.83172
39.2504
8.02151
39.2503
8.2107
39.2507
8.39899
39.2522
8.58594
39.2544
8.77165
39.2569
8.95575
39.2601
9.13804
39.264
9.31869
39.2681
9.49733
39.2731
39.2787
9.67485
0.472448
30.8971
0.97118
31.6748
1.49605
32.4974
2.04691
33.3559
2.62289
34.2397
3.22139
35.1369
3.83735
36.0328
4.46195
36.9091
5.07652
37.7403
5.59601
38.4907
5.90164
38.9589
6.13953
39.0416
6.37377
39.0378
6.60771
39.032
6.84149
39.0271
7.0744
39.0239
7.30654
39.0216
7.53774
39.0203
7.76745
39.0207
7.9964
39.0214
8.22374
39.0234
8.44949
39.0264
8.67426
39.0296
8.8968
39.0343
9.11754
39.0394
9.33672
39.0448
9.55314
39.0517
9.76756
39.0586
39.0642
9.98213
0.430764
30.4663
0.879697
31.2259
1.34743
32.0296
1.83294
32.8704
2.33446
33.7382
2.84988
34.6214
3.37638
35.5063
3.90917
36.3763
4.43935
37.2101
4.95115
37.9789
5.34951
38.5606
5.66811
38.723
5.97506
38.7308
6.27795
38.7291
6.5759
38.7292
6.87046
38.7293
7.16089
38.7311
7.44687
38.7343
7.73041
38.7371
8.00926
38.7425
8.28459
38.748
8.55759
38.7534
8.82553
38.7617
9.09108
38.7688
9.35333
38.7771
9.61032
38.7878
9.86515
38.7969
10.1159
38.8079
38.8178
10.3622
0.400717
30.0656
0.815853
30.8107
1.24488
31.6006
1.68757
32.4277
2.14258
33.2832
2.60752
34.1565
3.0794
35.0344
3.55476
35.901
4.02907
36.7358
4.49754
37.5104
4.92062
38.1375
5.29282
38.3508
5.65444
38.3692
6.00861
38.3749
6.3594
38.3784
6.70308
38.3856
7.04142
38.3928
7.37671
38.3991
7.70333
38.4105
8.02744
38.4184
8.34643
38.429
8.65709
38.4428
8.96693
38.4518
9.26976
38.466
9.56529
38.4816
9.85974
38.4933
10.1457
38.5109
10.4257
38.5279
38.5404
10.7031
0.398128
29.6675
0.807494
30.4014
1.22731
31.1808
1.65731
31.9977
2.09735
32.8432
2.54647
33.7074
3.00236
34.5785
3.46161
35.4417
3.92026
36.2771
4.37408
37.0566
4.80446
37.7071
5.20291
37.9523
5.58953
37.9826
5.97564
37.9888
6.35153
38.0025
6.72573
38.0114
7.09631
38.0222
7.45538
38.04
7.81692
38.049
8.16911
38.0662
8.51267
38.0855
8.85937
38.0961
9.19283
38.1184
9.5217
38.1371
9.85158
38.1517
10.1668
38.1781
10.4801
38.1976
10.7914
38.2166
38.2428
11.089
0.412998
29.2545
0.83585
29.9785
1.26767
30.749
1.70745
31.5579
2.15445
32.3962
2.60831
33.2535
3.06851
34.1183
3.53345
34.9768
3.99966
35.8109
4.46165
36.5946
4.90589
37.2629
5.32386
37.5344
5.73946
37.567
6.13959
37.5886
6.54539
37.5967
6.94196
37.6148
7.32718
37.637
7.72136
37.6458
8.09741
37.6729
8.47074
37.6929
8.84878
37.7074
9.20518
37.7397
9.5649
37.7586
9.92358
37.7784
10.2615
37.8138
10.6055
37.8341
10.9431
37.8601
11.2631
37.8966
37.9164
11.5896
0.435077
28.8194
0.879527
29.5341
1.33234
30.2962
1.79238
31.0979
2.25836
31.9302
2.72906
32.7828
3.20355
33.6438
3.68111
34.4992
4.16014
35.3319
4.63652
36.1182
5.10123
36.7982
5.55238
37.0832
5.97984
37.1396
6.42103
37.1475
6.8424
37.1753
7.25932
37.1979
7.68708
37.2092
8.08682
37.2461
8.4927
37.267
8.89917
37.2864
9.27878
37.3278
9.66982
37.3486
10.0539
37.3745
10.4141
37.4182
10.7872
37.4407
11.1478
37.4735
11.4893
37.5186
11.8414
37.5444
37.5804
12.1774
0.462074
28.3573
0.933555
29.0626
1.41318
29.8165
1.89962
30.6114
2.39146
31.4383
2.88722
32.2871
3.38534
33.1457
3.88438
34.0002
4.38337
34.8329
4.88081
35.6208
5.37114
36.3078
5.83332
36.621
6.31198
36.6609
6.76252
36.6969
7.2163
36.7215
7.676
36.7382
8.10342
36.7818
8.54364
36.8058
8.98228
36.8284
9.38979
36.8789
9.81385
36.9038
10.2303
36.9322
10.6162
36.9886
11.0215
37.0129
11.4115
37.0507
11.7782
37.1068
12.1613
37.1356
12.5244
37.1812
37.232
12.8728
0.494148
27.8632
0.998046
28.5587
1.51029
29.3043
2.02937
30.0923
2.55372
30.914
3.08168
31.7591
3.61144
32.616
4.14097
33.4707
4.66783
34.306
5.18907
35.0996
5.69913
35.7978
6.21874
36.1014
6.70151
36.1781
7.18689
36.2115
7.68086
36.2276
8.1394
36.2797
8.61446
36.3067
9.08973
36.3306
9.52247
36.3957
9.98113
36.4203
10.4314
36.4535
10.8417
36.5218
11.283
36.5474
11.7018
36.5941
12.0911
36.6614
12.506
36.6919
12.8961
36.7454
13.2631
36.8143
36.8453
13.6499
0.529984
27.3332
1.07033
28.0183
1.61941
28.7552
2.17553
29.5362
2.7369
30.3526
3.30166
31.1943
3.86788
32.0497
4.43356
32.905
4.99686
33.7428
5.55619
34.5402
6.11573
35.2382
6.63327
35.5839
7.15291
35.6585
7.69279
35.6717
8.17855
35.7418
8.68736
35.7709
9.19724
35.7969
9.65783
35.87
10.158
35.8955
10.6404
35.9379
11.0727
36.0212
11.5473
36.0472
11.9949
36.0997
12.4089
36.1802
12.8545
36.2158
13.2718
36.2746
13.658
36.3592
14.074
36.3983
36.4624
14.4568
0.568782
26.7644
1.14866
27.4385
1.73787
28.166
2.33461
28.9395
2.93702
29.7502
3.54319
30.5882
4.15115
31.4418
4.75875
32.2974
5.36315
33.1383
5.95927
33.9441
6.52556
34.6719
7.09576
35.0137
7.67884
35.0754
8.18835
35.1622
8.74089
35.1893
9.2988
35.213
9.78944
35.3062
10.3222
35.3372
10.8362
35.3815
11.2997
35.4744
11.8156
35.5054
12.3061
35.5567
12.7481
35.6577
13.2235
35.7048
13.676
35.7632
14.0902
35.8604
14.5413
35.9081
14.9615
35.9781
36.0801
15.3438
0.609267
26.1552
1.23037
26.8174
1.8614
27.535
2.50029
28.3006
3.14489
29.1056
3.79287
29.9402
4.44167
30.793
5.08831
31.6507
5.72926
32.4974
6.36043
33.3129
6.99741
34.035
7.62446
34.3866
8.16162
34.5382
8.76219
34.5616
9.36654
34.5849
9.87992
34.6996
10.4462
34.74
11.0134
34.77
11.5171
34.8777
12.0641
34.9274
12.5895
34.98
13.0492
35.097
13.556
35.1509
14.0594
35.2014
14.4993
35.3234
14.9722
35.3874
15.4218
35.4586
15.8138
35.5861
35.6378
16.256
0.65062
25.5045
1.31398
26.154
1.98789
26.8611
2.67013
27.6183
3.35844
28.4173
4.05054
29.2481
4.74424
30.0993
5.43767
30.9573
6.12959
31.8055
6.81976
32.6228
7.48546
33.3693
8.06839
33.8037
8.7284
33.8782
9.37508
33.9149
9.91649
34.0435
10.5218
34.0943
11.154
34.1077
11.6853
34.2387
12.2477
34.3154
12.823
34.3521
13.3157
34.4872
13.8641
34.5486
14.4163
34.5987
14.8714
34.7463
15.3657
34.8291
15.8574
34.8957
16.2858
35.0302
16.7674
35.1044
35.1968
17.2085
0.693518
24.811
1.40053
25.447
2.1189
26.1427
2.8463
26.8909
3.58032
27.6833
4.31839
28.51
5.05766
29.36
5.79448
30.2205
6.52309
31.0768
7.23076
31.9151
7.90592
32.6941
8.64202
33.0676
9.31881
33.2014
9.88321
33.3505
10.5361
33.3906
11.235
33.3954
11.7925
33.5503
12.3739
33.6573
13.0157
33.6736
13.5513
33.8164
14.1374
33.9011
14.7153
33.9707
15.1939
34.1201
15.7291
34.2112
16.2663
34.2918
16.7336
34.4283
17.235
34.5289
17.6867
34.6527
34.7739
18.1096
0.735655
24.0754
1.48571
24.6969
2.2477
25.3807
3.019
26.1196
3.79686
26.9054
4.57831
27.7286
5.3601
28.5782
6.13888
29.4417
6.9122
30.3035
7.68609
31.1412
8.48287
31.8973
9.17502
32.3754
9.78031
32.5961
10.5123
32.6185
11.2533
32.6497
11.8218
32.8269
12.4381
32.934
13.1402
32.9551
13.7289
33.085
14.3509
33.1944
14.9408
33.3112
15.4724
33.4392
16.0547
33.5377
16.601
33.6649
17.116
33.7769
17.6432
33.9012
18.1153
34.0567
18.5927
34.1753
34.3198
19.0468
0.777573
23.2978
1.5704
23.9041
2.37596
24.5751
3.19166
25.3039
4.01483
26.0823
4.84281
26.9006
5.67315
27.7479
6.50363
28.6112
7.33185
29.4753
8.14669
30.3264
8.89848
31.1455
9.59927
31.6746
10.4189
31.7765
11.1573
31.8801
11.7529
32.054
12.4503
32.1294
13.1922
32.1921
13.838
32.3094
14.4788
32.4442
15.0774
32.5957
15.6879
32.7007
16.3173
32.8098
16.8795
32.9755
17.466
33.0784
17.9991
33.2438
18.4807
33.4196
19.0078
33.5297
19.5098
33.6732
33.8458
19.9838
0.818461
22.4793
1.65294
23.0696
2.50096
23.7271
3.35977
24.4451
4.22646
25.2156
5.09774
26.0293
5.9697
26.8759
6.837
27.7439
7.69151
28.6208
8.52657
29.4913
9.35447
30.3176
10.238
30.7911
10.9771
31.0374
11.6403
31.2169
12.4141
31.2803
13.1427
31.4008
13.8545
31.4803
14.516
31.6479
15.1441
31.8162
15.845
31.8948
16.5114
32.0343
17.1065
32.2148
17.7186
32.3634
18.2406
32.5564
18.7976
32.6867
19.3867
32.8305
19.9105
33.0059
20.3848
33.199
33.3818
20.8488
0.856403
21.6229
1.72971
22.1963
2.61713
22.8397
3.51577
23.5465
4.42255
24.3088
5.33423
25.1176
6.24756
25.9626
7.15981
26.8317
8.07077
27.7098
8.98268
28.5794
9.89673
29.4036
10.665
30.0229
11.4197
30.2827
12.2444
30.3922
12.9965
30.5282
13.7748
30.6226
14.4644
30.7907
15.1426
30.9696
15.9233
31.0355
16.5789
31.2391
17.2206
31.3926
17.8577
31.5777
18.4555
31.7655
19.0901
31.9217
19.6775
32.0994
20.2111
32.2968
20.7349
32.4822
21.2381
32.6958
32.9078
21.7121
0.892535
20.7304
1.80259
21.2863
2.7277
21.9146
3.66511
22.6091
4.6119
23.362
5.56499
24.1645
6.52113
25.0065
7.47658
25.8762
8.42515
26.7613
9.35562
27.6489
10.2281
28.5311
11.1131
29.1378
11.9632
29.4326
12.7682
29.5871
13.6031
29.6933
14.3208
29.9048
15.0618
30.0498
15.872
30.1594
16.5385
30.369
17.2556
30.5221
17.9267
30.7214
18.5783
30.9262
19.2673
31.0765
19.8713
31.3177
20.4494
31.5213
21.0159
31.7303
21.5284
31.9696
22.0779
32.1463
32.4133
22.5724
0.924035
19.8064
1.86638
20.3439
2.82439
20.9566
3.79525
21.6382
4.7759
22.3814
5.76291
23.1775
6.75241
24.017
7.73974
24.8889
8.71988
25.7811
9.68842
26.6804
10.6595
27.56
11.5536
28.2437
12.4258
28.5604
13.3031
28.7099
14.0476
28.9488
14.875
29.0774
15.679
29.2458
16.4217
29.4166
17.2221
29.5687
17.909
29.8352
18.5854
30.0451
19.2911
30.2205
19.9292
30.4384
20.6046
30.6423
21.1877
30.9382
21.7578
31.1602
22.3236
31.4039
22.8047
31.6651
31.9023
23.3158
0.951627
18.8547
1.92203
19.3735
2.90881
19.9698
3.90925
20.6378
4.92037
21.3703
5.93891
22.159
6.9614
22.9945
7.98433
23.866
9.00429
24.7612
10.0167
25.668
10.9912
26.5855
11.9626
27.2722
12.8743
27.6488
13.665
27.9191
14.5648
28.049
15.3923
28.2499
16.2159
28.4222
17.0208
28.6117
17.7095
28.88
18.5038
29.0409
19.2454
29.3034
19.9533
29.5126
20.6308
29.7608
21.2308
30.0424
21.8887
30.2803
22.4568
30.5921
23.0234
30.8373
23.5774
31.1111
31.424
24.0557
0.973922
17.8808
1.96715
18.3803
2.97736
18.9596
4.00199
19.6131
5.03815
20.3341
6.08258
21.1145
7.13165
21.9454
8.18093
22.8167
9.22468
23.7174
10.2591
24.6336
11.3208
25.5238
12.2856
26.3074
13.1666
26.7679
14.1089
26.9767
14.9449
27.2131
15.8573
27.3374
16.6799
27.5996
17.4682
27.8235
18.3109
28.0373
19.0157
28.336
19.8179
28.5012
20.5294
28.8012
21.2169
29.0733
21.8838
29.3755
22.4876
29.6765
23.1323
29.9474
23.7085
30.2611
24.1974
30.6223
30.9187
24.7026
0.990821
16.89
2.00127
17.3698
3.02935
17.9315
4.0728
18.5697
5.12902
19.2779
6.19519
20.0484
7.26843
20.8722
8.34627
21.7389
9.4276
22.6361
10.507
23.5542
11.5078
24.5231
12.5132
25.302
13.4804
25.8006
14.4019
26.0552
15.3712
26.2438
16.1939
26.5147
17.0757
26.7178
17.9035
26.9957
18.7324
27.2084
19.5979
27.4704
20.2994
27.7997
21.0374
28.0632
21.7273
28.3834
22.4205
28.6823
23.1216
28.9754
23.7156
29.3534
24.2819
29.6948
24.8343
30.0699
30.4653
25.2877
1.00141
15.8886
2.02262
16.3486
3.06188
16.8923
4.11705
17.5145
5.18562
18.2093
6.26454
18.9694
7.35012
19.7866
8.43723
20.6518
9.51688
21.5564
10.5782
22.4928
11.6784
23.4228
12.7204
24.26
13.7491
24.772
14.7291
25.0752
15.5552
25.4177
16.4984
25.5715
17.4019
25.8142
18.3375
26.0602
19.1575
26.3884
19.9022
26.7257
20.7495
26.9525
21.5071
27.3055
22.259
27.6315
22.9449
27.9964
23.5575
28.3628
24.2513
28.6596
24.8174
29.1287
25.3571
29.5301
29.9594
25.863
1.00573
14.8828
2.03132
15.323
3.07528
15.8483
4.1358
16.454
5.21062
17.1345
6.29712
17.8829
7.39244
18.6913
8.49393
19.5503
9.60234
20.448
10.7247
21.3705
11.8105
22.337
12.8973
23.1733
13.8784
23.7908
14.8169
24.1368
15.872
24.3626
16.7721
24.6714
17.68
24.9063
18.5206
25.2196
19.4561
25.4529
20.3608
25.821
21.0688
26.2445
21.872
26.5024
22.6355
26.868
23.4139
27.218
24.1058
27.6709
24.6237
28.1417
25.2834
28.4689
25.8473
28.9662
29.4248
26.3819
1.00389
13.879
2.02748
14.2994
3.06975
14.806
4.12928
15.3945
5.20425
16.0595
6.29254
16.7946
7.39189
17.5919
8.49981
18.4423
9.61058
19.3373
10.7103
20.2707
11.8225
21.2248
12.8403
22.1554
13.954
22.6772
14.9931
23.0977
15.8991
23.4566
16.9008
23.6697
17.8392
23.9679
18.8064
24.2524
19.6311
24.6281
20.5359
24.9163
21.4871
25.2932
22.2211
25.7684
22.9918
26.0974
23.681
26.5287
24.4265
26.9254
25.1127
27.4555
25.6117
27.9699
26.2435
28.3344
28.9098
26.7585
0.995412
12.8835
2.01026
13.2846
3.04379
13.7725
4.09488
14.3434
5.16189
14.9925
6.24281
15.7137
7.33527
16.4994
8.43646
17.3412
9.54571
18.228
10.6677
19.1487
11.7716
20.1209
12.9474
20.9796
13.9304
21.6942
14.9497
22.0784
16.0196
22.3867
16.9481
22.7412
17.9379
22.9781
18.8737
23.3166
19.8753
23.6264
20.7313
24.0604
21.5833
24.4412
22.4957
24.8559
23.2293
25.3639
24.0021
25.7559
24.6712
26.2562
25.4187
26.7079
26.0717
27.317
26.5049
27.9012
28.3195
27.0952
0.980912
11.9026
1.9808
12.2847
2.99934
12.754
4.03575
13.307
5.08881
13.9395
6.15704
14.6455
7.23888
15.4176
8.33291
16.2471
9.43623
17.1247
10.5445
18.0404
11.6636
19.0019
12.7002
19.943
13.8247
20.5698
14.8874
21.0157
15.9394
21.3347
17.0357
21.6448
17.974
22.0399
18.95
22.3406
19.8487
22.7278
20.8645
23.0446
21.7575
23.5482
22.5744
24.039
23.4618
24.4765
24.2
25.0178
24.958
25.4982
25.5774
26.0885
26.2941
26.6003
26.928
27.2673
27.9597
27.2878
0.960453
10.9422
1.9393
11.3059
2.9365
11.7567
3.95153
12.2919
4.98336
12.9076
6.03064
13.5982
7.09179
14.3565
8.16437
15.1745
9.24663
16.0424
10.336
16.951
11.4465
17.8913
12.6324
18.7571
13.6814
19.5208
14.7837
19.9134
15.8051
20.3132
16.7868
20.6632
17.8849
20.9417
18.909
21.3165
19.938
21.6988
20.8186
22.164
21.812
22.5547
22.7393
23.1117
23.5259
23.6899
24.3583
24.1853
25.0888
24.7677
25.8467
25.3306
26.4226
26.0245
27.0757
26.6142
27.4005
27.635
0.934598
10.0076
1.88683
10.3536
2.85697
10.7866
3.84474
11.3042
4.8494
11.903
5.87007
12.5775
6.90596
13.3206
7.95713
14.1234
9.02299
14.9766
10.1066
15.8674
11.2102
16.7878
12.2743
17.693
13.4352
18.3599
14.4406
18.908
15.6153
19.1385
16.7447
19.5338
17.7523
19.9341
18.8025
20.2664
19.8081
20.6932
20.8361
21.136
21.6994
21.6914
22.6855
22.1256
23.6421
22.7333
24.4298
23.3976
25.2133
23.9842
25.8981
24.6458
26.6222
25.3004
27.1217
26.1146
26.805
27.7172
0.90399
9.1036
1.82455
9.43307
2.76251
9.84865
3.71776
10.3489
4.68979
10.931
5.67812
11.5892
6.68257
12.3161
7.70238
13.1036
8.73812
13.9408
9.78367
14.8218
10.8638
15.7076
11.9839
16.573
13.1015
17.2423
14.3025
17.7069
15.2867
18.1543
16.3939
18.4266
17.5415
18.7865
18.5604
19.2475
19.6279
19.6257
20.6478
20.1161
21.7299
20.6093
22.578
21.2775
23.5442
21.7671
24.4597
22.4822
25.2221
23.2217
25.9509
23.917
26.5843
24.667
27.2611
25.4378
26.3428
27.7233
0.869008
8.23459
1.75347
8.5486
2.65468
8.94744
3.5726
9.43099
4.50683
9.99673
5.45722
10.6388
6.4239
11.3495
7.40832
12.1191
8.41055
12.9386
9.44311
13.7893
10.4876
14.6631
11.5733
15.4873
12.6937
16.1218
13.8029
16.5978
15.0333
16.9239
16.0841
17.3758
17.2178
17.6528
18.3653
18.1
19.386
18.605
20.4299
19.0721
21.4275
19.6118
22.5256
20.1793
23.3666
20.9261
24.3456
21.5032
25.2138
22.3535
25.9475
23.1834
26.6361
23.9784
27.1792
24.8947
25.7409
27.7811
0.830175
7.40441
1.67468
7.7041
2.53526
8.08686
3.41175
8.5545
4.30379
9.10469
5.21159
9.73101
6.13626
10.4248
7.07881
11.1766
8.04479
11.9726
9.02798
12.8061
10.0561
13.635
11.154
14.3894
12.2676
15.0082
13.4398
15.4257
14.5313
15.8324
15.7766
16.1305
16.8182
16.6113
17.9626
16.9555
19.1061
17.4616
20.1687
18.0094
21.2148
18.5657
22.236
19.1582
23.2978
19.8643
24.1098
20.6913
25.0676
21.3957
25.8582
22.3928
26.5697
23.2669
27.2323
24.2321
25.319
27.6543
0.788084
6.61633
1.58938
6.90281
2.40621
7.27002
3.23799
7.72272
4.08435
8.25834
4.94585
8.86951
5.82384
9.54679
6.72269
10.2777
7.64324
11.0521
8.60511
11.8442
9.6032
12.6369
10.6757
13.3169
11.8194
13.8645
12.9356
14.3095
14.0916
14.6764
15.2342
14.9879
16.4735
15.372
17.5518
15.8772
18.7121
16.3012
19.855
16.8666
20.9238
17.4969
21.9506
18.1314
22.956
18.8588
23.9664
19.6809
24.7858
20.5763
25.7083
21.4703
26.4083
22.5668
27.1028
23.5376
24.7562
27.6656
0.743291
5.87304
1.49881
6.14729
2.2695
6.49933
3.05398
6.93824
3.85177
7.46055
4.6639
8.05737
5.49328
8.71742
6.34139
9.42963
7.22299
10.1705
8.12818
10.939
9.1282
11.6368
10.1989
12.2462
11.2938
12.7696
12.4755
13.1278
13.6286
13.5233
14.7656
13.8509
15.9211
14.2165
17.1447
14.6536
18.2325
15.2135
19.3994
15.6997
20.5321
16.3641
21.5992
17.0643
22.6511
17.807
23.6147
18.7173
24.5762
19.6147
25.4202
20.6263
26.2637
21.7234
26.9153
22.886
24.1605
27.511
0.696297
5.17674
1.40418
5.43941
2.12714
5.77636
2.86249
6.2029
3.60966
6.71337
4.37046
7.29657
5.14723
7.94064
5.95102
8.62584
6.78078
9.3407
7.69318
10.0266
8.6521
10.6779
9.70358
11.1947
10.8324
11.6408
11.9175
12.0426
13.1206
12.3203
14.257
12.7144
15.3891
13.0844
16.5442
13.4984
17.789
13.9686
18.8786
14.6101
20.0659
15.1768
21.1772
15.953
22.2373
16.7469
23.3223
17.6323
24.2291
18.7079
25.1546
19.7009
25.9458
20.9321
26.7024
22.1295
23.5574
27.3054
0.647569
4.52917
1.30681
4.78017
1.98139
5.10177
2.66657
5.51773
3.36192
6.01802
4.07048
6.58802
4.80067
7.21045
5.55315
7.87337
6.36491
8.52893
7.2186
9.17294
8.18375
9.71276
9.20446
10.174
10.2839
10.5614
11.4487
10.8779
12.5466
11.2223
13.7383
11.5227
14.8721
11.9506
16.0085
12.3621
17.1552
12.8219
18.3809
13.3844
19.4683
14.0894
20.6869
14.7344
21.7423
15.6915
22.8517
16.5229
23.9124
17.6473
24.8017
18.8116
25.7002
20.0336
26.3675
21.4622
22.8845
27.0404
0.597534
3.93164
1.20826
4.16945
1.83476
4.47527
2.46926
4.88323
3.11251
5.37477
3.77097
5.92956
4.44821
6.5332
5.17054
7.15105
5.93281
7.76665
6.79443
8.31132
7.73042
8.77678
8.72814
9.17629
9.81761
9.47189
10.9068
9.7887
12.0506
10.0785
13.1337
10.4396
14.2773
10.807
15.4309
11.2085
16.5636
11.6891
17.7413
12.2068
18.9221
12.9086
20.0416
13.6149
21.2562
14.4769
22.2956
15.4834
23.4291
16.5138
24.4307
17.81
25.3205
19.1438
26.109
20.6736
22.3241
26.6695
0.546646
3.38499
1.11046
3.60563
1.6899
3.89584
2.27374
4.29939
2.86569
4.78281
3.47241
5.32284
4.11556
5.89006
4.79046
6.47614
5.55201
7.0051
6.38048
7.48285
7.31669
7.84057
8.30871
8.18428
9.3348
8.4458
10.4184
8.70505
11.4489
9.04805
12.5554
9.33319
13.6343
9.72806
14.7863
10.0565
15.9039
10.5715
17.0742
11.0365
18.2635
11.7194
19.4353
12.4431
20.6095
13.3027
21.7978
14.2952
22.8807
15.4308
23.9559
16.7348
24.9206
18.1791
25.735
19.8592
21.6668
26.3923
0.495649
2.88935
1.01598
3.0853
1.54959
3.36223
2.08298
3.76601
2.62416
4.24163
3.19146
4.75555
3.78762
5.29389
4.46461
5.79916
5.1879
6.28181
6.0458
6.62495
6.9131
6.97326
7.89578
7.20159
8.87773
7.46385
9.84002
7.74276
10.9286
7.95946
11.9146
8.34725
13.0149
8.62771
14.1076
8.96382
15.2444
9.4347
16.3667
9.9142
17.5516
10.5345
18.732
11.2627
19.9579
12.0768
21.1293
13.1238
22.3316
14.2284
23.4226
15.6438
24.4468
17.1549
25.3471
18.9589
20.9996
26.0144
0.446078
2.44327
0.927834
2.60354
1.4162
2.87386
1.8986
3.2836
2.39695
3.74328
2.92242
4.23008
3.51226
4.70405
4.14698
5.16443
4.90714
5.52166
5.6985
5.83358
6.57405
6.09772
7.47338
6.30226
8.41037
6.52686
9.33866
6.81447
10.3116
6.98653
11.342
7.31681
12.3573
7.61248
13.4325
7.88862
14.5145
8.35268
15.6356
8.79311
16.7889
9.38117
17.9814
10.0702
19.2041
10.854
20.4714
11.8565
21.6464
13.0534
22.8684
14.4218
23.9244
16.099
24.8953
17.988
20.254
25.6408
0.400721
2.04255
0.848669
2.1556
1.28963
2.4329
1.72521
2.84803
2.18356
3.28492
2.68908
3.72457
3.25352
4.13961
3.91017
4.50778
4.61803
4.8138
5.40518
5.04643
6.21605
5.28685
7.06695
5.45135
7.92931
5.6645
8.82765
5.91614
9.76607
6.0481
10.6816
6.40128
11.7404
6.55371
12.6969
6.93208
13.7823
7.26727
14.8474
7.72799
15.9941
8.2345
17.1825
8.88181
18.4047
9.63177
19.7128
10.5484
20.989
11.7773
22.2275
13.1833
23.3976
14.9288
24.4222
16.9635
19.4407
25.2355
0.363246
1.6793
0.777853
1.74099
1.17015
2.0406
1.55997
2.4582
1.99276
2.85214
2.48435
3.23298
3.04036
3.5836
3.67063
3.87751
4.36983
4.1146
5.0816
4.33467
5.86686
4.50159
6.6543
4.66392
7.46009
4.85871
8.32228
5.05395
9.21029
5.16009
10.0921
5.5195
11.0437
5.60208
12.025
5.95079
12.9963
6.29599
14.0717
6.65254
15.1466
7.15963
16.3412
7.68715
17.5606
8.4124
18.855
9.25396
20.2137
10.4186
21.5496
11.8474
22.8056
13.6729
23.9421
15.827
18.5532
24.8297
0.33539
1.34391
0.708473
1.36791
1.05194
1.69713
1.40196
2.10818
1.82769
2.42641
2.30001
2.76065
2.85162
3.03199
3.44328
3.28585
4.09135
3.46654
4.80102
3.62499
5.47725
3.82536
6.27233
3.86884
6.98107
4.14996
7.81533
4.21969
8.63559
4.33982
9.48683
4.66826
10.381
4.70792
11.2772
5.05459
12.2814
5.29173
13.2409
5.6931
14.3647
6.03583
15.4456
6.60625
16.7056
7.15239
17.9465
8.0131
19.3496
9.01541
20.7632
10.4338
22.1801
12.256
23.422
14.5851
17.5175
24.4577
0.311393
1.03252
0.629692
1.04961
0.929142
1.39768
1.25758
1.77974
1.6795
2.00449
2.11801
2.32214
2.66889
2.48111
3.2144
2.74034
3.84522
2.83573
4.4655
3.00471
5.14847
3.14239
5.82466
3.19264
6.55638
3.41825
7.29041
3.48566
8.09165
3.53858
8.86896
3.89096
9.73013
3.84675
10.5683
4.21643
11.5321
4.32791
12.4661
4.75909
13.5174
4.98452
14.6002
5.52348
15.7811
5.97153
17.037
6.7572
18.4224
7.62994
19.8763
8.97993
21.4633
10.669
22.8721
13.1763
16.2639
24.1256
0.277686
0.754832
0.53312
0.794173
0.811671
1.11913
1.11582
1.47559
1.52483
1.59549
1.96145
1.88552
2.47991
1.96265
2.96805
2.2522
3.59015
2.21363
4.13535
2.4595
4.80716
2.47058
5.41222
2.58759
6.11521
2.71526
6.80799
2.79287
7.53225
2.81433
8.30001
3.12319
9.07053
3.07622
9.89678
3.39017
10.7828
3.44188
11.6892
3.85274
12.6979
3.9758
13.7093
4.51208
14.8949
4.7859
16.0522
5.59993
17.5089
6.17329
18.8953
7.59349
20.7215
8.84278
22.2185
11.6793
14.6898
23.7927
0.228161
0.52667
0.436985
0.585349
0.694652
0.861467
0.990382
1.17986
1.39089
1.19497
1.78415
1.49226
2.2892
1.4576
2.74987
1.79153
3.31585
1.64764
3.83672
1.93864
4.45696
1.85034
5.03
2.01455
5.69681
2.04845
6.32546
2.16422
7.01387
2.12592
7.71305
2.42401
8.46442
2.32485
9.21092
2.64368
10.0688
2.58397
10.9091
3.01242
11.8926
2.99229
12.8506
3.55416
14.014
3.62244
15.1507
4.46325
16.5956
4.72838
18.0574
6.13168
19.9293
6.97087
21.7088
9.89981
12.8223
23.5763
0.177053
0.349618
0.351485
0.410916
0.603943
0.609008
0.879859
0.903942
1.25559
0.819244
1.64633
1.10152
2.08938
1.01456
2.5506
1.33031
3.03949
1.15876
3.55583
1.42229
4.10596
1.30021
4.66754
1.45297
5.26199
1.454
5.87973
1.54648
6.49223
1.51343
7.20171
1.71453
7.87267
1.65389
8.65069
1.86566
9.38505
1.84961
10.2653
2.13217
11.1058
2.15176
12.1213
2.53869
13.1236
2.62014
14.3622
3.22468
15.6368
3.4538
17.2795
4.48891
19.0425
5.20794
21.4559
7.48641
10.364
23.9141
0.135696
0.213921
0.295646
0.250967
0.518822
0.385832
0.804335
0.61843
1.12572
0.497862
1.53736
0.689878
1.90128
0.65064
2.3717
0.859882
2.79175
0.738711
3.31588
0.898155
3.79496
0.821133
4.34451
0.903418
4.8835
0.915019
5.46896
0.961012
6.02421
0.958176
6.671
1.06774
7.27393
1.05096
7.96956
1.17003
8.64106
1.17811
9.43063
1.3426
10.2106
1.37181
11.1428
1.60649
12.0874
1.6755
13.2569
2.05522
14.489
2.22163
16.0889
2.8891
17.9104
3.38637
20.739
4.65783
7.18123
23.9218
0.11292
0.101001
0.250499
0.113388
0.445617
0.190714
0.758877
0.30517
1.02901
0.227725
1.39857
0.320322
1.74059
0.308615
2.18684
0.413639
2.58044
0.345109
3.05836
0.420239
3.49656
0.382932
3.97455
0.425429
4.45944
0.430127
4.96699
0.453456
5.47299
0.452184
6.03421
0.506513
6.59006
0.495112
7.20302
0.55707
7.82555
0.555577
8.52773
0.64043
9.25292
0.646619
10.0909
0.768527
10.9773
0.789076
12.0437
0.988818
13.2198
1.04554
14.7077
1.40121
16.4698
1.62421
19.325
1.80264
3.90533
22.6009
0.101001
0.214389
0.405103
0.710273
0.937998
1.25832
1.56693
1.98057
2.32568
2.74592
3.12885
3.55428
3.98441
4.43787
4.89005
5.39656
5.89167
6.44874
7.00432
7.64475
8.29137
9.0599
9.84897
10.8378
11.8833
13.2845
14.9088
16.7114
20.6167
0.979542
54.1294
0.990221
54.1296
1.00094
54.1295
1.01175
54.1294
1.02268
54.1293
1.03372
54.1292
1.04491
54.129
1.05624
54.1289
1.06768
54.1288
1.07924
54.1287
1.09088
54.1286
1.10256
54.1286
1.11426
54.1285
1.12593
54.1286
1.13753
54.1286
1.14903
54.1287
1.16043
54.1288
1.17167
54.129
1.18273
54.1292
1.19358
54.1294
1.20416
54.1297
1.21445
54.1299
1.22442
54.1303
1.23404
54.1306
1.24326
54.131
1.25207
54.1314
1.26045
54.1319
1.26835
54.1323
1.27576
54.1328
1.28266
54.1333
1.28902
54.1339
1.29484
54.1344
1.30011
54.135
1.3048
54.1355
1.30882
54.1362
1.31215
54.1369
1.31476
54.1376
1.31666
54.1383
1.31788
54.139
1.31844
54.1397
1.31836
54.1403
1.31763
54.141
1.31628
54.1416
1.31431
54.1422
1.31174
54.1428
1.30857
54.1434
1.30482
54.144
1.30047
54.1446
1.29555
54.1452
1.29004
54.1457
1.28394
54.1463
1.27726
54.1469
1.26998
54.1475
1.26211
54.1481
1.25361
54.1487
1.24449
54.1494
1.23475
54.15
1.22437
54.1506
1.21334
54.1513
1.20167
54.1519
1.18938
54.1525
1.17652
54.1531
1.1631
54.1537
1.14914
54.1542
1.13466
54.1547
1.1197
54.1552
1.10425
54.1557
1.08836
54.1561
1.07202
54.1566
1.05527
54.157
1.03811
54.1574
1.02056
54.1578
1.00263
54.1582
0.984333
54.1585
0.965684
54.1589
0.946683
54.1592
0.927346
54.1596
0.907675
54.1599
0.887694
54.1602
0.867404
54.1605
0.846831
54.1608
0.825985
54.1611
0.804884
54.1613
0.783534
54.1616
0.761952
54.1618
0.740145
54.162
0.718117
54.1623
0.695864
54.1625
0.673589
54.1625
0.651422
54.1624
0.629393
54.1623
0.607511
54.1621
0.58579
54.162
0.564229
54.1618
0.54284
54.1616
0.521626
54.1614
0.500605
54.1613
0.479783
54.1611
0.459187
54.1608
0.438834
54.1606
0.418749
54.1603
0.398931
54.1601
0.37935
54.1598
0.35999
54.1596
0.340819
54.1594
0.321817
54.1592
0.302964
54.1591
0.28426
54.1589
0.265707
54.1588
0.247311
54.1586
0.228966
54.1586
0.210782
54.1584
0.193076
54.1579
0.176066
54.1572
0.159811
54.1565
0.144333
54.1557
0.12961
54.155
0.115582
54.1543
0.101697
54.1541
0.0875973
54.1543