/*--------------------------------*- C++ -*----------------------------------*\
| =========                 |                                                 |
| \\      /  F ield         | OpenFOAM: The Open Source CFD Toolbox           |
|  \\    /   O peration     | Version:  5.x                                   |
|   \\  /    A nd           | Web:      www.OpenFOAM.org                      |
|    \\/     M anipulation  |                                                 |
\*---------------------------------------------------------------------------*/
/*   Windows 32 and 64 bit porting by blueCAPE: http://www.bluecape.com.pt   *\
|  Based on Windows porting (2.0.x v4) by Symscape: http://www.symscape.com   |
\*---------------------------------------------------------------------------*/
FoamFile
{
    version     2.0;
    format      ascii;
    class       volVectorField;
    location    "120";
    object      U;
}
// * * * * * * * * * * * * * * * * * * * * * * * * * * * * * * * * * * * * * //

dimensions      [0 1 -1 0 0 0 0];

internalField   nonuniform List<vector> 
43900
(
(1.16089 -0.000390357 -2.02721e-027)
(1.16754 0.00183971 -5.43492e-027)
(1.16977 0.000483396 2.04747e-030)
(1.1689 0.00174388 2.57938e-030)
(1.17002 0.000911928 3.72597e-030)
(1.17013 0.00171922 3.67151e-030)
(1.17032 0.00137209 7.25686e-027)
(1.17013 0.00158092 -1.44997e-026)
(1.17012 0.00173687 9.37319e-030)
(1.17006 0.00155902 -1.44683e-026)
(1.17009 0.00178887 1.44897e-026)
(1.17013 0.00173606 1.11178e-029)
(1.17017 0.00178644 -1.44345e-026)
(1.17021 0.0018211 2.38105e-029)
(1.17024 0.00185147 2.43911e-029)
(1.17027 0.0018805 2.49356e-029)
(1.17029 0.00190812 -2.87701e-026)
(1.17031 0.00193408 5.18227e-029)
(1.17033 0.00195836 2.87959e-026)
(1.17034 0.00197986 2.67641e-029)
(1.17035 0.00200195 2.7148e-029)
(1.17036 0.00202294 2.75088e-029)
(1.17036 0.00204301 2.78522e-029)
(1.17037 0.0020625 2.818e-029)
(1.17037 0.00208154 2.84924e-029)
(1.17037 0.00210028 -2.85197e-026)
(1.17037 0.0021184 5.81525e-029)
(1.17038 0.00213652 5.86996e-029)
(1.17038 0.00215471 1.139e-025)
(1.15941 0.010213 0)
(1.16575 -0.00414566 0)
(1.1703 0.00802652 0)
(1.16621 0.000252571 0)
(1.16829 0.00555895 0)
(1.16761 0.00301557 0)
(1.16802 0.00447374 0)
(1.1688 0.00476146 0)
(1.16885 0.00445901 0)
(1.16932 0.00529077 0)
(1.16932 0.00528241 0)
(1.16932 0.00550908 0)
(1.16931 0.00575382 0)
(1.1693 0.00591967 0)
(1.1693 0.00607513 0)
(1.1693 0.00621823 0)
(1.16931 0.00634892 0)
(1.16932 0.00646972 0)
(1.16934 0.00658303 0)
(1.16937 0.00668927 0)
(1.16938 0.00678946 0)
(1.16939 0.00688348 0)
(1.1694 0.00697402 0)
(1.16941 0.00706068 0)
(1.16942 0.00714373 0)
(1.16943 0.00722277 0)
(1.16944 0.0072992 0)
(1.16944 0.00737187 0)
(1.16945 0.00744204 0)
(1.10641 0.030735 0)
(1.14783 -0.0169123 0)
(1.16359 0.0271993 0)
(1.16358 -0.0041311 0)
(1.16611 0.0190777 0)
(1.16446 0.00318327 0)
(1.16546 0.0133839 0)
(1.16487 0.00735231 0)
(1.16548 0.0103795 0)
(1.16544 0.00945035 0)
(1.16572 0.00947198 0)
(1.166 0.00982849 0)
(1.16625 0.00989033 0)
(1.16647 0.00999027 0)
(1.16665 0.0101075 0)
(1.1668 0.0102258 0)
(1.16693 0.0103451 0)
(1.16704 0.0104637 0)
(1.1671 0.0105827 0)
(1.16715 0.0107001 0)
(1.16719 0.0108129 0)
(1.16724 0.0109227 0)
(1.16728 0.0110285 0)
(1.16731 0.0111313 0)
(1.16735 0.0112311 0)
(1.16739 0.0113288 0)
(1.16742 0.0114221 0)
(1.16745 0.0115118 0)
(1.16748 0.0115995 1.99956e-027)
(1.04625 0.0204147 0)
(1.09363 -0.00749783 0)
(1.13686 0.020516 0)
(1.15972 0.00631287 0)
(1.16436 0.0213506 0)
(1.16546 0.00870284 0)
(1.16544 0.0191011 0)
(1.16501 0.0115829 0)
(1.16523 0.0161738 0)
(1.16525 0.0135921 0)
(1.16546 0.0145149 0)
(1.16563 0.0143273 0)
(1.16574 0.0142498 0)
(1.16582 0.0142637 0)
(1.1659 0.0142928 0)
(1.16598 0.0143377 0)
(1.16605 0.0143974 0)
(1.16611 0.0144706 0)
(1.16621 0.0145496 0)
(1.16632 0.0146356 0)
(1.16642 0.014725 0)
(1.16652 0.0148192 0)
(1.16661 0.0149165 0)
(1.1667 0.015016 0)
(1.16679 0.0151156 0)
(1.16687 0.0152178 0)
(1.16695 0.0153229 0)
(1.16702 0.0154282 0)
(1.1671 0.0155304 2.1174e-027)
(1.00991 0.010372 4.26735e-027)
(1.04687 -0.00129022 0)
(1.0853 0.0110176 0)
(1.12496 0.012188 0)
(1.15229 0.0180353 0)
(1.16351 0.015559 0)
(1.16501 0.0209749 0)
(1.16564 0.0164863 0)
(1.16586 0.0199729 0)
(1.16583 0.0181099 0)
(1.1657 0.0191032 0)
(1.16558 0.0189997 0)
(1.1656 0.0190501 0)
(1.16567 0.0191244 0)
(1.16576 0.0191897 0)
(1.16586 0.0192601 0)
(1.16597 0.0193307 0)
(1.16609 0.0194016 0)
(1.16621 0.019478 0)
(1.16632 0.0195631 0)
(1.16643 0.0196546 0)
(1.16654 0.0197535 0)
(1.16664 0.0198597 0)
(1.16673 0.0199722 0)
(1.16683 0.0200896 0)
(1.16692 0.0202075 0)
(1.16701 0.0203283 0)
(1.16709 0.0204537 0)
(1.16717 0.0205841 -8.93879e-027)
(0.983363 0.00677832 -4.45435e-027)
(1.01452 0.000535053 0)
(1.04721 0.00754969 0)
(1.08119 0.0108178 0)
(1.11529 0.0146676 0)
(1.145 0.0172815 0)
(1.15996 0.0211068 0)
(1.1639 0.0198031 0)
(1.16361 0.0218709 0)
(1.16368 0.0209929 0)
(1.16371 0.0217623 0)
(1.16383 0.0219161 0)
(1.16387 0.0220659 0)
(1.16388 0.0222562 0)
(1.1639 0.0224606 0)
(1.16392 0.0226599 0)
(1.16395 0.0228557 0)
(1.16398 0.0230504 0)
(1.164 0.0232471 0)
(1.16402 0.0234454 0)
(1.16405 0.0236443 0)
(1.16409 0.0238442 0)
(1.16413 0.0240446 0)
(1.16418 0.0242461 0)
(1.16423 0.0244517 0)
(1.16429 0.0246574 0)
(1.16436 0.0248615 0)
(1.16443 0.0250673 0)
(1.1645 0.0252767 4.72652e-027)
(0.960619 0.00506091 0)
(0.988318 0.00116511 0)
(1.01743 0.00605801 0)
(1.04774 0.00901565 0)
(1.07854 0.0121323 0)
(1.10881 0.015461 0)
(1.13725 0.0190196 0)
(1.1555 0.0207245 0)
(1.16069 0.0226098 0)
(1.1607 0.0221184 0)
(1.16069 0.0226732 0)
(1.16084 0.0229365 0)
(1.16083 0.0231747 0)
(1.16079 0.0234792 0)
(1.16074 0.0237922 0)
(1.16068 0.0240997 0)
(1.16063 0.0244097 0)
(1.16057 0.0247244 0)
(1.1605 0.0250413 0)
(1.16045 0.0253583 0)
(1.1604 0.0256757 0)
(1.16037 0.025993 0)
(1.16035 0.0263095 0)
(1.16034 0.0266251 0)
(1.16034 0.0269413 0)
(1.16035 0.0272594 0)
(1.16038 0.0275756 0)
(1.16041 0.027889 0)
(1.16045 0.0282015 0)
(0.942369 0.00372906 0)
(0.967789 0.00151636 0)
(0.9945 0.00502505 0)
(1.02232 0.00755664 0)
(1.05078 0.010105 0)
(1.0793 0.01287 0)
(1.1071 0.0158179 0)
(1.13307 0.0185853 0)
(1.15218 0.0210734 0)
(1.15796 0.0215781 0)
(1.15818 0.0221897 0)
(1.15803 0.0226008 0)
(1.15792 0.0229917 0)
(1.15782 0.0234593 0)
(1.15773 0.0239312 0)
(1.15763 0.0244019 0)
(1.15755 0.0248771 0)
(1.15747 0.0253566 0)
(1.1574 0.0258358 0)
(1.15735 0.0263136 0)
(1.15731 0.0267907 0)
(1.15729 0.0272646 0)
(1.15727 0.0277365 0)
(1.15727 0.0282052 0)
(1.15727 0.0286684 0)
(1.15729 0.0291303 0)
(1.15732 0.0295886 0)
(1.15736 0.0300412 0)
(1.15741 0.0304833 0)
(0.92671 0.00255704 0)
(0.95078 0.00193748 0)
(0.976111 0.00451733 0)
(1.00251 0.00676528 0)
(1.02961 0.00899418 0)
(1.05697 0.0113349 0)
(1.08405 0.0137993 0)
(1.1101 0.0163219 0)
(1.13392 0.0188287 0)
(1.15085 0.020596 0)
(1.15471 0.0216381 0)
(1.15473 0.0221262 0)
(1.15458 0.0226904 0)
(1.15446 0.02333 0)
(1.15435 0.0239727 0)
(1.15426 0.0246185 0)
(1.15419 0.0252698 0)
(1.15413 0.0259235 0)
(1.1541 0.026578 0)
(1.15409 0.0272306 0)
(1.1541 0.0278824 0)
(1.15413 0.0285309 0)
(1.15417 0.0291756 0)
(1.15423 0.0298169 0)
(1.15431 0.0304515 0)
(1.15439 0.0310798 0)
(1.1545 0.0317044 0)
(1.15462 0.0323245 0)
(1.15476 0.0329335 0)
(0.912279 0.00201262 0)
(0.935432 0.00214342 0)
(0.959861 0.00434017 0)
(0.98533 0.00641815 0)
(1.01153 0.00847152 0)
(1.0381 0.0105902 0)
(1.06458 0.012794 0)
(1.09041 0.0150554 0)
(1.11474 0.0173228 0)
(1.13627 0.0194502 0)
(1.14744 0.0211228 0)
(1.14849 0.0219431 0)
(1.14831 0.0226965 0)
(1.14816 0.0235456 0)
(1.14805 0.0243936 0)
(1.14797 0.0252401 0)
(1.14792 0.0260834 0)
(1.1479 0.026925 0)
(1.14791 0.0277614 0)
(1.14795 0.0285919 0)
(1.148 0.0294227 0)
(1.14808 0.0302422 0)
(1.14819 0.0310599 0)
(1.1483 0.0318739 0)
(1.14843 0.0326751 0)
(1.14859 0.0334747 0)
(1.14874 0.0342647 0)
(1.14893 0.0350447 0)
(1.14913 0.0358275 -1.22961e-026)
(0.899023 0.00167655 0)
(0.921514 0.00218519 0)
(0.945316 0.00415562 0)
(0.970186 0.00608397 0)
(0.99581 0.00798707 0)
(1.02185 0.00992823 0)
(1.0479 0.0119246 0)
(1.07347 0.0139575 0)
(1.09787 0.0159884 0)
(1.12008 0.0180003 0)
(1.1356 0.0199242 0)
(1.13904 0.0212682 0)
(1.13902 0.0223327 0)
(1.1389 0.023481 0)
(1.1388 0.0246284 0)
(1.13877 0.0257619 0)
(1.13875 0.0268856 0)
(1.13877 0.0279872 0)
(1.13885 0.0290783 0)
(1.13891 0.0301588 0)
(1.13904 0.0312162 0)
(1.13919 0.0322685 0)
(1.13933 0.0333081 0)
(1.13955 0.0343224 0)
(1.13976 0.035343 0)
(1.13996 0.036333 0)
(1.14026 0.0373113 0)
(1.14052 0.0382852 0)
(1.1408 0.0392322 1.29878e-026)
(0.887019 0.00132384 0)
(0.909045 0.00228082 0)
(0.932366 0.00409371 0)
(0.956785 0.00592456 0)
(0.982036 0.00775355 0)
(1.00777 0.00961311 0)
(1.03358 0.0115102 0)
(1.059 0.0134293 0)
(1.08341 0.0153392 0)
(1.10588 0.0172217 0)
(1.12337 0.0191748 0)
(1.12867 0.0208457 0)
(1.12898 0.0222068 0)
(1.12897 0.0236129 0)
(1.12905 0.0250364 0)
(1.12908 0.0264459 0)
(1.1292 0.02782 0)
(1.12938 0.0291862 0)
(1.12947 0.0305302 0)
(1.12974 0.0318352 0)
(1.12995 0.0331492 0)
(1.13014 0.0344207 0)
(1.13051 0.0356629 0)
(1.13074 0.0369283 0)
(1.13105 0.0381174 0)
(1.1315 0.0393166 0)
(1.13178 0.0405066 0)
(1.13221 0.0416271 0)
(1.13269 0.0427732 1.41708e-026)
(0.875497 0.00112847 0)
(0.897169 0.00247816 0)
(0.92015 0.00430452 0)
(0.944214 0.00616127 0)
(0.969113 0.00802938 0)
(0.994567 0.00993043 0)
(1.02021 0.0118687 0)
(1.04557 0.013828 0)
(1.07003 0.0157777 0)
(1.0927 0.0176828 0)
(1.11119 0.0196988 0)
(1.11776 0.0215918 0)
(1.11837 0.0231346 0)
(1.11868 0.0247425 0)
(1.11877 0.0263689 0)
(1.11913 0.0279652 0)
(1.11941 0.029567 0)
(1.11959 0.0311299 0)
(1.12015 0.0326509 0)
(1.12034 0.0342064 0)
(1.12074 0.0356781 0)
(1.12135 0.0371363 0)
(1.12152 0.0386446 0)
(1.12212 0.0399959 0)
(1.12273 0.0414454 0)
(1.12299 0.0428324 0)
(1.12375 0.0441288 0)
(1.12433 0.0455208 0)
(1.12473 0.0467933 -1.49734e-026)
(0.863694 0.00107709 0)
(0.885064 0.00275221 0)
(0.907772 0.00472402 0)
(0.931591 0.00672028 0)
(0.956253 0.00872972 0)
(0.981455 0.0107655 0)
(1.00687 0.0128336 0)
(1.03211 0.0149264 0)
(1.05658 0.0170167 0)
(1.07941 0.0190581 0)
(1.09846 0.0212321 0)
(1.10581 0.0233174 0)
(1.10691 0.0250763 0)
(1.10699 0.0268518 0)
(1.10772 0.0286676 0)
(1.10792 0.0304889 0)
(1.1083 0.0322629 0)
(1.10918 0.0339869 0)
(1.10919 0.0357889 0)
(1.11003 0.0374353 0)
(1.11077 0.0391207 0)
(1.11083 0.0408752 0)
(1.11198 0.0423487 0)
(1.11251 0.0440964 0)
(1.11281 0.0456367 0)
(1.1141 0.0471078 0)
(1.11455 0.048775 0)
(1.11512 0.0501543 0)
(1.11639 0.0516549 -1.63914e-026)
(0.851311 0.00112161 0)
(0.872402 0.00307538 0)
(0.894858 0.00526111 0)
(0.918457 0.00746449 0)
(0.942933 0.00968062 0)
(0.967984 0.0119193 0)
(0.993256 0.0141807 0)
(1.01834 0.0164559 0)
(1.04274 0.0187252 0)
(1.06563 0.0209411 0)
(1.08508 0.0233117 0)
(1.09312 0.0256724 0)
(1.09386 0.0276359 0)
(1.09507 0.029626 0)
(1.09487 0.0316867 0)
(1.09579 0.0337196 0)
(1.09674 0.035647 0)
(1.09646 0.0377695 0)
(1.09807 0.0395631 0)
(1.09846 0.0415232 0)
(1.09865 0.0435553 0)
(1.10049 0.045104 0)
(1.10054 0.0472546 0)
(1.10125 0.0488837 0)
(1.10302 0.0505638 0)
(1.10303 0.0525524 0)
(1.10417 0.0539743 0)
(1.10576 0.055779 0)
(1.10591 0.0574197 1.73269e-026)
(0.838213 0.00123154 0)
(0.859031 0.00345625 0)
(0.881249 0.00590584 0)
(0.904644 0.00836912 0)
(0.928955 0.0108443 0)
(0.953881 0.0133403 0)
(0.979074 0.0158542 0)
(1.00412 0.0183744 0)
(1.0285 0.0208767 0)
(1.05144 0.0233208 0)
(1.07105 0.0259276 0)
(1.07908 0.0285808 0)
(1.08148 0.0307095 0)
(1.08079 0.0330562 0)
(1.08262 0.0353521 0)
(1.08307 0.0374938 0)
(1.08284 0.0400484 0)
(1.08527 0.0418928 0)
(1.08496 0.0442924 0)
(1.08579 0.0465921 0)
(1.088 0.0481936 0)
(1.08749 0.0509325 0)
(1.08902 0.0525418 0)
(1.09085 0.0545437 0)
(1.09056 0.0569461 0)
(1.09249 0.0583155 0)
(1.09402 0.0605975 0)
(1.0941 0.062389 0)
(1.09624 0.0640646 0)
(0.82425 0.00139475 0)
(0.84479 0.00390894 0)
(0.866768 0.00667634 0)
(0.889966 0.00945739 0)
(0.914125 0.0122495 0)
(0.938943 0.0150623 0)
(0.964075 0.0178923 0)
(0.989102 0.0207244 0)
(1.01349 0.0235267 0)
(1.03645 0.0262371 0)
(1.0563 0.0291769 0)
(1.06592 0.0319759 0)
(1.06575 0.0347537 0)
(1.06851 0.0370719 0)
(1.06815 0.0395687 0)
(1.06874 0.0425709 0)
(1.07151 0.0444397 0)
(1.07059 0.0474546 0)
(1.07227 0.0498752 0)
(1.07432 0.0516518 0)
(1.07375 0.055095 0)
(1.07594 0.0564792 0)
(1.07765 0.0590601 0)
(1.07749 0.0618139 0)
(1.07994 0.0630703 0)
(1.08134 0.066023 0)
(1.08169 0.0678292 0)
(1.08425 0.0697503 0)
(1.08542 0.0720492 0)
(0.809282 0.00159832 0)
(0.829528 0.00443379 0)
(0.851256 0.00757181 0)
(0.874251 0.0107255 0)
(0.898255 0.0138892 0)
(0.92297 0.0170734 0)
(0.948057 0.0202741 0)
(0.973117 0.0234744 0)
(0.99765 0.0266443 0)
(1.02092 0.029736 0)
(1.04114 0.0329221 0)
(1.0487 0.0365061 0)
(1.05319 0.0389428 0)
(1.05249 0.0418482 0)
(1.0538 0.0452228 0)
(1.05622 0.047143 0)
(1.0552 0.0509414 0)
(1.05755 0.0532818 0)
(1.05954 0.0555241 0)
(1.05917 0.0595284 0)
(1.06171 0.060799 0)
(1.06348 0.064009 0)
(1.06352 0.0669403 0)
(1.06628 0.0683229 0)
(1.06789 0.0719445 0)
(1.06847 0.0736506 0)
(1.07114 0.0759876 0)
(1.07281 0.0785955 0)
(1.07374 0.0804487 0)
(0.793217 0.00183661 4.97979e-026)
(0.81315 0.00503278 0)
(0.834617 0.0085954 0)
(0.857403 0.0121774 0)
(0.881252 0.0157698 0)
(0.905871 0.0193852 0)
(0.930915 0.0230209 0)
(0.955971 0.0266584 0)
(0.980494 0.0302544 0)
(1.00366 0.0337171 0)
(1.0236 0.0375278 0)
(1.03565 0.0408763 0)
(1.03554 0.0442741 0)
(1.03694 0.0477813 0)
(1.03958 0.04996 0)
(1.03902 0.0545759 0)
(1.0417 0.0569485 0)
(1.04355 0.0597044 0)
(1.04328 0.0640495 0)
(1.04605 0.0654865 0)
(1.0484 0.0693697 0)
(1.04845 0.07245 0)
(1.05125 0.074284 0)
(1.05341 0.0782848 0)
(1.05411 0.0801703 0)
(1.05683 0.0829476 0)
(1.05933 0.0857999 0)
(1.06007 0.0880652 0)
(1.06315 0.09073 0)
(0.775981 0.00210498 1.74171e-027)
(0.795577 0.0057031 0)
(0.816759 0.00974123 0)
(0.839314 0.0138023 0)
(0.862987 0.0178723 0)
(0.887484 0.0219647 0)
(0.91247 0.0260737 0)
(0.937557 0.0301762 0)
(0.962289 0.0342342 0)
(0.986095 0.0381826 0)
(1.00787 0.0420794 0)
(1.01529 0.0468123 0)
(1.01896 0.0503487 0)
(1.02252 0.0528253 0)
(1.02166 0.058172 0)
(1.02361 0.0604896 0)
(1.0263 0.0641492 0)
(1.02656 0.0684908 0)
(1.02923 0.0706906 0)
(1.03199 0.0748945 0)
(1.03184 0.0783399 0)
(1.03458 0.0805639 0)
(1.03788 0.0846439 0)
(1.03864 0.0872682 0)
(1.04132 0.0902849 0)
(1.04453 0.0933737 0)
(1.045 0.0962624 0)
(1.04842 0.0986795 0)
(1.05164 0.101426 0)
(0.757547 0.00240148 -5.76861e-026)
(0.776784 0.00644497 0)
(0.79767 0.0110104 0)
(0.819995 0.0156026 0)
(0.843509 0.0202036 0)
(0.867928 0.0248296 0)
(0.892922 0.0294783 0)
(0.918097 0.0341279 0)
(0.94293 0.0387291 0)
(0.966557 0.0431815 0)
(0.986381 0.0481085 0)
(0.999034 0.0526525 0)
(1.00407 0.0557395 0)
(1.00207 0.0614286 0)
(1.00407 0.0641073 0)
(1.00872 0.0684936 0)
(1.0088 0.0729254 0)
(1.01019 0.0763231 0)
(1.01387 0.0800434 0)
(1.01422 0.0844148 0)
(1.01732 0.0871593 0)
(1.02161 0.091116 0)
(1.02168 0.0951024 0)
(1.02389 0.097718 0)
(1.0284 0.101384 0)
(1.02922 0.104986 0)
(1.03287 0.107022 0)
(1.03701 0.111086 0)
(1.03742 0.114025 0)
(0.737879 0.00273424 0)
(0.756731 0.00727104 0)
(0.777295 0.0124239 0)
(0.799362 0.0176091 0)
(0.82268 0.0228042 0)
(0.846955 0.0280277 0)
(0.871847 0.0332736 0)
(0.896953 0.0385113 0)
(0.921795 0.0436869 0)
(0.945869 0.0487414 0)
(0.968976 0.0536584 0)
(0.981026 0.0586845 0)
(0.980539 0.0646273 0)
(0.984543 0.0677567 0)
(0.989934 0.0721872 0)
(0.988564 0.0775143 0)
(0.989213 0.0819483 0)
(0.995339 0.0849062 0)
(0.996313 0.0909467 0)
(0.998278 0.0938323 0)
(1.0031 0.0978465 0)
(1.00278 0.103404 0)
(1.00561 0.105131 0)
(1.01182 0.109806 0)
(1.01281 0.114367 0)
(1.01585 0.115816 0)
(1.02022 0.121307 0)
(1.02105 0.123983 0)
(1.02594 0.126263 0)
(0.716948 0.00309259 -7.15145e-026)
(0.73539 0.00816683 0)
(0.755612 0.0139566 0)
(0.77741 0.0197823 0)
(0.800539 0.0256153 0)
(0.824722 0.0314755 0)
(0.849651 0.0373573 0)
(0.874976 0.0432295 0)
(0.90028 0.0490244 0)
(0.924932 0.0545676 0)
(0.946715 0.0607965 0)
(0.956389 0.0671793 0)
(0.964329 0.0711345 0)
(0.968947 0.0757221 0)
(0.966235 0.0824085 0)
(0.967908 0.0869444 0)
(0.975934 0.0899295 0)
(0.976575 0.0975224 0)
(0.97685 0.10038 0)
(0.982585 0.104692 0)
(0.983365 0.111851 0)
(0.987803 0.112658 0)
(0.993512 0.118769 0)
(0.993746 0.123956 0)
(0.996984 0.124815 0)
(1.00195 0.13183 0)
(1.00422 0.13443 0)
(1.01034 0.136983 0)
(1.01296 0.142275 6.56211e-026)
(0.694797 0.00348351 -2.53428e-027)
(0.712806 0.00914252 0)
(0.732672 0.0156269 0)
(0.754191 0.0221535 0)
(0.777122 0.0286906 0)
(0.801184 0.0352635 0)
(0.826048 0.0418684 0)
(0.851317 0.0484754 0)
(0.87647 0.0550384 0)
(0.900761 0.0615363 0)
(0.922675 0.067858 0)
(0.94001 0.0740654 0)
(0.945119 0.0794146 0)
(0.94232 0.0868515 0)
(0.946664 0.0909189 0)
(0.954688 0.0951209 0)
(0.953961 0.104018 0)
(0.954695 0.1065 0)
(0.960993 0.112148 0)
(0.962902 0.119629 0)
(0.968676 0.120498 0)
(0.971544 0.128073 0)
(0.972611 0.133097 0)
(0.978815 0.134623 0)
(0.982819 0.143277 0)
(0.986038 0.14475 0)
(0.992207 0.148207 0)
(0.99371 0.154429 0)
(0.999708 0.156828 1.33345e-027)
(0.671415 0.00390471 8.30583e-026)
(0.688963 0.0101953 0)
(0.708439 0.0174289 0)
(0.729644 0.0247108 0)
(0.752338 0.0320044 0)
(0.776242 0.0393363 0)
(0.801043 0.0466992 0)
(0.82638 0.0540483 0)
(0.851852 0.0612852 0)
(0.877098 0.0681882 0)
(0.90248 0.0755995 0)
(0.91605 0.0825453 0)
(0.916831 0.090749 0)
(0.925195 0.0946687 0)
(0.930768 0.100776 0)
(0.928666 0.109889 0)
(0.932484 0.111673 0)
(0.93788 0.120585 0)
(0.941168 0.126136 0)
(0.946801 0.128521 0)
(0.947546 0.13843 0)
(0.951904 0.141315 0)
(0.959535 0.145925 0)
(0.96091 0.153697 0)
(0.966489 0.15461 0)
(0.972866 0.161316 0)
(0.974494 0.166452 0)
(0.981582 0.169545 0)
(0.985256 0.173654 -7.50689e-026)
(0.646877 0.0043448 0)
(0.663942 0.0113075 0)
(0.683016 0.019332 0)
(0.703905 0.0274094 0)
(0.726379 0.0354987 0)
(0.750173 0.0436299 0)
(0.774999 0.0517967 0)
(0.800533 0.0599634 0)
(0.8264 0.0680754 0)
(0.85201 0.0760271 0)
(0.874494 0.0841569 0)
(0.887988 0.0933465 0)
(0.901173 0.0978813 0)
(0.903876 0.106594 0)
(0.90304 0.113513 0)
(0.910529 0.117546 0)
(0.912031 0.128868 0)
(0.917765 0.131506 0)
(0.922452 0.137568 0)
(0.92314 0.148002 0)
(0.930333 0.149032 0)
(0.935893 0.157773 0)
(0.938559 0.162752 0)
(0.947269 0.166196 0)
(0.950084 0.175305 0)
(0.953353 0.177512 0)
(0.961352 0.183288 0)
(0.965869 0.187395 0)
(0.972632 0.191963 0)
(0.621249 0.00481377 0)
(0.637808 0.0124938 0)
(0.656456 0.021362 0)
(0.677 0.0302923 0)
(0.699212 0.0392425 0)
(0.722821 0.0482495 0)
(0.747515 0.0573084 0)
(0.772904 0.0663747 0)
(0.798478 0.075363 0)
(0.823618 0.0841304 0)
(0.848919 0.0931923 0)
(0.870964 0.100453 0)
(0.873754 0.111662 0)
(0.877366 0.115698 0)
(0.88465 0.124684 0)
(0.885 0.134643 0)
(0.892839 0.136941 0)
(0.8965 0.14739 0)
(0.897904 0.154862 0)
(0.907318 0.157858 0)
(0.909931 0.16955 0)
(0.916001 0.171386 0)
(0.923142 0.179376 0)
(0.925536 0.187049 0)
(0.932596 0.189157 0)
(0.940474 0.19816 0)
(0.944417 0.200879 0)
(0.952565 0.206539 0)
(0.958155 0.212771 8.86687e-026)
(0.594617 0.00528984 0)
(0.610648 0.0137207 0)
(0.628844 0.0234605 0)
(0.649018 0.0332685 0)
(0.670951 0.0431 0)
(0.694388 0.052994 0)
(0.719054 0.0629425 0)
(0.74466 0.0728969 0)
(0.770937 0.0827619 0)
(0.797662 0.0923492 0)
(0.82354 0.101907 0)
(0.837468 0.113461 0)
(0.850734 0.118702 0)
(0.855834 0.130924 0)
(0.856819 0.138379 0)
(0.866628 0.14273 0)
(0.868317 0.156667 0)
(0.872486 0.160229 0)
(0.881191 0.168093 0)
(0.883043 0.179312 0)
(0.891144 0.180962 0)
(0.896907 0.191998 0)
(0.900323 0.197221 0)
(0.910664 0.202535 0)
(0.916543 0.211702 0)
(0.921611 0.214804 0)
(0.931497 0.222209 0)
(0.934485 0.227013 0)
(0.943355 0.230815 1.31919e-027)
(0.567119 0.00577871 0)
(0.582606 0.0149938 0)
(0.600334 0.0256356 0)
(0.620123 0.0363537 0)
(0.641758 0.0471043 0)
(0.664989 0.0579318 0)
(0.689526 0.0688291 0)
(0.715021 0.0797488 0)
(0.74102 0.0906139 0)
(0.766927 0.101201 0)
(0.792472 0.112602 0)
(0.81684 0.1212 0)
(0.823134 0.13507 0)
(0.827763 0.141101 0)
(0.83865 0.148841 0)
(0.838868 0.162792 0)
(0.846113 0.166092 0)
(0.85098 0.178427 0)
(0.853819 0.186585 0)
(0.865316 0.189893 0)
(0.870873 0.204815 0)
(0.875989 0.207565 0)
(0.884292 0.21653 0)
(0.887595 0.224002 0)
(0.898877 0.229265 0)
(0.906953 0.23724 0)
(0.911672 0.241737 0)
(0.92358 0.249089 0)
(0.928557 0.25396 -2.03574e-025)
(0.538879 0.00626496 0)
(0.553805 0.016291 0)
(0.571043 0.0278505 0)
(0.59042 0.0394946 0)
(0.611731 0.0511822 0)
(0.634738 0.0629618 0)
(0.659182 0.0748247 0)
(0.68478 0.0867197 0)
(0.711255 0.0985606 0)
(0.738375 0.110226 0)
(0.765714 0.121148 0)
(0.78302 0.136014 0)
(0.797995 0.143168 0)
(0.807832 0.154177 0)
(0.806584 0.166529 0)
(0.816234 0.171129 0)
(0.820195 0.187422 0)
(0.827557 0.192243 0)
(0.838201 0.201278 0)
(0.838784 0.214246 0)
(0.847686 0.216785 0)
(0.854765 0.230922 0)
(0.86234 0.235041 0)
(0.874787 0.244294 0)
(0.878471 0.251708 0)
(0.888456 0.256591 0)
(0.898478 0.267093 0)
(0.903605 0.270224 0)
(0.915387 0.276399 -1.1577e-027)
(0.51006 0.00674449 0)
(0.524415 0.0176028 0)
(0.541147 0.0300872 0)
(0.560089 0.0426666 0)
(0.581046 0.0553066 0)
(0.603787 0.0680631 0)
(0.628044 0.0809331 0)
(0.653498 0.0938687 0)
(0.679747 0.106786 0)
(0.706245 0.119526 0)
(0.732054 0.133276 0)
(0.759034 0.142885 0)
(0.771027 0.158392 0)
(0.774523 0.167139 0)
(0.787482 0.17754 0)
(0.787584 0.193198 0)
(0.798551 0.196904 0)
(0.803318 0.211576 0)
(0.807323 0.220598 0)
(0.821925 0.228123 0)
(0.824485 0.243729 0)
(0.835171 0.245165 0)
(0.843036 0.25908 0)
(0.849612 0.264424 0)
(0.862879 0.272831 0)
(0.870214 0.283917 0)
(0.878603 0.285914 0)
(0.89351 0.296261 0)
(0.899034 0.301584 1.16607e-025)
(0.480831 0.00720311 0)
(0.494605 0.0189054 0)
(0.510812 0.0323028 0)
(0.529294 0.0458037 0)
(0.549863 0.05938 0)
(0.572299 0.0730887 0)
(0.59635 0.0869198 0)
(0.621741 0.100816 0)
(0.648207 0.114665 0)
(0.675687 0.12821 0)
(0.70541 0.14112 0)
(0.725075 0.157674 0)
(0.741839 0.16766 0)
(0.752907 0.183507 0)
(0.753685 0.194605 0)
(0.766331 0.200927 0)
(0.767566 0.220223 0)
(0.780194 0.225717 0)
(0.787849 0.24079 0)
(0.791244 0.250317 0)
(0.805297 0.25567 0)
(0.811034 0.274583 0)
(0.823247 0.276096 0)
(0.833786 0.290476 0)
(0.838985 0.296193 0)
(0.852611 0.303728 0)
(0.864886 0.315573 0)
(0.873333 0.318295 0)
(0.888736 0.327991 1.25723e-025)
(0.451382 0.00763347 0)
(0.464573 0.0201869 0)
(0.480248 0.0344774 0)
(0.498256 0.0488811 0)
(0.518427 0.063381 0)
(0.540554 0.0780399 0)
(0.564403 0.0928509 0)
(0.589709 0.107764 0)
(0.616157 0.122706 0)
(0.643295 0.137543 0)
(0.669125 0.153287 0)
(0.697641 0.166599 0)
(0.712008 0.184639 0)
(0.718422 0.192983 0)
(0.734185 0.206756 0)
(0.734127 0.225129 0)
(0.747465 0.231025 0)
(0.749028 0.24791 0)
(0.760351 0.254441 0)
(0.774592 0.271681 0)
(0.77781 0.282894 0)
(0.791533 0.287243 0)
(0.798157 0.305805 0)
(0.810138 0.308843 0)
(0.825676 0.324647 0)
(0.831152 0.330352 0)
(0.846053 0.336184 0)
(0.860587 0.349044 0)
(0.869811 0.351953 -1.33465e-025)
(0.421891 0.00802794 0)
(0.434501 0.021434 0)
(0.449632 0.0365871 0)
(0.467142 0.051865 0)
(0.486873 0.0672662 0)
(0.508626 0.0828587 0)
(0.532165 0.09864 0)
(0.557221 0.114569 0)
(0.583497 0.130564 0)
(0.610778 0.146436 0)
(0.640966 0.161663 0)
(0.662874 0.1801 0)
(0.682653 0.19047 0)
(0.695997 0.210846 0)
(0.697685 0.224357 0)
(0.712746 0.232852 0)
(0.713173 0.254038 0)
(0.729607 0.260897 0)
(0.733549 0.28084 0)
(0.742776 0.286902 0)
(0.759989 0.3023 0)
(0.764065 0.31867 0)
(0.779441 0.321659 0)
(0.788175 0.339995 0)
(0.800538 0.343704 0)
(0.820706 0.358409 0)
(0.826068 0.366029 0)
(0.841454 0.371287 0)
(0.857796 0.384609 1.43147e-025)
(0.392549 0.00837067 0)
(0.404583 0.022621 0)
(0.419166 0.0385859 0)
(0.436165 0.0546844 0)
(0.455437 0.070931 0)
(0.476793 0.0873941 0)
(0.500011 0.104068 0)
(0.524839 0.120904 0)
(0.551013 0.137811 0)
(0.578321 0.154694 0)
(0.604671 0.172391 0)
(0.635629 0.187509 0)
(0.649291 0.211006 0)
(0.661878 0.218202 0)
(0.676543 0.23797 0)
(0.67646 0.25462 0)
(0.69255 0.264013 0)
(0.694217 0.286455 0)
(0.711344 0.292533 0)
(0.718604 0.314992 0)
(0.727131 0.323015 0)
(0.747468 0.335966 0)
(0.75272 0.354557 0)
(0.769859 0.357098 0)
(0.780202 0.376681 0)
(0.793494 0.381145 0)
(0.816948 0.395815 0)
(0.823243 0.403105 0)
(0.839266 0.408065 -3.04329e-025)
(0.363542 0.00865667 0)
(0.375013 0.0237392 0)
(0.389047 0.0404597 0)
(0.405526 0.0573242 0)
(0.424319 0.0743678 0)
(0.445246 0.0916613 0)
(0.468088 0.109202 0)
(0.492587 0.126963 0)
(0.518433 0.144912 0)
(0.545241 0.162708 0)
(0.575803 0.180523 0)
(0.597575 0.200963 0)
(0.622837 0.212856 0)
(0.631653 0.238263 0)
(0.638704 0.249433 0)
(0.656575 0.268696 0)
(0.656735 0.288007 0)
(0.673911 0.297498 0)
(0.676081 0.320528 0)
(0.693937 0.326814 0)
(0.705648 0.351579 0)
(0.713986 0.360901 0)
(0.736098 0.372166 0)
(0.742634 0.392882 0)
(0.763186 0.39647 0)
(0.775121 0.415006 0)
(0.789064 0.420029 0)
(0.815697 0.43503 0)
(0.82339 0.44198 3.16317e-028)
(0.335046 0.00887344 0)
(0.345968 0.0247686 0)
(0.359458 0.0421729 0)
(0.375413 0.0597284 0)
(0.393713 0.0774921 0)
(0.41419 0.095532 0)
(0.436632 0.11384 0)
(0.4608 0.132376 0)
(0.486443 0.15105 0)
(0.513507 0.169952 0)
(0.539741 0.188644 0)
(0.571277 0.207884 0)
(0.585432 0.232006 0)
(0.603221 0.243712 0)
(0.612932 0.268724 0)
(0.616652 0.282249 0)
(0.635553 0.298657 0)
(0.636334 0.321479 0)
(0.656737 0.33445 0)
(0.659995 0.358387 0)
(0.678401 0.364108 0)
(0.6949 0.390071 0)
(0.703239 0.401608 0)
(0.727224 0.412485 0)
(0.734418 0.431679 0)
(0.758391 0.438431 0)
(0.773661 0.456075 0)
(0.788261 0.461815 0)
(0.818354 0.47532 7.52946e-028)
(0.307231 0.00901463 0)
(0.317624 0.0256972 0)
(0.330581 0.0437056 0)
(0.346014 0.061871 0)
(0.363821 0.0802757 0)
(0.383837 0.098985 0)
(0.405855 0.117995 0)
(0.429638 0.137287 0)
(0.454905 0.156885 0)
(0.481009 0.176369 0)
(0.510204 0.197111 0)
(0.531326 0.217546 0)
(0.5603 0.236052 0)
(0.56628 0.26181 0)
(0.580036 0.273173 0)
(0.593018 0.3017 0)
(0.595271 0.319675 0)
(0.61598 0.335382 0)
(0.617846 0.358301 0)
(0.640073 0.372547 0)
(0.646413 0.398115 0)
(0.664461 0.404345 0)
(0.685298 0.430505 0)
(0.694384 0.444988 0)
(0.721247 0.455315 0)
(0.730497 0.474519 0)
(0.757303 0.481831 0)
(0.775915 0.498439 0)
(0.792157 0.504817 1.82283e-025)
(0.280243 0.00907847 0)
(0.290135 0.0265165 0)
(0.302573 0.0450395 0)
(0.317493 0.0637254 0)
(0.334804 0.082684 0)
(0.354343 0.101975 0)
(0.375894 0.121595 0)
(0.399203 0.141536 0)
(0.423972 0.161712 0)
(0.450448 0.182378 0)
(0.475359 0.202539 0)
(0.506656 0.225553 0)
(0.518054 0.247139 0)
(0.543045 0.268656 0)
(0.544761 0.29601 0)
(0.557046 0.30734 0)
(0.572565 0.335693 0)
(0.574194 0.356822 0)
(0.597188 0.37297 0)
(0.601116 0.397941 0)
(0.626285 0.414006 0)
(0.63514 0.441517 0)
(0.653131 0.448419 0)
(0.678233 0.473882 0)
(0.688728 0.490041 0)
(0.718695 0.500764 0)
(0.730207 0.518366 0)
(0.760338 0.525852 0)
(0.781628 0.543947 -1.90657e-025)
(0.254219 0.00906777 0)
(0.26364 0.0272198 0)
(0.275577 0.0461529 0)
(0.289997 0.0652603 0)
(0.30682 0.0846736 0)
(0.32588 0.104439 0)
(0.346958 0.124555 0)
(0.369812 0.145018 0)
(0.394232 0.165934 0)
(0.419239 0.18671 0)
(0.44687 0.20979 0)
(0.467123 0.230586 0)
(0.494664 0.255545 0)
(0.498568 0.278789 0)
(0.520128 0.299868 0)
(0.523545 0.331456 0)
(0.533229 0.346304 0)
(0.553681 0.373445 0)
(0.55548 0.398037 0)
(0.58135 0.415393 0)
(0.585386 0.44017 0)
(0.613546 0.456993 0)
(0.624268 0.48679 0)
(0.645746 0.495416 0)
(0.674728 0.520942 0)
(0.68753 0.53667 0)
(0.720796 0.549543 0)
(0.73651 0.564766 0)
(0.767115 0.573239 2.03159e-025)
(0.229279 0.00898319 0)
(0.238263 0.0278009 0)
(0.249718 0.0470269 0)
(0.263659 0.0664503 0)
(0.280013 0.0862137 0)
(0.298604 0.106343 0)
(0.319196 0.12684 0)
(0.341502 0.147748 0)
(0.365084 0.168942 0)
(0.390465 0.191255 0)
(0.413765 0.212191 0)
(0.442109 0.238729 0)
(0.452673 0.261273 0)
(0.475695 0.288264 0)
(0.475732 0.314501 0)
(0.497723 0.336467 0)
(0.501299 0.368864 0)
(0.512093 0.3868 0)
(0.535134 0.414216 0)
(0.537961 0.441286 0)
(0.566523 0.460751 0)
(0.572939 0.486686 0)
(0.604785 0.505776 0)
(0.616697 0.53426 0)
(0.642617 0.546272 0)
(0.67467 0.568974 0)
(0.689871 0.586731 0)
(0.7282 0.598834 0)
(0.745731 0.615011 0)
(0.205526 0.0088226 0)
(0.214107 0.0282524 0)
(0.2251 0.0476452 0)
(0.238586 0.067278 0)
(0.254496 0.0872852 0)
(0.27263 0.107665 0)
(0.292725 0.128429 0)
(0.314473 0.149597 0)
(0.337724 0.171436 0)
(0.360984 0.19325 0)
(0.387385 0.218015 0)
(0.4037 0.240791 0)
(0.428792 0.269926 0)
(0.43165 0.295706 0)
(0.453257 0.322045 0)
(0.45096 0.352639 0)
(0.475359 0.375696 0)
(0.480666 0.409857 0)
(0.492941 0.431494 0)
(0.518071 0.45894 0)
(0.523317 0.488869 0)
(0.553152 0.509629 0)
(0.564121 0.536899 0)
(0.598504 0.554758 0)
(0.613027 0.586137 0)
(0.645247 0.598737 0)
(0.678649 0.621763 0)
(0.698982 0.638003 0)
(0.741802 0.650184 2.18998e-025)
(0.18305 0.00858249 0)
(0.191259 0.0285667 0)
(0.201803 0.0479914 0)
(0.214866 0.0677283 0)
(0.230365 0.0878691 0)
(0.248068 0.108379 0)
(0.267682 0.129276 0)
(0.288877 0.150731 0)
(0.310978 0.172375 0)
(0.33479 0.196032 0)
(0.354427 0.218332 0)
(0.378448 0.247657 0)
(0.386756 0.273711 0)
(0.408557 0.302466 0)
(0.410216 0.335091 0)
(0.428239 0.359712 0)
(0.428783 0.394856 0)
(0.453582 0.418179 0)
(0.461052 0.454379 0)
(0.475368 0.478545 0)
(0.503298 0.507054 0)
(0.511072 0.538695 0)
(0.544296 0.561762 0)
(0.559972 0.59003 0)
(0.596309 0.608405 0)
(0.615 0.6406 0)
(0.651547 0.653299 0)
(0.686451 0.677903 0)
(0.715606 0.691539 -6.14172e-027)
(0.161922 0.00825725 0)
(0.169784 0.0287377 0)
(0.179887 0.0480525 0)
(0.192565 0.0677933 0)
(0.207694 0.0879582 0)
(0.224987 0.108479 0)
(0.244105 0.129421 0)
(0.264594 0.150772 0)
(0.286271 0.173471 0)
(0.307098 0.195461 0)
(0.329383 0.224096 0)
(0.341654 0.247858 0)
(0.363081 0.281039 0)
(0.36457 0.31058 0)
(0.384731 0.339373 0)
(0.386903 0.376208 0)
(0.404907 0.401036 0)
(0.407537 0.438798 0)
(0.433776 0.463961 0)
(0.442474 0.502895 0)
(0.460626 0.529099 0)
(0.490436 0.559702 0)
(0.501517 0.591709 0)
(0.54058 0.618328 0)
(0.558883 0.646734 0)
(0.599282 0.667568 0)