/*--------------------------------*- C++ -*----------------------------------*\
| =========                 |                                                 |
| \\      /  F ield         | OpenFOAM: The Open Source CFD Toolbox           |
|  \\    /   O peration     | Version:  5.x                                   |
|   \\  /    A nd           | Web:      www.OpenFOAM.org                      |
|    \\/     M anipulation  |                                                 |
\*---------------------------------------------------------------------------*/
/*   Windows 32 and 64 bit porting by blueCAPE: http://www.bluecape.com.pt   *\
|  Based on Windows porting (2.0.x v4) by Symscape: http://www.symscape.com   |
\*---------------------------------------------------------------------------*/
FoamFile
{
    version     2.0;
    format      ascii;
    class       volScalarField;
    location    "220";
    object      epsilon;
}
// * * * * * * * * * * * * * * * * * * * * * * * * * * * * * * * * * * * * * //

dimensions      [0 2 -3 0 0 0 0];

internalField   nonuniform List<scalar> 
43900
(
0.00152925
0.0015191
0.00151979
0.00151971
0.00151968
0.00151967
0.00151967
0.00151967
0.00151967
0.00151968
0.00151968
0.00151968
0.00151968
0.00151968
0.00151968
0.00151968
0.00151968
0.00151969
0.00151969
0.00151969
0.00151969
0.00151969
0.00151969
0.00151969
0.00151969
0.00151969
0.00151969
0.00151969
0.00151969
0.000413267
3.81598e-005
3.16661e-005
3.15207e-005
3.27307e-005
3.27946e-005
3.28043e-005
3.27868e-005
3.27896e-005
3.27962e-005
3.2799e-005
3.2801e-005
3.28021e-005
3.28034e-005
3.28053e-005
3.28074e-005
3.28085e-005
3.28104e-005
3.28117e-005
3.28123e-005
3.28136e-005
3.28141e-005
3.28145e-005
3.28155e-005
3.28156e-005
3.28159e-005
3.28166e-005
3.28164e-005
3.28165e-005
0.0508241
0.00574393
0.000288406
1.14034e-005
1.70536e-006
1.32785e-006
1.32688e-006
1.40961e-006
1.41874e-006
1.41703e-006
1.41623e-006
1.41662e-006
1.41717e-006
1.41759e-006
1.41794e-006
1.41828e-006
1.41861e-006
1.41891e-006
1.41915e-006
1.41937e-006
1.41955e-006
1.41971e-006
1.41987e-006
1.42e-006
1.42011e-006
1.42024e-006
1.42032e-006
1.42041e-006
1.42049e-006
0.146362
0.0436548
0.00963128
0.00131007
8.25705e-005
3.36339e-006
3.3821e-007
1.22066e-007
1.08335e-007
1.16149e-007
1.19962e-007
1.19922e-007
1.19429e-007
1.19492e-007
1.19652e-007
1.19682e-007
1.19704e-007
1.1974e-007
1.19775e-007
1.19804e-007
1.1983e-007
1.19855e-007
1.19877e-007
1.19898e-007
1.19919e-007
1.19935e-007
1.19953e-007
1.19969e-007
1.1998e-007
0.198181
0.0847397
0.0339667
0.0113033
0.00265842
0.000356755
2.2087e-005
9.28172e-007
7.97576e-008
2.1561e-008
1.64142e-008
1.75631e-008
1.86535e-008
1.85827e-008
1.83861e-008
1.84366e-008
1.84863e-008
1.84894e-008
1.84918e-008
1.84961e-008
1.85012e-008
1.85063e-008
1.85104e-008
1.85141e-008
1.85182e-008
1.85222e-008
1.8525e-008
1.85284e-008
1.85316e-008
0.222771
0.109003
0.0531517
0.024975
0.0104143
0.00326442
0.000679599
7.13395e-005
3.76242e-006
1.72631e-007
1.72021e-008
5.17064e-009
4.12855e-009
4.54339e-009
4.78222e-009
4.69306e-009
4.64779e-009
4.66305e-009
4.66927e-009
4.66921e-009
4.67002e-009
4.67158e-009
4.67239e-009
4.67328e-009
4.67465e-009
4.67545e-009
4.67617e-009
4.67746e-009
4.67808e-009
0.235157
0.124116
0.0663428
0.0354066
0.0184109
0.00891161
0.00354541
0.000957548
0.000146448
1.0686e-005
5.24425e-007
2.76818e-008
3.81493e-009
1.64948e-009
1.56642e-009
1.719e-009
1.72859e-009
1.69847e-009
1.69741e-009
1.70117e-009
1.70274e-009
1.70331e-009
1.70359e-009
1.70399e-009
1.7044e-009
1.70477e-009
1.70511e-009
1.70547e-009
1.7057e-009
0.238267
0.131587
0.0740052
0.0420362
0.0238133
0.0131889
0.00688359
0.00312041
0.00100203
0.000201047
1.95998e-005
1.09686e-006
5.60536e-008
3.95274e-009
1.00183e-009
7.14113e-010
7.9534e-010
8.39041e-010
8.272e-010
8.19548e-010
8.18926e-010
8.1909e-010
8.1928e-010
8.19392e-010
8.19618e-010
8.19842e-010
8.19982e-010
8.20198e-010
8.20304e-010
0.23779
0.135867
0.0792293
0.0468877
0.0279351
0.0165695
0.00961728
0.00530314
0.00261853
0.000970408
0.000222397
2.56376e-005
1.618e-006
8.78378e-008
5.32462e-009
8.22452e-010
4.28957e-010
4.33591e-010
4.64059e-010
4.66632e-010
4.65929e-010
4.65937e-010
4.66032e-010
4.66155e-010
4.66297e-010
4.66367e-010
4.66469e-010
4.66626e-010
4.66723e-010
0.233789
0.136569
0.0816221
0.0496682
0.030593
0.0189311
0.0116467
0.00701181
0.00402152
0.00208133
0.00084329
0.000208311
2.64253e-005
1.83196e-006
1.07072e-007
6.60102e-009
7.10266e-010
2.96894e-010
2.6066e-010
2.80263e-010
2.83427e-010
2.83107e-010
2.83125e-010
2.83245e-010
2.83338e-010
2.83404e-010
2.83475e-010
2.83622e-010
2.83725e-010
0.227283
0.135156
0.0821956
0.0509966
0.0321244
0.0204333
0.0130294
0.0082454
0.00509959
0.00300332
0.0016005
0.00068045
0.000174137
2.32053e-005
1.74124e-006
1.10989e-007
7.2637e-009
6.77095e-010
2.28274e-010
1.71407e-010
1.80179e-010
1.83221e-010
1.83328e-010
1.8336e-010
1.83424e-010
1.83482e-010
1.83554e-010
1.8364e-010
1.8371e-010
0.219823
0.132606
0.0818558
0.0515765
0.0330509
0.0214453
0.0140148
0.00915991
0.00592814
0.00374158
0.00224459
0.00121757
0.000528632
0.000136147
1.85194e-005
1.49307e-006
1.04344e-007
7.3753e-009
6.62615e-010
1.84007e-010
1.30107e-010
1.3051e-010
1.32041e-010
1.32264e-010
1.32297e-010
1.32346e-010
1.32392e-010
1.32453e-010
1.32519e-010
0.211346
0.129095
0.0807026
0.0514868
0.0334552
0.0220533
0.0146838
0.00982322
0.00655613
0.00432165
0.00277055
0.00168296
0.000920706
0.000400084
0.000101038
1.36496e-005
1.162e-006
8.79406e-008
6.66747e-009
6.12713e-010
1.52881e-010
1.09398e-010
1.05221e-010
1.05892e-010
1.06138e-010
1.06182e-010
1.06231e-010
1.06292e-010
1.06323e-010
0.201971
0.124694
0.0787949
0.0508584
0.0334097
0.0223047
0.0150732
0.0102648
0.0070062
0.0047582
0.00318214
0.00206232
0.00126034
0.000688099
0.000292472
7.03686e-005
9.18461e-006
8.10409e-007
6.54086e-008
5.28684e-009
5.12402e-010
1.32472e-010
9.93703e-011
9.50808e-011
9.48142e-011
9.48173e-011
9.48232e-011
9.48335e-011
9.48596e-011
0.19196
0.119592
0.0762742
0.0497072
0.0330127
0.022262
0.0152228
0.0105145
0.00730105
0.0050681
0.00349029
0.00235872
0.00153769
0.000938764
0.000505291
0.000203639
4.51451e-005
5.56696e-006
5.0415e-007
4.27759e-008
3.64502e-009
3.87604e-010
1.18029e-010
9.53354e-011
9.2922e-011
9.27142e-011
9.27144e-011
9.27155e-011
9.27193e-011
0.181508
0.113987
0.0732823
0.0481581
0.0322697
0.02199
0.0151824
0.0106045
0.00746524
0.00527004
0.00370866
0.00258061
0.0017546
0.00114392
0.000691529
0.000360993
0.000131402
2.58485e-005
2.98268e-006
2.76368e-007
2.45848e-008
2.23375e-009
2.78798e-010
1.09673e-010
9.51884e-011
9.3955e-011
9.38403e-011
9.38399e-011
9.38443e-011
0.170804
0.10804
0.0699613
0.0463157
0.0312783
0.0214961
0.0149931
0.0105727
0.00752475
0.00538443
0.00385305
0.00273967
0.00191846
0.00130563
0.000845164
0.000500052
0.00024733
7.60149e-005
1.28775e-005
1.41987e-006
1.37253e-007
1.293e-008
1.27955e-009
2.07464e-010
1.09917e-010
1.01096e-010
1.00228e-010
1.00128e-010
1.0009e-010
0.15999
0.101878
0.0664143
0.0442696
0.030109
0.0208491
0.0146633
0.0104446
0.00750495
0.0054298
0.0039385
0.00284809
0.00203888
0.00143057
0.000968948
0.000617485
0.000352286
0.000159134
3.96792e-005
5.78168e-006
6.31312e-007
6.40168e-008
6.4268e-009
7.3338e-010
1.79105e-010
1.25464e-010
1.19952e-010
1.19186e-010
1.19166e-010
0.149196
0.0956132
0.0627302
0.0420879
0.0288185
0.0200957
0.014239
0.0102265
0.00742247
0.0054214
0.0039777
0.0029161
0.0021237
0.00152428
0.0010659
0.000713087
0.00044196
0.000237319
9.13847e-005
1.86565e-005
2.45041e-006
2.73102e-007
2.93132e-008
3.21718e-009
4.82284e-010
1.99885e-010
1.70319e-010
1.66421e-010
1.65771e-010
0.138536
0.0893398
0.0589834
0.0398286
0.0274518
0.0192733
0.0137534
0.009952
0.00728322
0.00537398
0.00397961
0.00295248
0.00218131
0.00159427
0.00114217
0.00079108
0.000517751
0.000306761
0.000148752
4.52257e-005
7.7477e-006
9.84052e-007
1.1467e-007
1.32052e-008
1.71275e-009
4.32781e-010
2.904e-010
2.72369e-010
2.69895e-010
0.128087
0.0831243
0.055228
0.0375344
0.0260422
0.0184086
0.0132291
0.00964307
0.00711212
0.00529259
0.00396109
0.00296871
0.00222022
0.00164717
0.00120305
0.000855555
0.000582308
0.000368074
0.000203225
8.36162e-005
1.97927e-005
3.02762e-006
3.91176e-007
4.8372e-008
6.22492e-009
1.17872e-009
5.81118e-010
5.03402e-010
4.90567e-010
0.117908
0.077016
0.0515033
0.0352358
0.0246137
0.01752
0.0126806
0.00931154
0.00692035
0.00519176
0.00391981
0.00296685
0.00224398
0.00168698
0.00125239
0.000909821
0.000638005
0.000422214
0.000252768
0.000124014
4.0174e-005
7.72102e-006
1.1409e-006
1.55374e-007
2.11773e-008
3.5697e-009
1.30622e-009
1.00301e-009
9.56392e-010
0.108045
0.0710529
0.0478386
0.0329554
0.0231834
0.016621
0.0121186
0.00896612
0.00671556
0.00507905
0.00386809
0.00295698
0.00225962
0.00171908
0.00129465
0.000957743
0.000688224
0.000471975
0.000299434
0.000164584
6.73368e-005
1.7062e-005
2.95012e-006
4.44157e-007
6.51932e-008
1.0834e-008
3.21221e-009
2.11046e-009
1.92841e-009
0.0985424
0.0652663
0.0442566
0.0307094
0.0217633
0.0157204
0.0115498
0.00861202
0.00650191
0.00495796
0.00380824
0.00293765
0.00226779
0.00174499
0.00133162
0.00100111
0.00073457
0.00051863
0.000344035
0.000204803
9.81378e-005
3.19571e-005
6.77781e-006
1.15347e-006
1.84604e-007
3.14741e-008
8.24164e-009
4.73475e-009
4.10101e-009
0.0894399
0.0596844
0.0407768
0.0285115
0.0203628
0.0148248
0.010979
0.00825293
0.0062823
0.00483103
0.00374317
0.00291388
0.00227171
0.00176715
0.00136541
0.00104182
0.000778763
0.000563659
0.000387681
0.000244967
0.000132141
5.22178e-005
1.35464e-005
2.66298e-006
4.73637e-007
8.61425e-008
2.13835e-008
1.09443e-008
9.20945e-009
0.080773
0.0543311
0.0374152
0.0263723
0.0189891
0.0139392
0.0104096
0.00789118
0.00605851
0.00469967
0.00367407
0.00288683
0.00227279
0.00178719
0.00139764
0.00108147
0.000822363
0.000608556
0.000431687
0.000286055
0.000168117
7.84029e-005
2.53596e-005
5.76853e-006
1.13344e-006
2.21254e-007
5.45589e-008
2.59302e-008
2.09045e-008
0.0725718
0.0492269
0.0341855
0.0243008
0.0176479
0.0130671
0.00984375
0.00752808
0.00583128
0.00456433
0.00360125
0.00285663
0.00227162
0.00180556
0.00142891
0.0011208
0.000866212
0.000654242
0.000477053
0.000329174
0.000207138
0.000109063
4.26809e-005
1.1774e-005
2.58587e-006
5.40903e-007
1.3329e-007
6.16276e-008
4.86965e-008
0.0648616
0.0443892
0.0310994
0.0223046
0.0163441
0.0122114
0.00928294
0.00716428
0.00560074
0.00442483
0.0035244
0.00282307
0.00226807
0.00182219
0.00145914
0.00115981
0.000910393
0.000700854
0.000523917
0.000374444
0.000249152
0.00014569
6.6398e-005
2.18537e-005
5.5297e-006
1.26229e-006
3.12426e-007
1.19756e-007
8.6385e-008
0.057662
0.0398326
0.028167
0.0203906
0.0150819
0.0113746
0.00872861
0.00680035
0.00536689
0.00428083
0.00344298
0.00278546
0.00226112
0.00183646
0.00148788
0.00119815
0.000954676
0.000748262
0.000572201
0.000421693
0.000293572
0.000186036
9.85351e-005
3.84549e-005
1.12073e-005
2.8221e-006
7.11795e-007
2.30113e-007
1.27152e-007
0.050986
0.0355682
0.025397
0.0185649
0.0138657
0.0105596
0.00818233
0.00643704
0.00512991
0.0041321
0.00335648
0.00274309
0.00225005
0.00184763
0.00151458
0.0012354
0.000998767
0.00079631
0.000621898
0.000471088
0.000340819
0.000229229
0.00013593
6.40809e-005
2.18515e-005
6.08513e-006
1.5982e-006
4.66819e-007
1.9839e-007
0.0448388
0.0316029
0.0227956
0.0168326
0.0126993
0.00976883
0.00764575
0.00607525
0.00489011
0.00397856
0.00326455
0.0026955
0.00223447
0.00185518
0.00153865
0.00127107
0.00104226
0.000844706
0.000672838
0.000522597
0.00039112
0.000276581
0.000177795
9.6922e-005
4.06533e-005
1.27529e-005
3.56007e-006
1.00651e-006
3.47962e-007
0.0392182
0.0279395
0.0203671
0.0151978
0.0115858
0.00900491
0.00712057
0.00571599
0.00464799
0.00382028
0.00316696
0.00264223
0.00221365
0.00185799
0.00155927
0.00130444
0.00108456
0.000892929
0.000724576
0.000575831
0.000444077
0.000327594
0.000225363
0.000136952
6.7667e-005
2.54582e-005
7.78276e-006
2.24535e-006
6.92468e-007
0.034115
0.024577
0.0181133
0.0136633
0.0105282
0.00827009
0.00660849
0.00536039
0.00440413
0.00365738
0.00306345
0.0025827
0.00218695
0.0018559
0.0015756
0.00133458
0.00112477
0.000940195
0.000776426
0.000630188
0.000499127
0.000381664
0.000276902
0.000184416
0.000105053
4.67804e-005
1.63613e-005
5.04183e-006
1.50583e-006
0.0295139
0.0215106
0.0160343
0.0122308
0.00952864
0.00756644
0.00611118
0.00500963
0.00415925
0.00349019
0.00295407
0.00251686
0.0021543
0.00184896
0.00158752
0.001361
0.00116217
0.000985693
0.000827587
0.000684924
0.000555596
0.000438177
0.000331839
0.00023629
0.000151674
8.05255e-005
3.27288e-005
1.11266e-005
3.41767e-006
0.0253944
0.0187323
0.0141279
0.0109011
0.00858873
0.00689579
0.00563027
0.00466499
0.00391425
0.00331924
0.00283898
0.00244448
0.00211494
0.0018352
0.00159364
0.00138276
0.00119596
0.00102862
0.000877252
0.000739252
0.000612738
0.000496431
0.00038957
0.000291908
0.000203615
0.000125398
6.17269e-005
2.36566e-005
7.78493e-006
0.0217319
0.0162314
0.0123904
0.00967354
0.00770953
0.00625968
0.00516732
0.00432782
0.00367012
0.00314515
0.00271844
0.00236544
0.00206838
0.00181413
0.00159273
0.00139856
0.00122498
0.00106799
0.000924543
0.000792373
0.000669823
0.000555759
0.000449496
0.000350819
0.000259836
0.000177321
0.000104046
4.75323e-005
1.72575e-005
0.0184985
0.0139951
0.0108166
0.0085469
0.00689154
0.00565938
0.00472377
0.00399943
0.00342795
0.00296871
0.00259294
0.00228001
0.00201489
0.00178653
0.00158672
0.00140903
0.00124913
0.0011033
0.000968811
0.000843601
0.000726187
0.000615551
0.000511071
0.000412535
0.000320065
0.000234251
0.000155926
8.68352e-005
3.62751e-005
0.015664
0.0120085
0.0093999
0.00751885
0.00613464
0.00509578
0.00430091
0.00368113
0.00318888
0.0027908
0.00246308
0.00218852
0.00195451
0.00175172
0.00157313
0.00141235
0.00126728
0.00113371
0.00100929
0.000892207
0.000781149
0.000675184
0.000573739
0.000476591
0.000383865
0.000295988
0.000213867
0.000138967
7.12681e-005
0.0131967
0.0102554
0.00813252
0.00658631
0.00543819
0.00456947
0.00389982
0.00337415
0.00295406
0.00261237
0.00232956
0.00209137
0.00188728
0.00170938
0.00155164
0.00140915
0.00127917
0.00115859
0.00104522
0.000937425
0.000833966
0.000733971
0.000636887
0.000542464
0.000450779
0.000362235
0.000277277
0.000198692
0.000122749
0.0110641
0.0087188
0.00700584
0.00574541
0.00480098
0.00408062
0.00352138
0.00307961
0.00272461
0.00243443
0.00219316
0.0019891
0.00181351
0.0016598
0.00152293
0.00139909
0.00128393
0.00117715
0.00107582
0.000978433
0.00088383
0.000791155
0.000699834
0.000609567
0.000520341
0.00043252
0.000346293
0.000264123
0.000185425
0.00923379
0.00738068
0.00601048
0.00499162
0.00422125
0.00362906
0.00316623
0.00279853
0.00250164
0.002258
0.00205475
0.00188236
0.00173362
0.00160305
0.00148638
0.00138022
0.0012813
0.00118878
0.00110028
0.00101436
0.000929856
0.000845896
0.000761833
0.000677266
0.000592059
0.000506441
0.000420647
0.000335807
0.000255054
0.00767353
0.00622292
0.00513647
0.00431984
0.00369679
0.00321422
0.00283473
0.00253175
0.00228619
0.00208413
0.00191528
0.0017719
0.00164813
0.00153941
0.00144219
0.00135365
0.00127154
0.00119261
0.00111772
0.00104425
0.000971072
0.000897257
0.000822046
0.000744881
0.000665437
0.000583721
0.00049999
0.000414461
0.000330857
0.00635222
0.00522737
0.00437348
0.00372449
0.00322489
0.00283516
0.00252698
0.00227995
0.00207923
0.00191388
0.00177574
0.0016586
0.00155769
0.00146932
0.0013905
0.00131887
0.00125247
0.00118882
0.00112758
0.00106722
0.00100644
0.000944185
0.000879507
0.000811625
0.000739945
0.00066415
0.00058431
0.000500289
0.000414516
0.00524015
0.00437626
0.00371107
0.00319968
0.00280251
0.00249061
0.00224281
0.00204361
0.0018816
0.00174827
0.00163717
0.0015434
0.00146314
0.00139336
0.00133166
0.00127603
0.00122483
0.0011767
0.0011283
0.00108198
0.0010347
0.000985408
0.000933018
0.000876495
0.000814897
0.00074747
0.000673849
0.00059364
0.000507827
0.00430946
0.00365245
0.00313885
0.00273929
0.00242629
0.00217899
0.00198178
0.00182303
0.00169404
0.00158825
0.00150065
0.00142738
0.00136542
0.00131235
0.00126624
0.00122544
0.00118858
0.00115441
0.0011214
0.00108793
0.00105477
0.00101958
0.000981147
0.000938161
0.000889276
0.000833185
0.000768835
0.000695287
0.000612353
0.00353449
0.00303977
0.00264675
0.00233721
0.0020927
0.00189849
0.00174322
0.00161829
0.00151713
0.00143474
0.00136725
0.00131168
0.00126566
0.00122732
0.00119511
0.00116775
0.00114411
0.00112323
0.00110433
0.00108471
0.00106561
0.00104526
0.0010222
0.00099487
0.000961521
0.000920246
0.000869082
0.000806057
0.0007298
0.00289196
0.00252324
0.00222518
0.00198743
0.00179812
0.00164713
0.00152632
0.00142938
0.00135143
0.00128867
0.00123817
0.00119763
0.00116526
0.00113963
0.00111955
0.00110404
0.00109229
0.00108349
0.00107703
0.00107217
0.00106584
0.00106097
0.00105438
0.00104454
0.0010294
0.00100661
0.000973387
0.000926104
0.000861743
0.00236112
0.0020892
0.00186523
0.00168421
0.00153903
0.00142293
0.00133021
0.00125628
0.00119753
0.00115112
0.00111483
0.00108694
0.00106609
0.00105123
0.00104154
0.00103619
0.00103484
0.00103664
0.0010414
0.00104881
0.00105779
0.00106663
0.00107669
0.00108541
0.00109015
0.00108866
0.00107922
0.00105487
0.00100881
0.00192379
0.00172546
0.00155878
0.00142224
0.00131214
0.0012241
0.00115422
0.00109922
0.00105641
0.00102368
0.000999312
0.000982055
0.000970877
0.000965063
0.000964157
0.000967155
0.00097449
0.000985746
0.00100051
0.00101876
0.00104034
0.00106387
0.00108983
0.00111721
0.00114405
0.00116768
0.00118473
0.00118434
0.00116697
0.00156433
0.00142137
0.00129866
0.00119687
0.00111461
0.00104927
0.000998214
0.000959093
0.000929869
0.000908887
0.000894784
0.000886695
0.000883739
0.000885523
0.000891576
0.000902162
0.000916932
0.000935971
0.000959282
0.000987038
0.00101948
0.00105654
0.00109764
0.00114291
0.00119183
0.00124178
0.00129029
0.00132565
0.00133549
0.00126957
0.00116789
0.00107881
0.00100424
0.000944418
0.000897935
0.000863046
0.000838
0.000821096
0.000810949
0.000806233
0.000806598
0.000810698
0.000819281
0.000831836
0.000848642
0.000869842
0.000895733
0.000926627
0.000963
0.00100559
0.001055
0.00111017
0.00117206
0.00124239
0.0013187
0.0014016
0.00147526
0.00153341
0.00102873
0.000957638
0.000894438
0.000841645
0.000800631
0.000770828
0.000751029
0.000739764
0.000735343
0.000736438
0.000741355
0.000750142
0.000761797
0.000776823
0.000795484
0.000818357
0.000845891
0.000878712
0.000917434
0.000962952
0.00101483
0.00107487
0.0011446
0.00122584
0.00131833
0.00142157
0.00154299
0.0016553
0.00178187
0.000833393
0.000784983
0.000742156
0.000707659
0.000683657
0.000670175
0.000666267
0.000670385
0.0006806
0.000695188
0.000712271
0.000731248
0.000751814
0.000774626
0.000800317
0.000829795
0.000864269
0.000904889
0.000952512
0.00100864
0.0010741
0.00115167
0.00124072
0.00134842
0.0014706
0.00161272
0.00178526
0.00193869
0.00217346
0.000677331
0.000645988
0.000619992
0.00060213
0.000595159
0.000599588
0.000614459
0.000638615
0.000668977
0.000702593
0.00073647
0.000769995
0.000803167
0.000837144
0.000873766
0.000915107
0.000962932
0.00101944
0.00108589
0.00116562
0.00125798
0.00137166
0.00149762
0.00166039
0.00183366
0.00205353
0.0023164
0.00254365
0.00300075
0.000556205
0.000538108
0.000527013
0.000525701
0.000537305
0.000563476
0.000603704
0.000655747
0.000716112
0.000781274
0.000847298
0.000911299
0.000972774
0.00103349
0.00109677
0.00116692
0.0012479
0.00134495
0.00146046
0.00160376
0.00176978
0.0019865
0.0022164
0.00254971
0.00286092
0.00334136
0.00382051
0.0043344
0.00536401
0.000466812
0.000459466
0.0004625
0.000478577
0.000512525
0.000566742
0.000641688
0.000737687
0.000851967
0.000979376
0.0011136
0.00124901
0.00138342
0.00151895
0.00166175
0.00182126
0.00200754
0.00223559
0.00251367
0.00287226
0.00329917
0.00388853
0.0045223
0.00553159
0.00642555
0.00811464
0.00943682
0.0119318
0.0147861
0.000406097
0.000407859
0.000424906
0.000460646
0.000521484
0.000612475
0.000739463
0.000906665
0.00111564
0.00136385
0.00164506
0.00195183
0.00228107
0.00263638
0.00303131
0.00348923
0.00404016
0.00473023
0.00559969
0.00674406
0.00818146
0.0101721
0.0125418
0.0161596
0.0200063
0.0268133
0.0332174
0.0470635
0.0589805
0.000370486
0.000380132
0.000411955
0.000469699
0.000563337
0.000703654
0.000903943
0.00117881
0.00154219
0.00200449
0.00257129
0.0032452
0.00403164
0.00494886
0.00603548
0.00735353
0.00899101
0.0110727
0.0137532
0.0172659
0.0218525
0.0279943
0.0360403
0.0472047
0.0619122
0.0835131
0.112677
0.162328
0.221334
0.000356469
0.000373023
0.000420683
0.000503056
0.000636174
0.000838339
0.00113558
0.00156063
0.00215187
0.00295032
0.00399722
0.00533459
0.00701234
0.0091017
0.0117095
0.0149909
0.0191722
0.024546
0.0315465
0.0406716
0.0528017
0.0687102
0.0905741
0.119401
0.16197
0.217786
0.314367
0.436916
0.661718
0.00151969
0.00151969
0.00151969
0.00151969
0.00151969
0.00151969
0.00151969
0.00151969
0.00151969
0.00151969
0.00151969
0.00151969
0.00151969
0.00151969
0.00151969
0.0015197
0.0015197
0.0015197
0.0015197
0.0015197
0.0015197
0.0015197
0.0015197
0.0015197
0.0015197
0.0015197
0.0015197
0.0015197
0.0015197
0.0015197
0.0015197
0.0015197
0.0015197
0.0015197
0.0015197
0.0015197
0.0015197
0.0015197
0.0015197
0.0015197
0.0015197
0.0015197
0.0015197
0.0015197
0.0015197
0.0015197
0.0015197
0.0015197
0.0015197
0.0015197
0.0015197
0.0015197
0.0015197
0.0015197
0.0015197
0.0015197
0.0015197
0.0015197
0.0015197
0.0015197
0.0015197
0.0015197
0.0015197
0.0015197
0.0015197
0.0015197
0.0015197
0.0015197
0.00151971
0.00151971
0.00151971
0.00151971
0.00151971
0.00151971
0.00151971
0.00151971
0.00151971
0.00151971
0.00151971
0.00151971
0.00151971
0.00151971
0.00151971
0.00151971
0.00151971
0.00151971
0.00151971
0.00151971
0.00151971
0.00151971
0.00151971
0.00151971
0.00151971
0.00151971
0.00151971
0.00151971
0.00151971
0.00151971
0.00151971
0.00151971
0.00151971
0.00151971
0.00151971
0.00151971
0.00151971
0.00151971
0.00151971
0.00151971
0.00151971
0.00151971
0.00151971
0.00151971
0.00151971
0.00151971
0.00151971
0.00151971
0.00151971
0.00151971
0.00151971
0.00151971
0.00151971
0.00151971
0.00151971
0.00151971
0.00151971
0.00151971
0.00151971
0.00151971
0.00151971
0.00151971
0.00151971
0.00151971
0.00151971
0.00151972
0.00151971
0.00151972
0.00151972
0.00151973
0.00154206
3.2817e-005
3.28167e-005
3.28168e-005
3.28179e-005
3.28182e-005
3.28174e-005
3.28169e-005
3.28176e-005
3.28189e-005
3.28193e-005
3.28186e-005
3.28176e-005
3.28177e-005
3.28193e-005
3.28211e-005
3.28223e-005
3.28231e-005
3.28238e-005
3.28242e-005
3.28245e-005
3.28246e-005
3.28244e-005
3.28241e-005
3.28237e-005
3.28233e-005
3.2823e-005
3.2823e-005
3.28231e-005
3.28234e-005
3.28238e-005
3.28241e-005
3.28244e-005
3.28248e-005
3.28251e-005
3.28254e-005
3.28257e-005
3.2826e-005
3.28264e-005
3.28267e-005
3.2827e-005
3.28273e-005
3.28275e-005
3.28278e-005
3.28281e-005
3.28284e-005
3.28287e-005
3.2829e-005
3.28292e-005
3.28295e-005
3.28298e-005
3.283e-005
3.28303e-005
3.28306e-005
3.28308e-005
3.28311e-005
3.28314e-005
3.28317e-005
3.2832e-005
3.28323e-005
3.28326e-005
3.28329e-005
3.28332e-005
3.28335e-005
3.28338e-005
3.28341e-005
3.28343e-005
3.28346e-005
3.28349e-005
3.28352e-005
3.28354e-005
3.28357e-005
3.2836e-005
3.28362e-005
3.28365e-005
3.28367e-005
3.2837e-005
3.28372e-005
3.28375e-005
3.28378e-005
3.2838e-005
3.28383e-005
3.28385e-005
3.28387e-005
3.2839e-005
3.28392e-005
3.28393e-005
3.28395e-005
3.28397e-005
3.28398e-005
3.28399e-005
3.284e-005
3.284e-005
3.28401e-005
3.28401e-005
3.28401e-005
3.28401e-005
3.284e-005
3.284e-005
3.28399e-005
3.28398e-005
3.28397e-005
3.28396e-005
3.28395e-005
3.28393e-005
3.28392e-005
3.2839e-005
3.28389e-005
3.28387e-005
3.28385e-005
3.28383e-005
3.28381e-005
3.28379e-005
3.28376e-005
3.28373e-005
3.28369e-005
3.28364e-005
3.28359e-005
3.28354e-005
3.28352e-005
3.28353e-005
3.28355e-005
3.28357e-005
3.28361e-005
3.28365e-005
3.28368e-005
3.28372e-005
3.28375e-005
3.28381e-005
3.28385e-005
3.28392e-005
3.28404e-005
3.28412e-005
3.28425e-005
3.28466e-005
3.28447e-005
3.28495e-005
3.28638e-005
3.28619e-005
3.37056e-005
1.42056e-006
1.42069e-006
1.4208e-006
1.42086e-006
1.4209e-006
1.42098e-006
1.4211e-006
1.42118e-006
1.42121e-006
1.42122e-006
1.42127e-006
1.42138e-006
1.42148e-006
1.42154e-006
1.42156e-006
1.42157e-006
1.4216e-006
1.42164e-006
1.42169e-006
1.42173e-006
1.42178e-006
1.42183e-006
1.42189e-006
1.42195e-006
1.42203e-006
1.42211e-006
1.42218e-006
1.42224e-006
1.4223e-006
1.42236e-006
1.42241e-006
1.42246e-006
1.42251e-006
1.42256e-006
1.42261e-006
1.42266e-006
1.42271e-006
1.42276e-006
1.42281e-006
1.42287e-006
1.42292e-006
1.42298e-006
1.42304e-006
1.42309e-006
1.42315e-006
1.4232e-006
1.42325e-006
1.42331e-006
1.42336e-006
1.42342e-006
1.42347e-006
1.42353e-006
1.42358e-006
1.42364e-006
1.42369e-006
1.42374e-006
1.4238e-006
1.42385e-006
1.4239e-006
1.42395e-006
1.42399e-006
1.42404e-006
1.42408e-006
1.42413e-006
1.42417e-006
1.42421e-006
1.42426e-006
1.4243e-006
1.42434e-006
1.42438e-006
1.42442e-006
1.42446e-006
1.4245e-006
1.42454e-006
1.42458e-006
1.42461e-006
1.42465e-006
1.42468e-006
1.42471e-006
1.42474e-006
1.42477e-006
1.4248e-006
1.42483e-006
1.42485e-006
1.42488e-006
1.42491e-006
1.42493e-006
1.42496e-006
1.42498e-006
1.42501e-006
1.42504e-006
1.42506e-006
1.42508e-006
1.42509e-006
1.4251e-006
1.42511e-006
1.42512e-006
1.42512e-006
1.42512e-006
1.42512e-006
1.42511e-006
1.4251e-006
1.42509e-006
1.42508e-006
1.42506e-006
1.42504e-006
1.42502e-006
1.42499e-006
1.42496e-006
1.42492e-006
1.42488e-006
1.42485e-006
1.42481e-006
1.42476e-006
1.4247e-006
1.42465e-006
1.42459e-006
1.42455e-006
1.42452e-006
1.4245e-006
1.42448e-006
1.42445e-006
1.42441e-006
1.42439e-006
1.42433e-006
1.42431e-006
1.42428e-006
1.4242e-006
1.42422e-006
1.42423e-006
1.42418e-006
1.42437e-006
1.42415e-006
1.42461e-006
1.42502e-006
1.42675e-006
1.33435e-006
1.34352e-006
8.38813e-006
1.19999e-007
1.20018e-007
1.20032e-007
1.20049e-007
1.2007e-007
1.20083e-007
1.2009e-007
1.201e-007
1.20117e-007
1.20136e-007
1.20149e-007
1.20155e-007
1.20161e-007
1.20173e-007
1.20193e-007
1.20213e-007
1.20229e-007
1.20243e-007
1.20255e-007
1.20266e-007
1.20278e-007
1.20291e-007
1.20303e-007
1.20313e-007
1.20323e-007
1.20332e-007
1.20341e-007
1.20352e-007
1.20364e-007
1.20377e-007
1.20391e-007
1.20404e-007
1.20417e-007
1.2043e-007
1.20442e-007
1.20454e-007
1.20466e-007
1.20477e-007
1.20489e-007
1.205e-007
1.20512e-007
1.20524e-007
1.20535e-007
1.20547e-007
1.20559e-007
1.20571e-007
1.20582e-007
1.20594e-007
1.20606e-007
1.20617e-007
1.20628e-007
1.20639e-007
1.2065e-007
1.20661e-007
1.20672e-007
1.20683e-007
1.20693e-007
1.20703e-007
1.20713e-007
1.20723e-007
1.20733e-007
1.20743e-007
1.20752e-007
1.20762e-007
1.20771e-007
1.20781e-007
1.2079e-007
1.20799e-007
1.20807e-007
1.20816e-007
1.20824e-007
1.20833e-007
1.20841e-007
1.20849e-007
1.20856e-007
1.20864e-007
1.20871e-007
1.20878e-007
1.20885e-007
1.20892e-007
1.20898e-007
1.20904e-007
1.20911e-007
1.20916e-007
1.20922e-007
1.20927e-007
1.20932e-007
1.20936e-007
1.20941e-007
1.20947e-007
1.20952e-007
1.20957e-007
1.20962e-007
1.20966e-007
1.2097e-007
1.20973e-007
1.20976e-007
1.20978e-007
1.2098e-007
1.20982e-007
1.20982e-007
1.20982e-007
1.20982e-007
1.20981e-007
1.20979e-007
1.20976e-007
1.20973e-007
1.20969e-007
1.20965e-007
1.20959e-007
1.20952e-007
1.20945e-007
1.20938e-007
1.20929e-007
1.20919e-007
1.20908e-007
1.20898e-007
1.20889e-007
1.2088e-007
1.2087e-007
1.2086e-007
1.2085e-007
1.20833e-007
1.20823e-007
1.20803e-007
1.2079e-007
1.20775e-007
1.2076e-007
1.20729e-007
1.20749e-007
1.20777e-007
1.20543e-007
1.20739e-007
1.21585e-007
1.18884e-007
1.09808e-007
3.33423e-007
3.24209e-005
0.00308288
1.85344e-008
1.85386e-008
1.8543e-008
1.85466e-008
1.85487e-008
1.85512e-008
1.85557e-008
1.85597e-008
1.85635e-008
1.85651e-008
1.85669e-008
1.85707e-008
1.85753e-008
1.85793e-008
1.85835e-008
1.85859e-008
1.85887e-008
1.85917e-008
1.85947e-008
1.8598e-008
1.86015e-008
1.86049e-008
1.86082e-008
1.86115e-008
1.8615e-008
1.8619e-008
1.8623e-008
1.8627e-008
1.86308e-008
1.86344e-008
1.8638e-008
1.86417e-008
1.86454e-008
1.86492e-008
1.8653e-008
1.86568e-008
1.86605e-008
1.86642e-008
1.86679e-008
1.86716e-008
1.86754e-008
1.86791e-008
1.86828e-008
1.86864e-008
1.869e-008
1.86936e-008
1.86971e-008
1.87006e-008
1.8704e-008
1.87074e-008
1.87108e-008
1.87142e-008
1.87175e-008
1.87208e-008
1.8724e-008
1.87272e-008
1.87303e-008
1.87334e-008
1.87365e-008
1.87395e-008
1.87425e-008
1.87455e-008
1.87485e-008
1.87515e-008
1.87544e-008
1.87572e-008
1.876e-008
1.87628e-008
1.87655e-008
1.87682e-008
1.87708e-008
1.87734e-008
1.8776e-008
1.87783e-008
1.87809e-008
1.87831e-008
1.87854e-008
1.87877e-008
1.87898e-008
1.87919e-008
1.87939e-008
1.87959e-008
1.87977e-008
1.87995e-008
1.88012e-008
1.88028e-008
1.88043e-008
1.88057e-008
1.88071e-008
1.88086e-008
1.88101e-008
1.88116e-008
1.8813e-008
1.88143e-008
1.88155e-008
1.88167e-008
1.88177e-008
1.88187e-008
1.88195e-008
1.88202e-008
1.88208e-008
1.88212e-008
1.88215e-008
1.88217e-008
1.88216e-008
1.88214e-008
1.8821e-008
1.88205e-008
1.88197e-008
1.88187e-008
1.88174e-008
1.88157e-008
1.88138e-008
1.88116e-008
1.88091e-008
1.88064e-008
1.88035e-008
1.88007e-008
1.87978e-008
1.87948e-008
1.87914e-008
1.87877e-008
1.87828e-008
1.87788e-008
1.87726e-008
1.87675e-008
1.87605e-008
1.87552e-008
1.87492e-008
1.8758e-008
1.86412e-008
1.89841e-008
1.88234e-008
1.65344e-008
2.02438e-008
2.1747e-007
2.0335e-005
0.00133171
0.022864
4.67901e-009
4.68046e-009
4.68137e-009
4.68227e-009
4.68359e-009
4.68486e-009
4.68618e-009
4.68669e-009
4.68757e-009
4.68878e-009
4.6902e-009
4.69166e-009
4.69249e-009
4.69323e-009
4.6944e-009
4.69586e-009
4.69718e-009
4.69845e-009
4.69976e-009
4.70105e-009
4.70233e-009
4.70365e-009
4.70507e-009
4.70656e-009
4.70808e-009
4.70956e-009
4.71095e-009
4.71236e-009
4.71383e-009
4.7154e-009
4.71697e-009
4.71854e-009
4.72012e-009
4.72169e-009
4.72324e-009
4.72479e-009
4.72634e-009
4.7279e-009
4.72945e-009
4.73098e-009
4.73249e-009
4.73401e-009
4.73552e-009
4.73704e-009
4.73856e-009
4.74007e-009
4.74158e-009
4.74307e-009
4.74455e-009
4.74602e-009
4.74746e-009
4.7489e-009
4.75031e-009
4.75172e-009
4.75311e-009