/*--------------------------------*- C++ -*----------------------------------*\
| =========                 |                                                 |
| \\      /  F ield         | OpenFOAM: The Open Source CFD Toolbox           |
|  \\    /   O peration     | Version:  5.x                                   |
|   \\  /    A nd           | Web:      www.OpenFOAM.org                      |
|    \\/     M anipulation  |                                                 |
\*---------------------------------------------------------------------------*/
/*   Windows 32 and 64 bit porting by blueCAPE: http://www.bluecape.com.pt   *\
|  Based on Windows porting (2.0.x v4) by Symscape: http://www.symscape.com   |
\*---------------------------------------------------------------------------*/
FoamFile
{
    version     2.0;
    format      ascii;
    class       volScalarField;
    location    "220";
    object      k;
}
// * * * * * * * * * * * * * * * * * * * * * * * * * * * * * * * * * * * * * //

dimensions      [0 2 -2 0 0 0 0];

internalField   nonuniform List<scalar> 
43900
(
0.000985513
0.00098944
0.000990249
0.000990178
0.000990127
0.000990116
0.000990119
0.000990117
0.00099012
0.000990125
0.000990127
0.000990129
0.000990129
0.00099013
0.000990132
0.000990133
0.000990134
0.000990135
0.000990136
0.000990137
0.000990138
0.000990138
0.000990138
0.000990139
0.000990139
0.000990139
0.00099014
0.00099014
0.00099014
0.00164656
5.59245e-005
3.89316e-005
3.81735e-005
4.08135e-005
4.09688e-005
4.09869e-005
4.09506e-005
4.09534e-005
4.09614e-005
4.09652e-005
4.09679e-005
4.09694e-005
4.09713e-005
4.09738e-005
4.09765e-005
4.09781e-005
4.09805e-005
4.09822e-005
4.0983e-005
4.09848e-005
4.09854e-005
4.0986e-005
4.09872e-005
4.09874e-005
4.09878e-005
4.09887e-005
4.09885e-005
4.09888e-005
0.294289
0.0539161
0.00408189
0.000116738
4.97071e-006
3.08362e-006
2.9785e-006
3.34466e-006
3.38112e-006
3.37393e-006
3.36965e-006
3.37058e-006
3.37225e-006
3.37324e-006
3.37401e-006
3.37483e-006
3.37564e-006
3.37635e-006
3.37691e-006
3.37745e-006
3.37787e-006
3.37824e-006
3.37863e-006
3.37893e-006
3.37921e-006
3.3795e-006
3.37971e-006
3.37993e-006
3.38011e-006
0.879206
0.375817
0.119576
0.0236695
0.0020552
8.11683e-005
3.94883e-006
5.87045e-007
4.56083e-007
5.03597e-007
5.34515e-007
5.3432e-007
5.30047e-007
5.30354e-007
5.31479e-007
5.31533e-007
5.31542e-007
5.31697e-007
5.31853e-007
5.31974e-007
5.32087e-007
5.32199e-007
5.32291e-007
5.32386e-007
5.32472e-007
5.32546e-007
5.32624e-007
5.32692e-007
5.32742e-007
1.292
0.740638
0.395725
0.177134
0.0562581
0.0102896
0.000808769
3.58983e-005
1.60238e-006
2.16919e-007
1.27573e-007
1.32627e-007
1.48299e-007
1.47493e-007
1.445e-007
1.45234e-007
1.45934e-007
1.45918e-007
1.45916e-007
1.45949e-007
1.45989e-007
1.46027e-007
1.46059e-007
1.46086e-007
1.46117e-007
1.46147e-007
1.46168e-007
1.46194e-007
1.46217e-007
1.54544
0.982297
0.614896
0.368106
0.197269
0.0816771
0.0222777
0.00302316
0.000185524
8.65061e-006
4.52458e-007
8.38771e-008
5.2858e-008
5.71427e-008
6.32901e-008
6.10587e-008
5.98664e-008
6.02586e-008
6.03931e-008
6.03747e-008
6.03774e-008
6.03948e-008
6.04055e-008
6.04168e-008
6.04319e-008
6.04414e-008
6.04508e-008
6.04651e-008
6.04726e-008
1.71603
1.15327
0.775509
0.515339
0.331441
0.198508
0.0999091
0.0344033
0.00676115
0.000593929
3.1626e-005
1.60181e-006
1.14225e-007
3.61943e-008
2.83957e-008
3.30412e-008
3.39478e-008
3.27422e-008
3.27092e-008
3.28757e-008
3.29278e-008
3.29388e-008
3.29446e-008
3.29514e-008
3.2958e-008
3.29654e-008
3.29714e-008
3.29768e-008
3.29808e-008
1.81252
1.25829
0.879247
0.613981
0.423892
0.284506
0.180094
0.100972
0.0419736
0.0105927
0.00125396
7.68845e-005
4.05103e-006
2.32428e-007
3.45144e-008
2.02383e-008
2.08662e-008
2.32418e-008
2.2659e-008
2.21549e-008
2.21145e-008
2.21219e-008
2.21276e-008
2.21297e-008
2.21349e-008
2.21408e-008
2.2144e-008
2.21481e-008
2.21501e-008
1.87979
1.33621
0.958587
0.690685
0.496474
0.352679
0.244037
0.160493
0.0954508
0.0446947
0.0127935
0.00179535
0.000125173
7.1082e-006
4.14785e-007
3.884e-008
1.65824e-008
1.41322e-008
1.59445e-008
1.64887e-008
1.64108e-008
1.63799e-008
1.63787e-008
1.63822e-008
1.63856e-008
1.63861e-008
1.6389e-008
1.63944e-008
1.63979e-008
1.90544
1.37663
1.00584
0.740501
0.546631
0.402063
0.292087
0.206818
0.139575
0.0858938
0.0431203
0.0131952
0.00202698
0.000155101
9.49064e-006
5.84422e-007
4.74835e-008
1.47611e-008
1.09245e-008
1.14082e-008
1.18738e-008
1.19199e-008
1.19208e-008
1.19254e-008
1.19284e-008
1.19301e-008
1.19325e-008
1.19386e-008
1.19431e-008
1.90813
1.39487
1.03227
0.771201
0.579475
0.435901
0.326284
0.240981
0.173383
0.118956
0.0746868
0.0388798
0.0122261
0.0019525
0.000160462
1.06652e-005
7.07598e-007
5.65729e-008
1.28176e-008
9.05132e-009
8.59906e-009
8.74977e-009
8.80566e-009
8.81449e-009
8.81714e-009
8.81924e-009
8.82295e-009
8.82724e-009
8.83007e-009
1.90033
1.4027
1.04876
0.792383
0.603171
0.460939
0.352047
0.267142
0.199736
0.145308
0.100727
0.0639144
0.0337377
0.010591
0.00170238
0.000148584
1.07746e-005
7.75693e-007
6.31008e-008
1.20477e-008
8.12932e-009
7.54832e-009
7.49312e-009
7.49608e-009
7.49684e-009
7.49726e-009
7.49808e-009
7.49944e-009
7.50181e-009
1.87972
1.39903
1.05487
0.804404
0.618762
0.478693
0.371143
0.287108
0.220293
0.166263
0.121882
0.0849677
0.0540779
0.0284632
0.00869286
0.00136496
0.000124152
9.69949e-006
7.48409e-007
6.38041e-008
1.17318e-008
7.70038e-009
7.33271e-009
7.28703e-009
7.2836e-009
7.28359e-009
7.28365e-009
7.28395e-009
7.28483e-009
1.84751
1.38529
1.05216
0.808386
0.627133
0.489971
0.384369
0.301679
0.235831
0.182517
0.138659
0.102063
0.0711968
0.045067
0.0232117
0.0066973
0.000996134
9.26138e-005
7.67489e-006
6.2891e-007
5.69994e-008
1.12259e-008
7.6149e-009
7.33411e-009
7.31288e-009
7.31156e-009
7.31157e-009
7.31162e-009
7.3124e-009
1.80575
1.36219
1.04161
0.805708
0.629355
0.495644
0.392489
0.31156
0.247013
0.194691
0.151603
0.115591
0.085107
0.0590748
0.0368179
0.018073
0.00475249
0.000651881
6.13574e-005
5.31474e-006
4.56472e-007
4.48724e-008
1.05261e-008
7.70344e-009
7.47411e-009
7.45644e-009
7.45553e-009
7.45554e-009
7.45559e-009
1.75621
1.33185
1.02393
0.797012
0.626645
0.496685
0.396329
0.317478
0.254503
0.203393
0.161261
0.126006
0.0961039
0.0704577
0.0483168
0.0292376
0.0130813
0.00299978
0.000374114
3.55855e-005
3.21318e-006
2.91728e-007
3.26631e-008
1.00555e-008
8.10531e-009
7.93808e-009
7.91954e-009
7.91775e-009
7.91776e-009
1.70056
1.29578
1.00104
0.783139
0.619394
0.494155
0.396752
0.320209
0.258996
0.209259
0.16821
0.133824
0.104615
0.0795015
0.0577115
0.0387347
0.0223194
0.00847748
0.00162629
0.000188068
1.84735e-005
1.75599e-006
1.71346e-007
2.40807e-008
1.05793e-008
9.34942e-009
9.22235e-009
9.20184e-009
9.19501e-009
1.64018
1.25526
0.974074
0.765581
0.608476
0.488219
0.394595
0.320413
0.261108
0.212852
0.172977
0.139534
0.111092
0.0865949
0.0652753
0.0465965
0.030229
0.0160558
0.00477679
0.000762583
8.58466e-005
8.8287e-006
8.92725e-007
9.90058e-008
2.09923e-008
1.33766e-008
1.25858e-008
1.24608e-008
1.24343e-008
1.57633
1.21143
0.944036
0.745216
0.594996
0.479714
0.389877
0.318715
0.261308
0.214622
0.175986
0.143532
0.115892
0.0920479
0.0712511
0.0529609
0.0368155
0.0226288
0.0103956
0.00242335
0.000337051
3.82728e-005
4.152e-006
4.57097e-007
6.60268e-008
2.5238e-008
2.09188e-008
2.03147e-008
2.01702e-008
1.5101
1.16526
0.911802
0.722822
0.579653
0.469491
0.383422
0.315154
0.260139
0.215003
0.17765
0.146232
0.119426
0.0962604
0.0760096
0.0581435
0.0422912
0.0282269
0.0158681
0.0057362
0.00107399
0.000140412
1.65416e-005
1.91913e-006
2.4967e-007
6.21988e-008
4.11315e-008
3.83884e-008
3.78811e-008
1.4423
1.11749
0.878033
0.698997
0.562991
0.458058
0.375855
0.310479
0.257702
0.214421
0.178378
0.147996
0.122025
0.0995361
0.0798347
0.0624073
0.0468844
0.0330238
0.0207146
0.00996852
0.00270132
0.000434924
5.70924e-005
7.12473e-006
9.27727e-007
1.80174e-007
9.07964e-008
7.90274e-008
7.68241e-008
1.37355
1.06867
0.843216
0.674173
0.545396
0.445761
0.367488
0.305064
0.254528
0.213007
0.178324
0.149036
0.12393
0.102129
0.0829793
0.0659887
0.0507983
0.0371615
0.0249407
0.0140766
0.00529868
0.00110418
0.000167606
2.30716e-005
3.18487e-006
5.56256e-007
2.15308e-007
1.69084e-007
1.61326e-007
1.30433
1.01923
0.80772
0.648672
0.527155
0.432859
0.35856
0.299127
0.250873
0.211114
0.177882
0.149656
0.125395
0.104275
0.0856731
0.0691193
0.0542666
0.0408693
0.0287744
0.0179119
0.00846308
0.00240595
0.000433842
6.62728e-005
9.84573e-006
1.69132e-006
5.39417e-007
3.71068e-007
3.41752e-007
1.23505
0.969487
0.771818
0.622724
0.508462
0.419521
0.34922
0.292806
0.246853
0.208865
0.177005
0.14989
0.126511
0.106089
0.0880417
0.0719282
0.0574172
0.0442696
0.0323271
0.0215111
0.0117926
0.0043561
0.000990094
0.0001722
2.79277e-005
4.90544e-006
1.38481e-006
8.45802e-007
7.4525e-007
1.16607
0.919734
0.735734
0.596507
0.489465
0.405873
0.33958
0.286202
0.242572
0.206377
0.175909
0.149888
0.127398
0.107687
0.0902053
0.0745389
0.0603749
0.047484
0.0357091
0.0249632
0.0151991
0.00685188
0.00194888
0.000395922
7.14766e-005
1.33595e-005
3.56878e-006
1.96936e-006
1.68844e-006
1.09772
0.870209
0.699645
0.570156
0.470267
0.391996
0.329708
0.279377
0.238089
0.203711
0.17467
0.149789
0.128181
0.109179
0.0922674
0.0770559
0.063248
0.0506239
0.039029
0.0283688
0.0185971
0.00982603
0.00353192
0.000846118
0.000170025
3.40765e-005
9.03487e-006
4.69268e-006
3.9096e-006
1.0303
0.821122
0.663702
0.543775
0.450941
0.377942
0.319641
0.272358
0.233425
0.200887
0.173293
0.149563
0.128871
0.110601
0.094277
0.079536
0.0661
0.0537609
0.0423685
0.0318247
0.0220832
0.0130821
0.00572949
0.0017007
0.000384885
8.26534e-005
2.19102e-005
1.13019e-005
9.28033e-006
0.964076
0.772664
0.628034
0.517452
0.431542
0.363742
0.309393
0.26515
0.228579
0.197894
0.171769
0.149208
0.129459
0.11195
0.0962392
0.0819913
0.0689479
0.056914
0.0457468
0.0353509
0.0256782
0.0166677
0.00855119
0.0030783
0.000811475
0.000190501
4.99887e-005
2.16389e-005
1.65513e-005
0.89932
0.725017
0.592764
0.491265
0.412117
0.349421
0.298973
0.257747
0.223537
0.194718
0.170081
0.148717
0.129935
0.113212
0.0981425
0.0844146
0.0717892
0.0600843
0.0491651
0.0389386
0.0293544
0.0203912
0.0120304
0.00521953
0.00161636
0.000418948
0.000110214
3.8867e-005
2.39056e-005
0.836275
0.678354
0.55801
0.465291
0.392714
0.335002
0.288387
0.250146
0.218287
0.191339
0.168206
0.148061
0.130276
0.114369
0.0999701
0.086793
0.0746166
0.0632715
0.0526309
0.0426045
0.0331362
0.0242042
0.0158009
0.00825296
0.0030657
0.000886984
0.000240531
7.47821e-005
3.53912e-005
0.775162
0.632833
0.523882
0.439605
0.373377
0.320511
0.277645
0.242341
0.212814
0.187737
0.166121
0.147217
0.130447
0.115394
0.101702
0.08911
0.0774168
0.0664664
0.0561405
0.0463534
0.0370479
0.0281946
0.0197662
0.0118775
0.00544414
0.00180858
0.000522035
0.000154279
5.83905e-005
0.716176
0.588596
0.490483
0.414277
0.354153
0.305972
0.266755
0.234331
0.207105
0.18389
0.163795
0.146142
0.130406
0.116237
0.10329
0.0913247
0.0801562
0.0696412
0.0596706
0.0501641
0.0410667
0.0323473
0.0239888
0.0159597
0.00867017
0.00351224
0.00111526
0.000332799
0.000109157
0.659481
0.54577
0.457905
0.389373
0.335085
0.291412
0.255727
0.226111
0.201148
0.17978
0.16121
0.144832
0.130185
0.116906
0.104723
0.0934118
0.0828017
0.0727597
0.0631842
0.0539999
0.0451542
0.0366157
0.0283721
0.0204092
0.0127499
0.00620298
0.00227967
0.000725559
0.000225794
0.605214
0.504466
0.426235
0.364957
0.316219
0.276858
0.244576
0.217685
0.194935
0.175389
0.158338
0.143243
0.129693
0.11734
0.105951
0.0953276
0.0853117
0.0757809
0.0666407
0.0578204
0.0492698
0.0409576
0.0328708
0.0250099
0.0173663
0.010096
0.00443066
0.00155872
0.00049369
0.553486
0.464778
0.395551
0.341089
0.297598
0.26234
0.233318
0.209057
0.188459
0.1707
0.155151
0.141331
0.128865
0.117444
0.1069
0.0970087
0.0876304
0.0786542
0.0699933
0.0615816
0.0533713
0.0453318
0.0374482
0.0297225
0.0221638
0.0147784
0.00793782
0.00320917
0.00108973
0.504387
0.42679
0.365924
0.31783
0.279268
0.247891
0.221973
0.200235
0.181719
0.165703
0.151634
0.139084
0.127719
0.117278
0.107575
0.0984357
0.0897252
0.0813405
0.0732001
0.0652414
0.0574182
0.0496996
0.0420689
0.0345259
0.0270794
0.0197608
0.0125688
0.00623521
0.0023517
0.457982
0.390572
0.33742
0.295235
0.261276
0.233546
0.210566
0.191233
0.174719
0.160393
0.147772
0.136481
0.126226
0.116784
0.107924
0.0995623
0.0915528
0.0837981
0.0762211
0.0687616
0.0613743
0.0540275
0.0467023
0.0393947
0.0321122
0.0248802
0.0177237
0.010714
0.00479144
0.414317
0.356184
0.3101
0.27336
0.24367
0.219344
0.199124
0.182068
0.167464
0.154767
0.143554
0.133497
0.124335
0.115857
0.107871
0.100327
0.0930587
0.0859763
0.0790086
0.0720977
0.0651988
0.0582786
0.0513157
0.0443013
0.0372398
0.0301475
0.0230561
0.016053
0.00894698
0.373422
0.323673
0.284018
0.25226
0.226499
0.205325
0.18768
0.172765
0.15997
0.148828
0.138973
0.130119
0.122037
0.114543
0.107489
0.100729
0.0942169
0.0878375
0.0815198
0.0752058
0.0688488
0.0624131
0.0558732
0.0492146
0.042436
0.0355492
0.0285611
0.0216417
0.0144209
0.335304
0.293075
0.259223
0.231987
0.209813
0.191535
0.176272
0.16335
0.152254
0.142584
0.134028
0.126337
0.11931
0.112785
0.106633
0.10068
0.0949591
0.089321
0.0836972
0.0780304
0.0722722
0.0663828
0.0603316
0.0540975
0.0476712
0.0410576
0.0342543
0.0273776
0.0204157
0.299954
0.264414
0.235755
0.212588
0.193661
0.178022
0.16494
0.153858
0.144342
0.136053
0.128726
0.122145
0.116136
0.110559
0.105292
0.100233
0.0952542
0.0903802
0.0854861
0.0805135
0.0754107
0.0701325
0.0646412
0.0589071
0.0529108
0.0466465
0.0401114
0.0333382
0.0265452
0.267339
0.237698
0.213645
0.194108
0.178093
0.164832
0.153732
0.14433
0.136267
0.129259
0.12308
0.117548
0.112512
0.107849
0.103453
0.0992394
0.0950691
0.0909638
0.086826
0.0825899
0.0781979
0.0735981
0.0687435
0.0635935
0.0581157
0.0522899
0.046107
0.0395554
0.0328334
0.237405
0.212917
0.192911
0.176581
0.163152
0.152017
0.142695
0.134812
0.12807
0.122235
0.117117
0.112562
0.108441
0.104647
0.10109
0.0976893
0.0943722
0.0909798
0.0876369
0.0841811
0.0805555
0.0767028
0.0725672
0.0680951
0.0632383
0.0579574
0.052227
0.0460168
0.0394221
0.210074
0.190044
0.17356
0.160034
0.14888
0.139623
0.131882
0.125355
0.119801
0.115027
0.110874
0.107215
0.103941
0.100962
0.0981987
0.0955806
0.0930431
0.0905072
0.0878765
0.0852227
0.0824055
0.0793625
0.0760282
0.0723351
0.0682159
0.0636074
0.0584576
0.0527159
0.046391
0.185247
0.169033
0.155583
0.144485
0.13531
0.127696
0.121344
0.116015
0.111515
0.107686
0.1044
0.101551
0.0990483
0.0968174
0.0947913
0.0929108
0.0911213
0.0893763
0.0875496
0.0856473
0.0836661
0.0814833
0.0790265
0.0762148
0.0729614
0.0691752
0.0647678
0.0596532
0.0537742
0.162804
0.149823
0.138958
0.129941
0.122471
0.116278
0.111134
0.106851
0.103274
0.100277
0.0977568
0.0956261
0.093813
0.0922558
0.0909003
0.089698
0.0886039
0.0875757
0.0865666
0.0854371
0.0842594
0.0829674
0.0814479
0.0796103
0.0773522
0.074556
0.0710875
0.0668046
0.061586
0.14261
0.132335
0.123652
0.1164
0.110384
0.10541
0.101306
0.0979263
0.0951496
0.0928757
0.0910214
0.0895182
0.0883089
0.0873452
0.086584
0.0859889
0.0855242
0.0851565
0.084851
0.0845645
0.0841466
0.0837235
0.0831726
0.082374
0.0812204
0.079585
0.0772788
0.0740768
0.0697889
0.124519
0.116486
0.109623
0.103855
0.0990706
0.0951345
0.0919199
0.0893157
0.087227
0.0855744
0.0842924
0.0833276
0.0826364
0.082183
0.0819323
0.0818649
0.0819487
0.0821665
0.0824987
0.0829083
0.0833535
0.0836927
0.0840937
0.0843442
0.0843379
0.0840316
0.0831302
0.0812622
0.0782265
0.108384
0.102185
0.0968283
0.0923011
0.088555
0.0855018
0.0830491
0.0811114
0.0796137
0.0784928
0.0776972
0.0771862
0.0769286
0.0769032
0.077068
0.0774425
0.0779965
0.0787134
0.0795862
0.0805989
0.0817401
0.0829548
0.0841332
0.0854336
0.0866549
0.0876848
0.0882093
0.0879201
0.0865528
0.0940628
0.0893493
0.0852322
0.0817414
0.0788769
0.0765837
0.0747932
0.073437
0.0724523
0.0717873
0.0714012
0.0712632
0.0713541
0.0716571
0.0721745
0.0728947
0.0738132
0.0749257
0.0762338
0.0777378
0.0794416
0.0813469
0.0834031
0.0855207
0.0878885
0.0902638
0.0924342
0.0939534
0.0941143
0.0814304
0.07791
0.0748154
0.0722019
0.0701038
0.0684861
0.0672927
0.0664605
0.0659315
0.0656594
0.0656127
0.0657618
0.0661189
0.0666764
0.0674365
0.0684035
0.069583
0.0709811
0.0726087
0.0744789
0.0766101
0.0790238
0.0817496
0.0847434
0.0879692
0.0915768
0.0953568
0.0987348
0.101236
0.0703896
0.0678255
0.0655882
0.0637429
0.0623444
0.0613622
0.0607393
0.0604024
0.0602906
0.0603565
0.0605722
0.0609394
0.0614688
0.0621753
0.0630758
0.0641853
0.0655187
0.0670908
0.0689195
0.0710283
0.0734478
0.0762174
0.079387
0.0830055
0.0871201
0.0915977
0.0968519
0.101961
0.107236
0.0608816
0.0590911
0.0575996
0.0564669
0.0557534
0.0554132
0.0553748
0.0555315
0.0558192
0.056176
0.0565886
0.0570758
0.0576743
0.0584224
0.0593555
0.0605031
0.0618884
0.0635337
0.0654603
0.0677002
0.0702845
0.0732747
0.0767194
0.0807298
0.0853953
0.0907722
0.0971615
0.103662
0.112049
0.0528912
0.051742
0.0509359
0.0505111
0.0505195
0.0508697
0.0514709
0.0521673
0.0528619
0.0534905
0.0540486
0.0545784
0.0551503
0.0558371
0.0567013
0.0577919
0.0591436
0.0607882
0.0627461
0.0650626
0.0677505
0.0709184
0.0745503
0.0789145
0.0839194
0.0899538
0.0974086
0.104886
0.117083
0.0464352
0.0458371
0.0456979
0.0460171
0.0468183
0.0479735
0.049319
0.0506671
0.0518745
0.0528531
0.0535952
0.0541659
0.0546773
0.0552523
0.0559974
0.0569973
0.0583075
0.0599846
0.0620446
0.0645791
0.0675371
0.0711713
0.0751602
0.0802948
0.0856785
0.0928732
0.10116
0.110039
0.127816
0.0415274
0.0414197
0.0419503
0.043083
0.0447928
0.0469061
0.0492077
0.0514455
0.0534321
0.0550393
0.0562321
0.0570803
0.0577342
0.0583808
0.0591957
0.0603326
0.0618959
0.0640127
0.0667003
0.0701951
0.0742867
0.0797405
0.0854243
0.0939651
0.10126
0.114127
0.12449
0.141518
0.164391
0.0381282
0.0384619
0.0396904
0.0417141
0.0444804
0.0477725
0.0513469
0.0549456
0.0583201
0.0612785
0.063732
0.0657273
0.0674362
0.0691193
0.071063
0.0735635
0.0768629
0.0812972
0.0869755
0.0945448
0.103595
0.116047
0.129292
0.149897
0.167599
0.201739
0.225899
0.283988
0.313037
0.0361162
0.0368486
0.0388118
0.0418129
0.0458051
0.0505813
0.0558989
0.0614927
0.0671021
0.0725122
0.0776064
0.0824163
0.0871495
0.092161
0.0979006
0.104881
0.113598
0.124721
0.138661
0.156571
0.178336
0.206794
0.239581
0.285496
0.333827
0.411846
0.48496
0.638464
0.724918
0.0353304
0.0364185
0.0391607
0.0432238
0.0486417
0.0552058
0.0627136
0.0709442
0.0796807
0.0887466
0.0980633
0.107715
0.117991
0.129376
0.142525
0.1582
0.177228
0.200638
0.229381
0.265058
0.308605
0.363254
0.42936
0.515511
0.61896
0.764375
0.942732
1.21858
1.49231
0.00099014
0.00099014
0.00099014
0.000990141
0.000990141
0.00099014
0.00099014
0.00099014
0.000990141
0.000990142
0.000990141
0.00099014
0.00099014
0.000990141
0.000990143
0.000990144
0.000990145
0.000990145
0.000990146
0.000990146
0.000990146
0.000990146
0.000990145
0.000990145
0.000990145
0.000990144
0.000990144
0.000990144
0.000990144
0.000990145
0.000990145
0.000990145
0.000990145
0.000990146
0.000990146
0.000990146
0.000990146
0.000990147
0.000990147
0.000990147
0.000990147
0.000990148
0.000990148
0.000990148
0.000990148
0.000990148
0.000990149
0.000990149
0.000990149
0.000990149
0.000990149
0.00099015
0.00099015
0.00099015
0.00099015
0.00099015
0.000990151
0.000990151
0.000990151
0.000990151
0.000990152
0.000990152
0.000990152
0.000990152
0.000990152
0.000990153
0.000990153
0.000990153
0.000990153
0.000990154
0.000990154
0.000990154
0.000990154
0.000990154
0.000990155
0.000990155
0.000990155
0.000990155
0.000990155
0.000990156
0.000990156
0.000990156
0.000990156
0.000990156
0.000990157
0.000990157
0.000990157
0.000990157
0.000990157
0.000990157
0.000990157
0.000990157
0.000990157
0.000990157
0.000990157
0.000990157
0.000990157
0.000990157
0.000990157
0.000990157
0.000990157
0.000990157
0.000990157
0.000990157
0.000990156
0.000990156
0.000990156
0.000990156
0.000990156
0.000990156
0.000990156
0.000990155
0.000990155
0.000990155
0.000990155
0.000990154
0.000990154
0.000990153
0.000990153
0.000990153
0.000990154
0.000990154
0.000990154
0.000990154
0.000990155
0.000990155
0.000990155
0.000990156
0.000990156
0.000990157
0.000990158
0.000990159
0.00099016
0.000990163
0.000990162
0.000990166
0.000990165
0.000990175
0.00100826
4.09893e-005
4.0989e-005
4.09893e-005
4.09905e-005
4.09909e-005
4.09901e-005
4.09896e-005
4.09904e-005
4.09919e-005
4.09925e-005
4.09916e-005
4.09905e-005
4.09908e-005
4.09927e-005
4.09948e-005
4.09962e-005
4.09972e-005
4.09979e-005
4.09985e-005
4.09988e-005
4.09989e-005
4.09988e-005
4.09984e-005
4.0998e-005
4.09976e-005
4.09973e-005
4.09973e-005
4.09976e-005
4.0998e-005
4.09984e-005
4.09989e-005
4.09993e-005
4.09997e-005
4.10001e-005
4.10005e-005
4.10009e-005
4.10013e-005
4.10017e-005
4.10021e-005
4.10025e-005
4.10029e-005
4.10032e-005
4.10036e-005
4.1004e-005
4.10043e-005
4.10047e-005
4.10051e-005
4.10054e-005
4.10058e-005
4.10061e-005
4.10065e-005
4.10068e-005
4.10072e-005
4.10075e-005
4.10079e-005
4.10083e-005
4.10086e-005
4.1009e-005
4.10094e-005
4.10098e-005
4.10102e-005
4.10106e-005
4.10109e-005
4.10113e-005
4.10117e-005
4.1012e-005
4.10124e-005
4.10127e-005
4.10131e-005
4.10134e-005
4.10138e-005
4.10141e-005
4.10144e-005
4.10148e-005
4.10151e-005
4.10154e-005
4.10157e-005
4.1016e-005
4.10164e-005
4.10167e-005
4.1017e-005
4.10173e-005
4.10176e-005
4.10179e-005
4.10181e-005
4.10184e-005
4.10186e-005
4.10188e-005
4.1019e-005
4.10191e-005
4.10192e-005
4.10193e-005
4.10193e-005
4.10193e-005
4.10193e-005
4.10193e-005
4.10193e-005
4.10192e-005
4.10191e-005
4.1019e-005
4.10189e-005
4.10187e-005
4.10186e-005
4.10184e-005
4.10182e-005
4.1018e-005
4.10178e-005
4.10176e-005
4.10174e-005
4.10171e-005
4.10168e-005
4.10166e-005
4.10162e-005
4.10158e-005
4.10152e-005
4.10147e-005
4.1014e-005
4.10134e-005
4.10132e-005
4.10132e-005
4.10134e-005
4.10137e-005
4.10142e-005
4.10146e-005
4.1015e-005
4.10155e-005
4.10158e-005
4.10166e-005
4.1017e-005
4.10178e-005
4.10194e-005
4.10203e-005
4.10218e-005
4.10272e-005
4.10244e-005
4.10304e-005
4.10633e-005
4.1055e-005
4.13321e-005
3.3803e-006
3.3806e-006
3.38085e-006
3.381e-006
3.38112e-006
3.38132e-006
3.38159e-006
3.38178e-006
3.38185e-006
3.3819e-006
3.38203e-006
3.38229e-006
3.3825e-006
3.38265e-006
3.38269e-006
3.38274e-006
3.38283e-006
3.38294e-006
3.38305e-006
3.38316e-006
3.38328e-006
3.3834e-006
3.38355e-006
3.38372e-006
3.38389e-006
3.38407e-006
3.38424e-006
3.38439e-006
3.38454e-006
3.38467e-006
3.38479e-006
3.38492e-006
3.38505e-006
3.38517e-006
3.38529e-006
3.38541e-006
3.38553e-006
3.38565e-006
3.38578e-006
3.38591e-006
3.38604e-006
3.38618e-006
3.38631e-006
3.38644e-006
3.38657e-006
3.3867e-006
3.38683e-006
3.38697e-006
3.3871e-006
3.38723e-006
3.38736e-006
3.38749e-006
3.38762e-006
3.38775e-006
3.38788e-006
3.388e-006
3.38813e-006
3.38825e-006
3.38837e-006
3.38848e-006
3.3886e-006
3.3887e-006
3.38881e-006
3.38891e-006
3.38902e-006
3.38912e-006
3.38923e-006
3.38933e-006
3.38943e-006
3.38953e-006
3.38962e-006
3.38972e-006
3.38981e-006
3.3899e-006
3.38999e-006
3.39007e-006
3.39015e-006
3.39022e-006
3.3903e-006
3.39037e-006
3.39044e-006
3.39051e-006
3.39058e-006
3.39064e-006
3.3907e-006
3.39076e-006
3.39082e-006
3.39088e-006
3.39094e-006
3.39101e-006
3.39107e-006
3.39113e-006
3.39117e-006
3.39121e-006
3.39124e-006
3.39126e-006
3.39128e-006
3.39129e-006
3.39129e-006
3.39129e-006
3.39127e-006
3.39125e-006
3.39123e-006
3.3912e-006
3.39116e-006
3.39111e-006
3.39105e-006
3.39099e-006
3.39092e-006
3.39083e-006
3.39074e-006
3.39065e-006
3.39055e-006
3.39043e-006
3.3903e-006
3.39016e-006
3.39004e-006
3.38993e-006
3.38987e-006
3.38981e-006
3.38976e-006
3.38971e-006
3.3896e-006
3.38955e-006
3.38939e-006
3.38935e-006
3.38926e-006
3.38908e-006
3.3891e-006
3.38914e-006
3.38897e-006
3.38955e-006
3.38894e-006
3.38949e-006
3.39238e-006
3.39888e-006
2.99357e-006
3.13102e-006
4.29419e-005
5.32822e-007
5.32902e-007
5.32966e-007
5.33043e-007
5.33125e-007
5.33181e-007
5.33217e-007
5.33266e-007
5.33341e-007
5.33418e-007
5.33469e-007
5.33497e-007
5.33527e-007
5.33585e-007
5.33672e-007
5.33752e-007
5.33818e-007
5.33878e-007
5.33931e-007
5.33982e-007
5.34036e-007
5.3409e-007
5.34141e-007
5.34187e-007
5.34229e-007
5.3427e-007
5.34315e-007
5.34365e-007
5.34418e-007
5.34475e-007
5.34533e-007
5.34589e-007
5.34646e-007
5.34703e-007
5.34758e-007
5.3481e-007
5.34861e-007
5.34912e-007
5.34963e-007
5.35014e-007
5.35064e-007
5.35115e-007
5.35166e-007
5.35218e-007
5.35269e-007
5.3532e-007
5.35371e-007
5.35422e-007
5.35471e-007
5.35521e-007
5.3557e-007
5.35618e-007
5.35666e-007
5.35713e-007
5.35759e-007
5.35805e-007
5.35849e-007
5.35893e-007
5.35936e-007
5.35979e-007
5.36022e-007
5.36064e-007
5.36106e-007
5.36147e-007
5.36187e-007
5.36227e-007
5.36267e-007
5.36306e-007
5.36344e-007
5.36381e-007
5.36418e-007
5.36454e-007
5.36489e-007
5.36524e-007
5.36556e-007
5.3659e-007
5.36621e-007
5.36651e-007
5.3668e-007
5.36708e-007
5.36737e-007
5.36763e-007
5.36789e-007
5.36814e-007
5.36837e-007
5.36859e-007
5.36879e-007
5.36897e-007
5.36918e-007
5.36943e-007
5.36966e-007
5.36989e-007
5.37009e-007
5.37028e-007
5.37046e-007
5.37061e-007
5.37074e-007
5.37086e-007
5.37095e-007
5.37101e-007
5.37105e-007
5.37106e-007
5.37105e-007
5.37101e-007
5.37094e-007
5.37084e-007
5.37071e-007
5.37055e-007
5.37036e-007
5.37013e-007
5.36984e-007
5.36952e-007
5.36919e-007
5.36882e-007
5.36839e-007
5.36792e-007
5.36747e-007
5.36707e-007
5.36667e-007
5.36628e-007
5.36583e-007
5.36538e-007
5.36466e-007
5.36423e-007
5.36333e-007
5.36277e-007
5.36206e-007
5.36144e-007
5.36001e-007
5.36068e-007
5.36433e-007
5.3455e-007
5.36014e-007
5.42803e-007
5.20441e-007
4.74264e-007
3.20163e-006
0.000394653
0.0239087
1.46238e-007
1.4627e-007
1.46301e-007
1.46326e-007
1.46342e-007
1.46363e-007
1.46398e-007
1.46424e-007
1.46449e-007
1.4646e-007
1.46477e-007
1.46508e-007
1.4654e-007
1.46567e-007
1.46593e-007
1.46611e-007
1.46632e-007
1.46654e-007
1.46676e-007
1.467e-007
1.46725e-007
1.4675e-007
1.46774e-007
1.46799e-007
1.46827e-007
1.46856e-007
1.46886e-007
1.46915e-007
1.46943e-007
1.4697e-007
1.46997e-007
1.47025e-007
1.47052e-007
1.47081e-007
1.47109e-007
1.47137e-007
1.47164e-007
1.47191e-007
1.47219e-007
1.47247e-007
1.47274e-007
1.47301e-007
1.47328e-007
1.47355e-007
1.47382e-007
1.47408e-007
1.47434e-007
1.4746e-007
1.47485e-007
1.47511e-007
1.47536e-007
1.4756e-007
1.47585e-007
1.47609e-007
1.47633e-007
1.47656e-007
1.47679e-007
1.47702e-007
1.47724e-007
1.47747e-007
1.47769e-007
1.47791e-007
1.47814e-007
1.47835e-007
1.47857e-007
1.47878e-007
1.47899e-007
1.4792e-007
1.4794e-007
1.47959e-007
1.47979e-007
1.47998e-007
1.48016e-007
1.48034e-007
1.48053e-007
1.4807e-007
1.48087e-007
1.48103e-007
1.48119e-007
1.48134e-007
1.48149e-007
1.48164e-007
1.48177e-007
1.4819e-007
1.48203e-007
1.48215e-007
1.48226e-007
1.48236e-007
1.48247e-007
1.48258e-007
1.48269e-007
1.48279e-007
1.4829e-007
1.48299e-007
1.48309e-007
1.48317e-007
1.48325e-007
1.48333e-007
1.48339e-007
1.48345e-007
1.4835e-007
1.48353e-007
1.48356e-007
1.48357e-007
1.48357e-007
1.48356e-007
1.48354e-007
1.4835e-007
1.48345e-007
1.48338e-007
1.48328e-007
1.48316e-007
1.48301e-007
1.48285e-007
1.48266e-007
1.48245e-007
1.48224e-007
1.48203e-007
1.48182e-007
1.48159e-007
1.48134e-007
1.48107e-007
1.48071e-007
1.48041e-007
1.47994e-007
1.47956e-007
1.47903e-007
1.47861e-007
1.4783e-007
1.48021e-007
1.46224e-007
1.51584e-007
1.48592e-007
1.23973e-007
1.85296e-007
3.90463e-006
0.000373125
0.0167146
0.177745
6.0484e-008
6.05001e-008
6.05108e-008
6.05225e-008
6.05385e-008
6.05523e-008
6.05651e-008
6.05714e-008
6.05829e-008
6.05988e-008
6.06141e-008
6.06287e-008
6.06367e-008
6.06464e-008
6.06607e-008
6.06778e-008
6.06931e-008
6.07083e-008
6.0724e-008
6.0739e-008
6.07537e-008
6.07692e-008
6.07858e-008
6.08032e-008
6.08205e-008
6.08373e-008
6.08534e-008
6.08699e-008
6.08871e-008
6.09049e-008
6.0923e-008
6.09413e-008
6.09597e-008
6.0978e-008
6.09961e-008
6.10142e-008
6.10324e-008
6.10507e-008
6.10689e-008
6.10869e-008
6.11047e-008
6.11227e-008
6.11406e-008
6.11585e-008
6.11763e-008
6.11941e-008
6.12116e-008
6.12291e-008
6.12464e-008
6.12635e-008
6.12805e-008
6.12973e-008
6.13139e-008
6.13304e-008
6.13467e-008
6.13628e-008
6.13787e-008
6.13945e-008
6.14101e-008
6.14256e-008
6.14412e-008
6.14567e-008
6.1472e-008
6.14871e-008
6.1502e-008
6.15166e-008
6.15309e-008
6.1545e-008
6.15587e-008
6.15722e-008
6.15855e-008
6.15984e-008
6.16111e-008
6.16238e-008
6.16357e-008
6.16478e-008
6.16594e-008
6.16708e-008
6.16819e-008
6.16927e-008
6.17032e-008
6.17134e-008
6.17234e-008
6.17328e-008
6.17421e-008
6.17509e-008
6.17594e-008
6.17676e-008
6.17752e-008
6.17825e-008
6.17895e-008
6.17963e-008
6.18028e-008
6.18092e-008
6.18153e-008
6.18211e-008
6.18265e-008
6.18316e-008
6.18362e-008
6.18405e-008
6.18443e-008
6.18475e-008
6.18502e-008
6.18522e-008
6.18537e-008
6.18545e-008
6.18545e-008
6.18538e-008
6.18522e-008
6.18497e-008
6.18461e-008
6.18408e-008
6.18335e-008
6.18247e-008
6.18146e-008
6.18032e-008
6.1791e-008
6.17781e-008
6.17654e-008
6.17519e-008
6.17372e-008
6.17204e-008
6.1701e-008
6.16808e-008
6.16563e-008
6.16307e-008
6.16053e-008
6.15797e-008
6.15945e-008
6.04882e-008
6.47968e-008
5.48012e-008
5.74847e-008
2.4949e-007
1.16846e-005
0.000680785
0.0180287
0.147076
0.566807
3.29878e-008
3.29955e-008
3.3003e-008
3.30102e-008
3.3017e-008
3.30209e-008
3.30275e-008
3.30367e-008
3.30465e-008
3.30546e-008
3.30587e-008
3.30649e-008
3.30735e-008
3.30839e-008
3.30935e-008
3.31029e-008
3.31118e-008
3.3121e-008
3.31295e-008
3.31388e-008
3.31493e-008
3.31604e-008
3.31711e-008
3.31813e-008
3.31907e-008
3.31996e-008
3.32102e-008
3.32207e-008
3.32311e-008
3.32419e-008
3.32533e-008
3.32646e-008
3.32758e-008
3.32871e-008
3.32985e-008
3.33101e-008
3.33217e-008
3.33336e-008
3.33454e-008
3.33572e-008
3.33692e-008
3.33811e-008
3.33928e-008
3.34044e-008
3.34159e-008
3.34273e-008
3.34387e-008
3.345e-008
3.34613e-008
3.34725e-008
3.34837e-008
3.34948e-008
3.35058e-008
3.35166e-008
3.35275e-008
3.35383e-008
3.3549e-008
3.35595e-008
3.357e-008
3.35804e-008
3.35909e-008
3.36011e-008
3.36113e-008