/*--------------------------------*- C++ -*----------------------------------*\
| =========                 |                                                 |
| \\      /  F ield         | OpenFOAM: The Open Source CFD Toolbox           |
|  \\    /   O peration     | Version:  5.x                                   |
|   \\  /    A nd           | Web:      www.OpenFOAM.org                      |
|    \\/     M anipulation  |                                                 |
\*---------------------------------------------------------------------------*/
/*   Windows 32 and 64 bit porting by blueCAPE: http://www.bluecape.com.pt   *\
|  Based on Windows porting (2.0.x v4) by Symscape: http://www.symscape.com   |
\*---------------------------------------------------------------------------*/
FoamFile
{
    version     2.0;
    format      ascii;
    class       volScalarField;
    location    "220";
    object      nut;
}
// * * * * * * * * * * * * * * * * * * * * * * * * * * * * * * * * * * * * * //

dimensions      [0 2 -1 0 0 0 0];

internalField   nonuniform List<scalar> 
43900
(
5.71594e-005
5.80011e-005
5.80695e-005
5.80643e-005
5.80595e-005
5.80586e-005
5.80588e-005
5.80587e-005
5.80589e-005
5.80593e-005
5.80595e-005
5.80596e-005
5.80596e-005
5.80597e-005
5.80598e-005
5.80599e-005
5.806e-005
5.80601e-005
5.80602e-005
5.80602e-005
5.80603e-005
5.80603e-005
5.80603e-005
5.80604e-005
5.80604e-005
5.80604e-005
5.80604e-005
5.80604e-005
5.80604e-005
0.000590425
7.37635e-006
4.30778e-006
4.16075e-006
4.58031e-006
4.60625e-006
4.60895e-006
4.60325e-006
4.60347e-006
4.60436e-006
4.60482e-006
4.60514e-006
4.60533e-006
4.60557e-006
4.60586e-006
4.60618e-006
4.60637e-006
4.60666e-006
4.60685e-006
4.60696e-006
4.60716e-006
4.60724e-006
4.60731e-006
4.60745e-006
4.60747e-006
4.60753e-006
4.60763e-006
4.60761e-006
4.60765e-006
0.153363
0.0455482
0.0051995
0.000107556
1.30396e-006
6.44486e-007
6.01739e-007
7.14247e-007
7.25204e-007
7.22997e-007
7.21572e-007
7.21768e-007
7.22204e-007
7.22417e-007
7.22569e-007
7.22747e-007
7.22924e-007
7.23074e-007
7.23194e-007
7.23308e-007
7.23396e-007
7.23478e-007
7.23561e-007
7.23623e-007
7.23686e-007
7.23747e-007
7.23792e-007
7.23842e-007
7.23879e-007
0.475332
0.291181
0.133611
0.0384881
0.00460391
0.000176294
4.14947e-006
2.54092e-007
1.72807e-007
1.96513e-007
2.14347e-007
2.14262e-007
2.11719e-007
2.11854e-007
2.12469e-007
2.12458e-007
2.12427e-007
2.12486e-007
2.12549e-007
2.12595e-007
2.1264e-007
2.12683e-007
2.12719e-007
2.12756e-007
2.12789e-007
2.12818e-007
2.12849e-007
2.12875e-007
2.12895e-007
0.75806
0.582596
0.414932
0.249828
0.107149
0.0267095
0.00266535
0.000124957
2.89737e-006
1.96412e-007
8.92364e-008
9.01369e-008
1.06111e-007
1.05359e-007
1.02208e-007
1.02967e-007
1.03682e-007
1.03643e-007
1.03626e-007
1.03649e-007
1.03677e-007
1.03703e-007
1.03725e-007
1.03743e-007
1.03764e-007
1.03784e-007
1.03798e-007
1.03816e-007
1.03831e-007
0.964909
0.796692
0.640219
0.488296
0.336304
0.183923
0.0657252
0.0115302
0.000823331
3.90136e-005
1.07107e-006
1.22458e-007
6.0907e-008
6.46822e-008
7.53849e-008
7.14958e-008
6.94005e-008
7.00828e-008
7.03019e-008
7.02601e-008
7.02541e-008
7.02712e-008
7.02841e-008
7.02968e-008
7.03115e-008
7.03215e-008
7.03325e-008
7.03466e-008
7.03546e-008
1.12703
0.964438
0.815872
0.675062
0.537008
0.397964
0.253388
0.111246
0.0280932
0.00297096
0.000171652
8.34197e-006
3.07808e-007
7.14787e-008
4.63276e-008
5.71582e-008
6.0003e-008
5.68066e-008
5.67278e-008
5.71802e-008
5.73088e-008
5.73276e-008
5.73384e-008
5.73486e-008
5.73578e-008
5.7371e-008
5.73805e-008
5.73871e-008
5.73937e-008
1.24093
1.08291
0.94016
0.807102
0.679098
0.552352
0.424057
0.294057
0.158239
0.0502293
0.00722033
0.00048503
2.63494e-005
1.23004e-006
1.07016e-007
5.16208e-008
4.92695e-008
5.79428e-008
5.58618e-008
5.39026e-008
5.37469e-008
5.37722e-008
5.3787e-008
5.37901e-008
5.38004e-008
5.38144e-008
5.38208e-008
5.38267e-008
5.38294e-008
1.33742
1.18271
1.04381
0.915681
0.794116
0.675604
0.557318
0.437141
0.313144
0.185268
0.0662362
0.0113152
0.00087154
5.17703e-005
2.90804e-006
1.65078e-007
5.76931e-008
4.14557e-008
4.9305e-008
5.24377e-008
5.20217e-008
5.1825e-008
5.18064e-008
5.18151e-008
5.18211e-008
5.18165e-008
5.18236e-008
5.18397e-008
5.18511e-008
1.39769
1.24889
1.11557
0.993607
0.879039
0.768522
0.659272
0.549022
0.435984
0.319025
0.19844
0.0752251
0.0139933
0.00118183
7.57105e-005
4.65676e-006
2.85698e-007
6.60509e-008
4.12069e-008
4.17935e-008
4.47697e-008
4.51685e-008
4.51723e-008
4.51885e-008
4.51959e-008
4.51985e-008
4.52052e-008
4.52285e-008
4.52457e-008
1.44176
1.29561
1.16675
1.04963
0.940753
0.836913
0.735379
0.633867
0.53054
0.424046
0.31367
0.199937
0.0772548
0.0147855
0.00133085
9.22367e-005
6.2038e-006
4.25412e-007
6.47741e-008
4.30168e-008
3.69351e-008
3.76062e-008
3.8066e-008
3.81357e-008
3.81453e-008
3.81515e-008
3.81686e-008
3.81877e-008
3.81977e-008
1.47852
1.3354
1.20934
1.09562
0.990693
0.891655
0.795899
0.70119
0.605673
0.507889
0.406813
0.301958
0.193785
0.0741487
0.0140841
0.00133078
0.000100134
7.34248e-006
5.40819e-007
7.09926e-008
4.57141e-008
3.92917e-008
3.82701e-008
3.82358e-008
3.82338e-008
3.82241e-008
3.82192e-008
3.82154e-008
3.82205e-008
1.50465
1.36454
1.24094
1.13109
1.02998
0.935156
0.844284
0.755231
0.66619
0.575682
0.482568
0.38608
0.285864
0.182247
0.0673106
0.0122847
0.00119383
9.62833e-005
7.56064e-006
5.97975e-007
8.10257e-008
4.87817e-008
4.59904e-008
4.51317e-008
4.49845e-008
4.49661e-008
4.49458e-008
4.4924e-008
4.49214e-008
1.521
1.3851
1.26447
1.15642
1.05947
0.968691
0.882135
0.797963
0.714436
0.630096
0.543773
0.454591
0.361971
0.265649
0.165795
0.0573671
0.00972338
0.000952554
8.10498e-005
6.73323e-006
5.70652e-007
8.56171e-008
5.25188e-008
5.09148e-008
5.07629e-008
5.07428e-008
5.07399e-008
5.07351e-008
5.07319e-008
1.5288
1.39642
1.2802
1.17538
1.07983
0.993156
0.910755
0.830879
0.752139
0.673117
0.592649
0.509815
0.423941
0.334573
0.241445
0.144359
0.0450271
0.00687007
0.000672075
5.94303e-005
5.14483e-006
4.67534e-007
8.44866e-008
5.60219e-008
5.41057e-008
5.39709e-008
5.39576e-008
5.39571e-008
5.39556e-008
1.52932
1.40054
1.28762
1.18714
1.0952
1.00967
0.931142
0.855424
0.78088
0.706479
0.631075
0.553739
0.473749
0.390574
0.303829
0.213121
0.117204
0.0313318
0.00422322
0.000412384
3.7796e-005
3.42898e-006
3.44403e-007
8.29748e-008
6.21152e-008
6.03606e-008
6.01524e-008
6.01255e-008
6.01229e-008
1.5238
1.39869
1.28911
1.19177
1.10391
1.02237
0.944911
0.872816
0.802302
0.73193
0.660906
0.588315
0.513427
0.435685
0.354671
0.27004
0.181272
0.0850899
0.0184844
0.00224194
0.000223781
2.14628e-005
2.06506e-006
2.51557e-007
9.16422e-008
7.78175e-008
7.63727e-008
7.61094e-008
7.60248e-008
1.51332
1.39197
1.28577
1.19157
1.10671
1.02892
0.955683
0.884649
0.817589
0.750957
0.683735
0.615245
0.544773
0.471756
0.395767
0.316462
0.233451
0.145795
0.051755
0.00905237
0.00105062
0.000109583
1.11605e-005
1.20291e-006
2.21439e-007
1.28356e-007
1.1885e-007
1.17249e-007
1.16769e-007
1.49891
1.3814
1.27862
1.18754
1.1056
1.03063
0.960766
0.893963
0.827939
0.764681
0.700753
0.635828
0.569186
0.500272
0.428658
0.354006
0.276008
0.194193
0.106431
0.0283299
0.00417248
0.000482722
5.29292e-005
5.845e-006
8.13543e-007
2.86796e-007
2.31234e-007
2.2318e-007
2.20878e-007
1.48146
1.36786
1.26857
1.18062
1.10156
1.02929
0.962027
0.898209
0.836239
0.774168
0.71373
0.651838
0.588472
0.523088
0.455248
0.384613
0.310901
0.23376
0.152346
0.0654795
0.0133988
0.00180315
0.000214757
2.51018e-005
3.27551e-006
8.04522e-007
5.24317e-007
4.86951e-007
4.78512e-007
1.46167
1.35208
1.25633
1.17156
1.09539
1.0258
0.961065
0.89969
0.84039
0.781827
0.722953
0.664011
0.603596
0.541333
0.476809
0.409699
0.33974
0.266662
0.190029
0.106958
0.033181
0.00562301
0.00074994
9.44466e-005
1.24437e-005
2.47866e-006
1.27678e-006
1.11656e-006
1.08278e-006
1.44009
1.3346
1.24247
1.16092
1.08765
1.02073
0.958492
0.899501
0.842533
0.786533
0.730121
0.673793
0.615988
0.556458
0.494815
0.43075
0.364014
0.294372
0.221482
0.143802
0.0628974
0.0142118
0.00221603
0.000308334
4.31078e-005
7.80118e-006
3.19406e-006
2.56532e-006
2.44916e-006
1.41713
1.31584
1.2274
1.14912
1.0788
1.01456
0.954798
0.898153
0.843466
0.789761
0.73622
0.681682
0.626274
0.569257
0.510247
0.448944
0.385103
0.318506
0.248858
0.175445
0.0957297
0.0305341
0.00574204
0.000889972
0.000133825
2.37632e-005
8.15245e-006
5.87184e-006
5.45087e-006
1.39311
1.2961
1.21142
1.13648
1.06914
1.0076
0.950313
0.895978
0.843487
0.791904
0.740435
0.688317
0.635175
0.580479
0.523888
0.465114
0.403919
0.340092
0.273384
0.203345
0.127533
0.0534405
0.0130168
0.00231368
0.000380253
6.88091e-005
2.09415e-005
1.35982e-005
1.21886e-005
1.36823
1.27558
1.19473
1.12319
1.05889
1.00008
0.945286
0.893264
0.842953
0.793457
0.744007
0.693916
0.64301
0.5906
0.536344
0.479972
0.42126
0.360015
0.296024
0.228947
0.157341
0.0809178
0.0252343
0.00529777
0.000970788
0.000186468
5.36046e-005
3.18939e-005
2.786e-005
1.34264
1.25441
1.17747
1.10938
1.04816
0.992128
0.939869
0.890188
0.842081
0.794706
0.747362
0.699494
0.650628
0.600271
0.548208
0.494129
0.437796
0.379011
0.317576
0.253207
0.185149
0.110832
0.0442712
0.0111696
0.00229546
0.000472346
0.000134654
7.64326e-005
6.58063e-005
1.31644
1.23269
1.1597
1.09512
1.03702
0.983814
0.934129
0.886828
0.840959
0.795734
0.750504
0.704757
0.657987
0.609744
0.559823
0.507973
0.453964
0.397592
0.338659
0.276914
0.211889
0.141227
0.0692215
0.0221091
0.00515583
0.0011367
0.000324145
0.000186538
0.000159174
1.28967
1.21045
1.14145
1.08041
1.02548
0.975137
0.928066
0.883186
0.839596
0.79655
0.753437
0.709752
0.665049
0.619002
0.571282
0.521666
0.469955
0.415961
0.359503
0.300369
0.238181
0.171618
0.0991153
0.0390248
0.0107174
0.00258751
0.000719846
0.000351897
0.000285411
1.26235
1.18768
1.1227
1.06523
1.01351
0.966058
0.92164
0.879223
0.837953
0.797128
0.756171
0.714602
0.67201
0.628128
0.582623
0.535263
0.485853
0.434221
0.380197
0.323599
0.264164
0.201155
0.132195
0.0637608
0.0209806
0.00559746
0.00153588
0.000590833
0.0004045
1.2345
1.16438
1.10343
1.04954
1.00104
0.956514
0.914784
0.874869
0.835963
0.797405
0.758654
0.719261
0.67886
0.637152
0.59387
0.548786
0.501706
0.452456
0.400871
0.346778
0.289951
0.230014
0.165307
0.0956607
0.0387098
0.011636
0.00325802
0.00107817
0.000568215
1.20607
1.1405
1.08357
1.03328
0.988006
0.946423
0.907407
0.87003
0.833532
0.797292
0.760801
0.723631
0.685387
0.645987
0.605007
0.562247
0.517531
0.470696
0.421585
0.370032
0.315835
0.258674
0.197774
0.130999
0.0656153
0.0230839
0.00688944
0.0021283
0.00088185
1.17705
1.11599
1.06307
1.01635
0.974309
0.935679
0.899397
0.864587
0.830532
0.796643
0.762433
0.727478
0.691402
0.654464
0.615798
0.575433
0.533168
0.48883
0.442262
0.393308
0.341793
0.287463
0.229815
0.167388
0.0999817
0.0436098
0.0143834
0.00443937
0.00154864
1.14736
1.09077
1.04183
0.998661
0.959839
0.92416
0.890623
0.858403
0.826826
0.795343
0.763507
0.730962
0.697471
0.662769
0.62644
0.58844
0.548603
0.506765
0.462764
0.416446
0.367644
0.316153
0.261637
0.203279
0.139267
0.0740252
0.0285869
0.00939723
0.00304715
1.11695
1.06476
1.01975
0.980096
0.944467
0.911728
0.880938
0.851324
0.822256
0.793225
0.763821
0.733725
0.702698
0.670207
0.636407
0.600929
0.563624
0.524349
0.482957
0.439301
0.393228
0.344559
0.293046
0.238243
0.178955
0.113921
0.053982
0.0196525
0.00641831
1.08572
1.03787
0.996713
0.960528
0.928054
0.898232
0.870181
0.843179
0.816637
0.79008
0.763116
0.735416
0.706661
0.676429
0.645369
0.612516
0.577877
0.541291
0.50261
0.461691
0.418392
0.372554
0.32398
0.272375
0.21713
0.15675
0.0918694
0.039181
0.0137287
1.05359
1.00998
0.972608
0.939822
0.910452
0.883511
0.858179
0.833782
0.809775
0.785712
0.761226
0.736007
0.709782
0.682349
0.653921
0.623546
0.591483
0.557557
0.521601
0.483459
0.442978
0.400001
0.354355
0.305809
0.253993
0.198195
0.136648
0.0736132
0.0288421
1.02048
0.981003
0.947311
0.917843
0.891511
0.8674
0.844751
0.822942
0.801466
0.779913
0.757941
0.735272
0.711685
0.687063
0.660655
0.633156
0.60392
0.572817
0.539702
0.504427
0.466839
0.426784
0.384095
0.338577
0.289963
0.237832
0.181315
0.118974
0.0569594
0.986296
0.95083
0.92071
0.89446
0.87108
0.849731
0.829714
0.810458
0.791497
0.772449
0.753
0.732881
0.711851
0.689638
0.665718
0.641416
0.615011
0.58681
0.556643
0.524348
0.489765
0.452729
0.413075
0.370621
0.325146
0.276359
0.223703
0.166896
0.101088
0.950995
0.91939
0.892708
0.869556
0.849026
0.830351
0.812895
0.796137
0.779651
0.763089
0.746158
0.728609
0.710218
0.69078
0.670165
0.648036
0.624558
0.599341
0.572216
0.54301
0.511549
0.477656
0.441151
0.401846
0.359541
0.313988
0.264775
0.212152
0.152478
0.914542
0.886633
0.863234
0.84304
0.825234
0.809124
0.794135
0.779798
0.765728
0.751606
0.737167
0.722178
0.706436
0.689753
0.67196
0.652049
0.632084
0.609981
0.586036
0.560066
0.531883
0.501294
0.468098
0.432092
0.393066
0.350771
0.30495
0.255404
0.202303
0.876943
0.852542
0.83225
0.814854
0.799625
0.785948
0.77331
0.761292
0.74955
0.737798
0.725793
0.713326
0.700204
0.68625
0.671285
0.65511
0.637322
0.618424
0.597763
0.575162
0.550418
0.523316
0.49363
0.461125
0.425564
0.38668
0.34424
0.297878
0.248647
0.838244
0.817144
0.799764
0.784983
0.772164
0.760767
0.75034
0.740514
0.730986
0.721502
0.711846
0.701827
0.69127
0.680011
0.667895
0.654795
0.639722
0.624427
0.607026
0.587886
0.566737
0.543323
0.517379
0.488631
0.456796
0.421573
0.382662
0.339758
0.293246
0.798537
0.78051
0.765827
0.753462
0.742868
0.733578
0.725202
0.717419
0.709966
0.702621
0.695194
0.687516
0.679429
0.670785
0.661435
0.651231
0.639976
0.62664
0.613012
0.597613
0.580287
0.5608
0.53887
0.514185
0.48641
0.455191
0.420137
0.380937
0.337427
0.757955
0.742757
0.730542
0.720381
0.711814
0.704445
0.697943
0.692035
0.686495
0.681134
0.675788
0.67031
0.664561
0.65841
0.651721
0.644349
0.636114
0.626531
0.615976
0.604136
0.590662
0.57525
0.557573
0.537268
0.513938
0.487151
0.456417
0.42131
0.381413
0.716674
0.704048
0.694064
0.685886
0.679141
0.673501
0.668687
0.664474
0.660672
0.657121
0.653683
0.650232
0.646654
0.642832
0.638652
0.63399
0.628715
0.622769
0.615161
0.606832
0.597289
0.586084
0.572867
0.557242
0.538756
0.516895
0.491053
0.460623
0.425
0.67491
0.664593
0.656599
0.650187
0.645062
0.640958
0.63765
0.634951
0.632703
0.630776
0.629053
0.627434
0.625823
0.624127
0.62225
0.620097
0.617559
0.614529
0.610721
0.60565
0.599626
0.592701
0.584072
0.573344
0.560053
0.54363
0.523321
0.498298
0.467737
0.632921
0.624649
0.618413
0.61356
0.609869
0.607129
0.605157
0.603799
0.602926
0.602428
0.602213
0.602201
0.60232
0.602501
0.602661
0.602756
0.602675
0.602354
0.601627
0.600282
0.597893
0.594613
0.590482
0.584653
0.576753
0.566297
0.552177
0.53327
0.508671
0.591013
0.584535
0.579844
0.576374
0.573963
0.572445
0.571666
0.571495
0.571818
0.572543
0.5736
0.574928
0.576487
0.578238
0.580067
0.582103
0.584055
0.586143
0.588193
0.589849
0.591138
0.59102
0.591122
0.589872
0.58722
0.583764
0.5763
0.563404
0.545936
0.54956
0.544646
0.54133
0.539116
0.537886
0.537498
0.537805
0.538671
0.539988
0.541677
0.543691
0.545992
0.548597
0.551538
0.554425
0.558091
0.561844
0.565685
0.569764
0.57389
0.578011
0.582155
0.584548
0.587983
0.590724
0.592608
0.591086
0.587411
0.577757
0.509037
0.505497
0.503446
0.502436
0.502366
0.503069
0.504363
0.506071
0.508073
0.510303
0.512784
0.515465
0.518509
0.521868
0.525837
0.530091
0.534779
0.539811
0.545245
0.551028
0.557133
0.563687
0.570358
0.575936
0.583299
0.590506
0.595965
0.599292
0.596917
0.470066
0.467765
0.466958
0.467199
0.468341
0.470113
0.47222
0.474379
0.476469
0.478457
0.480571
0.48254
0.485327
0.488376
0.492034
0.496221
0.500966
0.506232
0.512053
0.518421
0.525282
0.53273
0.541782
0.55145
0.560591
0.572359
0.583876
0.594722
0.601522
0.433467
0.432341
0.432857
0.434487
0.436923
0.43963
0.442105
0.443872
0.44489
0.445199
0.445413
0.445549
0.446389
0.447875
0.450128
0.453076
0.456729
0.461022
0.465963
0.471521
0.478419
0.4864
0.495548
0.505851
0.518148
0.531181
0.547135
0.565243
0.580828
0.400281
0.400338
0.402334
0.405514
0.409211
0.412363
0.414208
0.413997
0.41202
0.408547
0.404627
0.400942
0.398197
0.39656
0.39619
0.397034
0.398853
0.401472
0.404882
0.408963
0.413922
0.419586
0.426952
0.434995
0.44629
0.459822
0.475915
0.498855
0.519887
0.371713
0.372996
0.37662
0.381352
0.385947
0.388426
0.388037
0.38353
0.375938
0.366514
0.35699
0.348174
0.340826
0.335188
0.331156
0.328477
0.326936
0.326225
0.326309
0.326851
0.328391
0.330001
0.333994
0.337556
0.345659
0.354634
0.368657
0.389245
0.411148
0.348901
0.351404
0.356626
0.362529
0.367158
0.367596
0.362617
0.352337
0.338197
0.321796
0.305111
0.289757
0.276595
0.26585
0.257314
0.250559
0.245195
0.240778
0.237226
0.234039
0.231957
0.22949
0.229388
0.227576
0.23093
0.232327
0.241069
0.251422
0.274108
0.332484
0.336049
0.342452
0.349062
0.352326
0.349395
0.339614
0.322898
0.301595
0.27838
0.255553
0.234773
0.216848
0.201948
0.189783
0.179876
0.171752
0.164961
0.15929
0.154395
0.150543
0.147169
0.145226
0.143657
0.143618
0.144461
0.147805
0.151064
0.164491
0.322185
0.326433
0.333672
0.33997
0.34146
0.33536
0.320889
0.299683
0.274382
0.247794
0.222217
0.199201
0.179428
0.163092
0.149934
0.139585
0.131606
0.125751
0.121583
0.119288
0.118057
0.119151
0.119957
0.125141
0.126363
0.136606
0.138262
0.154226
0.149529
0.316865
0.321477
0.329094
0.334999
0.335198
0.327238
0.311106
0.288699
0.26277
0.236081
0.210808
0.188377
0.169547
0.154465
0.142923
0.134629
0.129175
0.126435
0.125819
0.127785
0.130984
0.137483
0.143337
0.155403
0.161998
0.182792
0.187853
0.226006
0.213684
0.315151
0.320001
0.328087
0.334251
0.334722
0.327184
0.311709
0.290253
0.265542
0.240257
0.216519
0.195748
0.17868
0.165512
0.15613
0.150254
0.147448
0.147601
0.150109
0.155465
0.162331
0.172839
0.183182
0.200313
0.212879
0.241449
0.254439
0.305883
0.30289
5.80605e-005
5.80604e-005
5.80604e-005
5.80605e-005
5.80605e-005
5.80605e-005
5.80604e-005
5.80605e-005
5.80605e-005
5.80606e-005
5.80605e-005
5.80604e-005
5.80605e-005
5.80606e-005
5.80607e-005
5.80608e-005
5.80608e-005
5.80609e-005
5.80609e-005
5.80609e-005
5.80609e-005
5.80609e-005
5.80609e-005
5.80608e-005
5.80608e-005
5.80608e-005
5.80608e-005
5.80608e-005
5.80608e-005
5.80608e-005
5.80608e-005
5.80609e-005
5.80609e-005
5.80609e-005
5.80609e-005
5.80609e-005
5.8061e-005
5.8061e-005
5.8061e-005
5.8061e-005
5.8061e-005
5.8061e-005
5.80611e-005
5.80611e-005
5.80611e-005
5.80611e-005
5.80611e-005
5.80611e-005
5.80611e-005
5.80612e-005
5.80612e-005
5.80612e-005
5.80612e-005
5.80612e-005
5.80612e-005
5.80613e-005
5.80613e-005
5.80613e-005
5.80613e-005
5.80613e-005
5.80613e-005
5.80614e-005
5.80614e-005
5.80614e-005
5.80614e-005
5.80614e-005
5.80614e-005
5.80615e-005
5.80615e-005
5.80615e-005
5.80615e-005
5.80615e-005
5.80615e-005
5.80616e-005
5.80616e-005
5.80616e-005
5.80616e-005
5.80616e-005
5.80616e-005
5.80617e-005
5.80617e-005
5.80617e-005
5.80617e-005
5.80617e-005
5.80617e-005
5.80617e-005
5.80617e-005
5.80618e-005
5.80618e-005
5.80618e-005
5.80618e-005
5.80618e-005
5.80618e-005
5.80618e-005
5.80618e-005
5.80618e-005
5.80618e-005
5.80618e-005
5.80618e-005
5.80618e-005
5.80617e-005
5.80617e-005
5.80617e-005
5.80617e-005
5.80617e-005
5.80617e-005
5.80617e-005
5.80617e-005
5.80617e-005
5.80617e-005
5.80617e-005
5.80616e-005
5.80616e-005
5.80616e-005
5.80616e-005
5.80616e-005
5.80615e-005
5.80615e-005
5.80615e-005
5.80615e-005
5.80615e-005
5.80615e-005
5.80615e-005
5.80616e-005
5.80616e-005
5.80616e-005
5.80616e-005
5.80617e-005
5.80617e-005
5.80618e-005
5.80618e-005
5.80619e-005
5.8062e-005
5.80622e-005
5.80621e-005
5.80625e-005
5.80624e-005
5.80631e-005
5.93319e-005
4.60771e-006
4.60768e-006
4.60773e-006
4.60786e-006
4.6079e-006
4.60781e-006
4.60777e-006
4.60787e-006
4.60803e-006
4.60809e-006
4.608e-006
4.60789e-006
4.60794e-006
4.60814e-006
4.60837e-006
4.60851e-006
4.60861e-006
4.6087e-006
4.60876e-006
4.6088e-006
4.60881e-006
4.6088e-006
4.60877e-006
4.60872e-006
4.60869e-006
4.60867e-006
4.60868e-006
4.60871e-006
4.60875e-006
4.6088e-006
4.60885e-006
4.6089e-006
4.60895e-006
4.60899e-006
4.60904e-006
4.60909e-006
4.60913e-006
4.60918e-006
4.60923e-006
4.60927e-006
4.60931e-006
4.60936e-006
4.6094e-006
4.60944e-006
4.60949e-006
4.60953e-006
4.60957e-006
4.60961e-006
4.60965e-006
4.60969e-006
4.60974e-006
4.60978e-006
4.60982e-006
4.60986e-006
4.6099e-006
4.60994e-006
4.60999e-006
4.61003e-006
4.61008e-006
4.61012e-006
4.61017e-006
4.61021e-006
4.61025e-006
4.6103e-006
4.61034e-006
4.61038e-006
4.61042e-006
4.61046e-006
4.6105e-006
4.61054e-006
4.61058e-006
4.61062e-006
4.61065e-006
4.61069e-006
4.61073e-006
4.61077e-006
4.6108e-006
4.61084e-006
4.61088e-006
4.61091e-006
4.61095e-006
4.61098e-006
4.61101e-006
4.61104e-006
4.61107e-006
4.6111e-006
4.61112e-006
4.61115e-006
4.61117e-006
4.61119e-006
4.6112e-006
4.61121e-006
4.61121e-006
4.61122e-006
4.61122e-006
4.61122e-006
4.61121e-006
4.6112e-006
4.61119e-006
4.61118e-006
4.61117e-006
4.61115e-006
4.61113e-006
4.61111e-006
4.61109e-006
4.61107e-006
4.61104e-006
4.61102e-006
4.61099e-006
4.61096e-006
4.61093e-006
4.6109e-006
4.61086e-006
4.6108e-006
4.61074e-006
4.61068e-006
4.6106e-006
4.61053e-006
4.61051e-006
4.61052e-006
4.61054e-006
4.61057e-006
4.61062e-006
4.61067e-006
4.61071e-006
4.61076e-006
4.61079e-006
4.61087e-006
4.61092e-006
4.61101e-006
4.61118e-006
4.61128e-006
4.61144e-006
4.61207e-006
4.61172e-006
4.61237e-006
4.61777e-006
4.61616e-006
4.56158e-006
7.23922e-007
7.23987e-007
7.24041e-007
7.24074e-007
7.24104e-007
7.24149e-007
7.24203e-007
7.24241e-007
7.24258e-007
7.24275e-007
7.24306e-007
7.2436e-007
7.24402e-007
7.24431e-007
7.24442e-007
7.24457e-007
7.24479e-007
7.24503e-007
7.24528e-007
7.24553e-007
7.24579e-007
7.24608e-007
7.24641e-007
7.24677e-007
7.24715e-007
7.24752e-007
7.24787e-007
7.2482e-007
7.24851e-007
7.2488e-007
7.24908e-007
7.24936e-007
7.24964e-007
7.24992e-007
7.25018e-007
7.25044e-007
7.2507e-007
7.25096e-007
7.25124e-007
7.25152e-007
7.2518e-007
7.25209e-007
7.25237e-007
7.25266e-007
7.25294e-007
7.25322e-007
7.2535e-007
7.25379e-007
7.25407e-007
7.25435e-007
7.25463e-007
7.25491e-007
7.25519e-007
7.25547e-007
7.25574e-007
7.25602e-007
7.25628e-007
7.25654e-007
7.2568e-007
7.25705e-007
7.25729e-007
7.25752e-007
7.25774e-007
7.25797e-007
7.25819e-007
7.25842e-007
7.25864e-007
7.25886e-007
7.25907e-007
7.25928e-007
7.25949e-007
7.25969e-007
7.25989e-007
7.26007e-007
7.26027e-007
7.26044e-007
7.26061e-007
7.26077e-007
7.26093e-007
7.26109e-007
7.26124e-007
7.26138e-007
7.26152e-007
7.26166e-007
7.26179e-007
7.26192e-007
7.26204e-007
7.26216e-007
7.2623e-007
7.26245e-007
7.26258e-007
7.2627e-007
7.2628e-007
7.26288e-007
7.26295e-007
7.263e-007
7.26304e-007
7.26307e-007
7.26308e-007
7.26308e-007
7.26305e-007
7.26301e-007
7.26296e-007
7.26289e-007
7.26281e-007
7.26271e-007
7.26259e-007
7.26245e-007
7.26229e-007
7.26212e-007
7.26191e-007
7.26171e-007
7.2615e-007
7.26125e-007
7.26097e-007
7.26067e-007
7.2604e-007
7.26018e-007
7.26004e-007
7.25993e-007
7.25981e-007
7.25968e-007
7.25944e-007
7.25933e-007
7.25897e-007
7.25889e-007
7.25868e-007
7.2583e-007
7.25828e-007
7.25842e-007
7.25793e-007
7.25946e-007
7.25799e-007
7.25794e-007
7.26827e-007
7.28733e-007
6.04439e-007
6.56706e-007
1.97852e-005
2.12926e-007
2.12957e-007
2.12983e-007
2.13014e-007
2.13043e-007
2.13064e-007
2.1308e-007
2.13101e-007
2.13131e-007
2.13159e-007
2.13177e-007
2.13188e-007
2.13203e-007
2.13227e-007
2.13261e-007
2.1329e-007
2.13314e-007
2.13337e-007
2.13359e-007
2.1338e-007
2.13401e-007
2.13422e-007
2.13442e-007
2.13459e-007
2.13476e-007
2.13493e-007
2.13512e-007
2.13533e-007
2.13554e-007
2.13576e-007
2.13598e-007
2.13621e-007
2.13643e-007
2.13665e-007
2.13687e-007
2.13708e-007
2.13728e-007
2.13748e-007
2.13768e-007
2.13788e-007
2.13808e-007
2.13828e-007
2.13848e-007
2.13869e-007
2.13889e-007
2.13909e-007
2.13928e-007
2.13948e-007
2.13968e-007
2.13987e-007
2.14006e-007
2.14025e-007
2.14043e-007
2.14061e-007
2.14079e-007
2.14097e-007
2.14114e-007
2.14131e-007
2.14148e-007
2.14165e-007
2.14181e-007
2.14198e-007
2.14214e-007
2.1423e-007
2.14246e-007
2.14261e-007
2.14277e-007
2.14292e-007
2.14307e-007
2.14321e-007
2.14335e-007
2.14349e-007
2.14363e-007
2.14377e-007
2.1439e-007
2.14402e-007
2.14415e-007
2.14426e-007
2.14438e-007
2.14449e-007
2.14459e-007
2.1447e-007
2.1448e-007
2.14489e-007
2.14498e-007
2.14506e-007
2.14514e-007
2.14521e-007
2.14529e-007
2.14538e-007
2.14548e-007
2.14556e-007
2.14565e-007
2.14572e-007
2.14579e-007
2.14586e-007
2.14591e-007
2.14596e-007
2.146e-007
2.14603e-007
2.14605e-007
2.14606e-007
2.14605e-007
2.14604e-007
2.14602e-007
2.14598e-007
2.14594e-007
2.14588e-007
2.14581e-007
2.14572e-007
2.14561e-007
2.14548e-007
2.14535e-007
2.14521e-007
2.14504e-007
2.14485e-007
2.14468e-007
2.14452e-007
2.14437e-007
2.14422e-007
2.14405e-007
2.14387e-007
2.14358e-007
2.14342e-007
2.14306e-007
2.14284e-007
2.14255e-007
2.14231e-007
2.14173e-007
2.14189e-007
2.14431e-007
2.13342e-007
2.14164e-007
2.18096e-007
2.05051e-007
1.84353e-007
2.76687e-006
0.000432363
0.0166878
1.03845e-007
1.03866e-007
1.03886e-007
1.03901e-007
1.03913e-007
1.03929e-007
1.03952e-007
1.03968e-007
1.03981e-007
1.03989e-007
1.04002e-007
1.04025e-007
1.04044e-007
1.0406e-007
1.04074e-007
1.04086e-007
1.041e-007
1.04114e-007
1.04129e-007
1.04145e-007
1.04161e-007
1.04177e-007
1.04193e-007
1.0421e-007
1.04229e-007
1.04249e-007
1.04268e-007
1.04287e-007
1.04306e-007
1.04324e-007
1.04342e-007
1.04361e-007
1.04379e-007
1.04398e-007
1.04417e-007
1.04435e-007
1.04454e-007
1.04472e-007
1.0449e-007
1.04508e-007
1.04526e-007
1.04544e-007
1.04562e-007
1.0458e-007
1.04597e-007
1.04615e-007
1.04632e-007
1.04649e-007
1.04666e-007
1.04683e-007
1.04699e-007
1.04716e-007
1.04732e-007
1.04747e-007
1.04763e-007
1.04779e-007
1.04794e-007
1.04809e-007
1.04824e-007
1.04838e-007
1.04853e-007
1.04868e-007
1.04883e-007
1.04897e-007
1.04912e-007
1.04926e-007
1.0494e-007
1.04953e-007
1.04967e-007
1.0498e-007
1.04992e-007
1.05005e-007
1.05017e-007
1.05029e-007
1.05041e-007
1.05053e-007
1.05064e-007
1.05074e-007
1.05085e-007
1.05095e-007
1.05105e-007
1.05114e-007
1.05124e-007
1.05132e-007
1.05141e-007
1.05148e-007
1.05156e-007
1.05163e-007
1.0517e-007
1.05177e-007
1.05184e-007
1.05191e-007
1.05198e-007
1.05204e-007
1.05211e-007
1.05216e-007
1.05222e-007
1.05227e-007
1.05232e-007
1.05236e-007
1.05239e-007
1.05242e-007
1.05244e-007
1.05245e-007
1.05245e-007
1.05245e-007
1.05244e-007
1.05242e-007
1.05238e-007
1.05234e-007
1.05228e-007
1.0522e-007
1.0521e-007
1.05199e-007
1.05186e-007
1.05172e-007
1.05158e-007
1.05143e-007
1.05129e-007
1.05114e-007
1.05098e-007
1.0508e-007
1.05056e-007
1.05036e-007
1.05005e-007
1.04979e-007
1.04943e-007
1.04913e-007
1.04903e-007
1.05124e-007
1.0323e-007
1.08934e-007
1.05569e-007
8.36577e-008
1.52645e-007
6.30962e-006
0.00061618
0.018881
0.124361
7.0367e-008
7.03826e-008
7.03939e-008
7.04076e-008
7.04251e-008
7.0438e-008
7.0448e-008
7.04549e-008
7.04685e-008
7.04873e-008
7.05016e-008
7.05136e-008
7.05197e-008
7.05312e-008
7.05468e-008
7.05648e-008
7.05804e-008
7.05966e-008
7.06134e-008
7.06289e-008
7.0644e-008
7.06601e-008
7.06775e-008
7.06954e-008
7.07129e-008
7.07297e-008
7.07464e-008
7.07636e-008
7.07813e-008
7.07992e-008
7.08178e-008
7.08367e-008
7.08557e-008
7.08747e-008
7.08935e-008
7.09123e-008
7.09314e-008
7.09505e-008
7.09695e-008
7.09884e-008
7.10072e-008
7.10262e-008
7.10452e-008
7.1064e-008
7.10826e-008
7.11011e-008
7.11193e-008
7.11375e-008
7.11555e-008
7.11734e-008
7.11911e-008
7.12086e-008
7.12259e-008
7.12432e-008
7.12602e-008
7.1277e-008
7.12937e-008
7.13102e-008
7.13266e-008
7.13429e-008
7.13593e-008
7.13756e-008
7.13916e-008
7.14076e-008
7.14231e-008
7.14385e-008
7.14535e-008
7.14683e-008
7.14826e-008
7.14968e-008
7.15107e-008
7.15242e-008
7.15379e-008
7.15507e-008
7.15636e-008
7.15761e-008
7.15883e-008
7.16004e-008
7.1612e-008
7.16237e-008
7.16345e-008
7.16455e-008
7.16557e-008
7.16656e-008
7.16754e-008
7.16847e-008
7.16938e-008
7.17024e-008
7.17105e-008
7.17179e-008
7.17251e-008
7.17321e-008
7.17388e-008
7.17455e-008
7.17519e-008
7.17579e-008
7.17636e-008
7.1769e-008
7.1774e-008
7.17786e-008
7.17826e-008
7.17861e-008
7.17891e-008
7.17913e-008
7.17931e-008
7.17941e-008
7.17942e-008
7.17936e-008
7.17921e-008
7.17897e-008
7.17862e-008
7.17808e-008
7.1773e-008
7.17636e-008
7.17527e-008
7.17405e-008
7.17275e-008
7.17137e-008
7.17003e-008
7.16862e-008
7.16711e-008
7.16537e-008
7.16339e-008
7.16126e-008
7.15874e-008
7.156e-008
7.15344e-008
7.15141e-008
7.15593e-008
6.9665e-008
7.70936e-008
5.99603e-008
6.87304e-008
4.20368e-007
3.00562e-005
0.00150355
0.0289422
0.156357
0.396265
5.74034e-008
5.74144e-008
5.74257e-008
5.74344e-008
5.74412e-008
5.74469e-008
5.7457e-008
5.74718e-008
5.74836e-008
5.74912e-008
5.74954e-008
5.75044e-008
5.75186e-008
5.7532e-008
5.75435e-008
5.75541e-008
5.75653e-008
5.7576e-008
5.75853e-008
5.75968e-008
5.76114e-008
5.76263e-008
5.764e-008
5.76528e-008
5.76643e-008
5.76755e-008
5.76889e-008
5.77024e-008
5.77161e-008
5.77304e-008
5.77456e-008
5.77603e-008
5.77748e-008
5.77896e-008
5.78047e-008
5.782e-008
5.78354e-008
5.78512e-008
5.78669e-008
5.78826e-008
5.78984e-008
5.7914e-008
5.79293e-008
5.79443e-008
5.79595e-008
5.79747e-008
5.79899e-008
5.80049e-008
5.802e-008
5.80349e-008
5.80499e-008
5.80648e-008
5.80796e-008
5.80941e-008
5.81089e-008
5.81234e-008
5.81378e-008
5.8152e-008
5.81662e-008
5.81804e-008
5.81946e-008
5.82085e-008
5.82224e-008
5.82359e-008
5.82491e-008
5.82623e-008
5.82753e-008
5.82879e-008
5.83006e-008
5.83127e-008
5.83247e-008
5.83369e-008
5.83481e-008
5.83595e-008
5.83708e-008
5.83815e-008
5.83922e-008
5.84027e-008
5.84129e-008
5.84225e-008
5.84326e-008
5.84415e-008
5.84507e-008
5.846e-008
5.84685e-008
5.84767e-008
5.84844e-008
5.84925e-008
5.84997e-008
5.85064e-008
5.85126e-008
5.85183e-008
5.85239e-008
5.85291e-008
5.8534e-008
5.85387e-008
5.8543e-008
5.85471e-008
5.8551e-008
5.85542e-008
5.85571e-008
5.85596e-008
5.85616e-008
5.85634e-008
5.85642e-008
5.85647e-008
5.85646e-008
5.85638e-008
5.85623e-008
5.85599e-008
5.85569e-008
5.85525e-008
5.85461e-008
5.85381e-008
5.8529e-008
5.85187e-008
5.85071e-008