/*--------------------------------*- C++ -*----------------------------------*\
| =========                 |                                                 |
| \\      /  F ield         | OpenFOAM: The Open Source CFD Toolbox           |
|  \\    /   O peration     | Version:  5.x                                   |
|   \\  /    A nd           | Web:      www.OpenFOAM.org                      |
|    \\/     M anipulation  |                                                 |
\*---------------------------------------------------------------------------*/
/*   Windows 32 and 64 bit porting by blueCAPE: http://www.bluecape.com.pt   *\
|  Based on Windows porting (2.0.x v4) by Symscape: http://www.symscape.com   |
\*---------------------------------------------------------------------------*/
FoamFile
{
    version     2.0;
    format      ascii;
    class       volScalarField;
    location    "220";
    object      p;
}
// * * * * * * * * * * * * * * * * * * * * * * * * * * * * * * * * * * * * * //

dimensions      [0 2 -2 0 0 0 0];

internalField   nonuniform List<scalar> 
43900
(
0.361854
0.361508
0.361465
0.361337
0.361133
0.360906
0.360707
0.360376
0.360147
0.359822
0.3595
0.359173
0.358828
0.358471
0.358104
0.357727
0.357341
0.356947
0.356544
0.356134
0.355716
0.355293
0.354863
0.354427
0.353986
0.35354
0.353088
0.352632
0.352172
0.359846
0.367925
0.361788
0.365081
0.362572
0.363331
0.362414
0.362239
0.36178
0.361351
0.360947
0.360516
0.360086
0.359658
0.359227
0.358794
0.358358
0.357919
0.357477
0.357031
0.356582
0.35613
0.355675
0.355216
0.354753
0.354287
0.353817
0.353344
0.352868
0.352951
0.374719
0.363635
0.369881
0.364797
0.36737
0.364985
0.365323
0.364235
0.363822
0.363238
0.362678
0.362139
0.36161
0.361087
0.360572
0.36006
0.359552
0.359048
0.358545
0.358045
0.357545
0.357045
0.356545
0.356044
0.355542
0.355039
0.354533
0.354026
0.347957
0.375672
0.368928
0.368746
0.368391
0.367965
0.366878
0.366846
0.366053
0.365688
0.36513
0.36462
0.364106
0.363592
0.363078
0.362561
0.362043
0.361525
0.361007
0.360487
0.359966
0.359443
0.35892
0.358393
0.357864
0.357335
0.356801
0.356265
0.355727
0.350553
0.374336
0.369342
0.368735
0.368719
0.368296
0.368101
0.367872
0.367357
0.367054
0.366631
0.366217
0.365803
0.365371
0.364925
0.364467
0.364
0.363525
0.363039
0.362545
0.362044
0.361538
0.361024
0.360502
0.359978
0.359446
0.358907
0.358364
0.357814
0.355306
0.373402
0.370336
0.37005
0.369988
0.369595
0.369346
0.369107
0.368891
0.36863
0.368266
0.367927
0.36756
0.367179
0.36678
0.366366
0.365939
0.365498
0.365043
0.364572
0.364092
0.3636
0.363093
0.362579
0.362051
0.361514
0.36097
0.360411
0.359847
0.361232
0.375151
0.373326
0.37281
0.372775
0.372644
0.372322
0.371875
0.371557
0.371324
0.370996
0.370639
0.370271
0.369883
0.369483
0.369068
0.368639
0.368197
0.367736
0.367265
0.36678
0.366276
0.365761
0.365227
0.364684
0.364131
0.363555
0.362977
0.362384
0.368002
0.379115
0.377965
0.377363
0.37719
0.377052
0.37684
0.376494
0.376041
0.375599
0.375249
0.374884
0.37448
0.37406
0.373622
0.373175
0.372717
0.372235
0.371742
0.371234
0.370707
0.370168
0.369609
0.369042
0.368461
0.367856
0.367248
0.366618
0.36597
0.375803
0.384676
0.383976
0.38336
0.383093
0.382892
0.382652
0.382355
0.381976
0.38148
0.380988
0.380581
0.380159
0.379704
0.379239
0.378754
0.378245
0.377719
0.377171
0.376608
0.376031
0.375426
0.374811
0.374177
0.373522
0.372864
0.372179
0.371476
0.370773
0.384963
0.391615
0.391217
0.390604
0.390261
0.389996
0.389703
0.38937
0.388994
0.388554
0.388019
0.387457
0.386962
0.386459
0.385929
0.385388
0.384818
0.384223
0.383619
0.38299
0.382329
0.381658
0.380961
0.380239
0.379517
0.378754
0.377976
0.37719
0.376372
0.394207
0.399964
0.399671
0.39903
0.39862
0.398287
0.397929
0.397526
0.39708
0.396588
0.396032
0.39539
0.394698
0.394071
0.393441
0.392775
0.392101
0.391404
0.390673
0.389923
0.389164
0.388361
0.387543
0.38672
0.385844
0.384959
0.384063
0.383125
0.382185
0.4043
0.409468
0.409223
0.408545
0.408071
0.407672
0.407245
0.406769
0.406243
0.405665
0.40503
0.404324
0.403536
0.40269
0.401905
0.40112
0.400302
0.399463
0.398603
0.397727
0.396796
0.395865
0.394913
0.393893
0.392879
0.391856
0.390774
0.389704
0.388594
0.415633
0.420083
0.419865
0.419159
0.418627
0.418166
0.417676
0.417135
0.41654
0.415889
0.415176
0.414396
0.41354
0.412599
0.41161
0.410672
0.40973
0.408767
0.407784
0.40675
0.405726
0.404645
0.403501
0.402388
0.401231
0.400011
0.398805
0.397546
0.396248
0.427951
0.43175
0.431528
0.430798
0.43021
0.429685
0.429131
0.428522
0.427856
0.427128
0.426334
0.42547
0.42453
0.423508
0.422404
0.421264
0.42015
0.419045
0.417925
0.41678
0.415575
0.414333
0.413115
0.411794
0.410427
0.409084
0.407689
0.406241
0.404814
0.441094
0.444341
0.44409
0.443326
0.442677
0.442081
0.441449
0.440758
0.440002
0.439178
0.438279
0.437301
0.436241
0.435095
0.433857
0.432538
0.431186
0.429871
0.428539
0.427179
0.425825
0.424423
0.422942
0.421455
0.419971
0.418394
0.416763
0.415136
0.413453
0.455041
0.457841
0.457543
0.456739
0.456027
0.455354
0.454639
0.453856
0.453001
0.452068
0.451049
0.449941
0.44874
0.447442
0.446042
0.444538
0.442954
0.441348
0.439784
0.438199
0.436582
0.434933
0.433226
0.43149
0.429703
0.427896
0.426085
0.424204
0.422284
0.469743
0.472197
0.471846
0.470998
0.470221
0.469472
0.468673
0.467798
0.466841
0.465794
0.464652
0.463407
0.462057
0.460597
0.459026
0.457337
0.455531
0.453648
0.451743
0.449875
0.448003
0.446073
0.444111
0.44213
0.440076
0.437924
0.435763
0.433564
0.431321
0.485115
0.487322
0.486915
0.486017
0.485174
0.484348
0.483462
0.48249
0.481426
0.480261
0.478987
0.477597
0.476088
0.474456
0.472698
0.470812
0.468793
0.466656
0.46446
0.462237
0.460047
0.457859
0.455606
0.453275
0.450896
0.448489
0.44607
0.443545
0.44097
0.501081
0.503132
0.502673
0.50172
0.500812
0.499909
0.498938
0.49787
0.496697
0.495411
0.494004
0.492469
0.490799
0.488991
0.487044
0.484956
0.48272
0.480337
0.47786
0.475336
0.472828
0.47029
0.467692
0.465144
0.462484
0.459719
0.456876
0.454023
0.45123
0.517528
0.519506
0.518999
0.517991
0.517017
0.516039
0.514981
0.513816
0.512534
0.511125
0.50958
0.507892
0.506052
0.504058
0.501906
0.499597
0.497127
0.49449
0.491692
0.488812
0.485893
0.483008
0.480118
0.477113
0.474031
0.470967
0.467874
0.464632
0.461265
0.534331
0.53631
0.535761
0.534694
0.533653
0.5326
0.531456
0.530192
0.528796
0.527258
0.525567
0.523714
0.521694
0.519498
0.517125
0.514571
0.511835
0.508914
0.50581
0.502557
0.499225
0.495867
0.492535
0.489201
0.485773
0.482184
0.478555
0.474942
0.471317
0.551374
0.553416
0.552832
0.551704
0.550598
0.549472
0.548244
0.546882
0.545374
0.543706
0.54187
0.539855
0.537651
0.53525
0.532649
0.529844
0.526834
0.523614
0.520179
0.516557
0.512809
0.509002
0.505211
0.501358
0.497487
0.493601
0.489577
0.485389
0.481142
0.568514
0.570672
0.570057
0.568868
0.567698
0.566501
0.56519
0.563732
0.562112
0.560318
0.558336
0.556153
0.553761
0.551152
0.54832
0.54526
0.54197
0.538448
0.534687
0.530688
0.526515
0.522197
0.517912
0.513623
0.509195
0.504672
0.500089
0.495565
0.491
0.585621
0.587933
0.587295
0.586046
0.584815
0.583551
0.582161
0.58061
0.578881
0.576961
0.574834
0.572487
0.569909
0.567092
0.564027
0.560709
0.557135
0.5533
0.5492
0.544835
0.540242
0.535471
0.530589
0.525727
0.520909
0.516049
0.510964
0.505723
0.500521
0.602552
0.60505
0.604392
0.603086
0.601798
0.600471
0.599007
0.597366
0.595532
0.593489
0.59122
0.588712
0.585952
0.582929
0.579634
0.576058
0.5722
0.568054
0.563613
0.558868
0.553836
0.548605
0.543262
0.537852
0.532349
0.526872
0.521303
0.515449
0.509568
0.619175
0.621881
0.621207
0.619848
0.618507
0.617122
0.615587
0.61386
0.611925
0.609764
0.607359
0.604694
0.601755
0.598529
0.595005
0.591175
0.587033
0.582574
0.577796
0.572691
0.567244
0.561492
0.555554
0.549549
0.543407
0.537217
0.530999
0.524659
0.518203
0.635367
0.638294
0.637607
0.636199
0.634811
0.633372
0.63177
0.629962
0.627929
0.625653
0.623114
0.620294
0.617177
0.613748
0.609995
0.605909
0.601481
0.596706
0.591577
0.58609
0.580245
0.574061
0.567517
0.560845
0.554187
0.547414
0.540483
0.533408
0.52627
0.651018
0.654171
0.653475
0.652022
0.650591
0.649103
0.647439
0.645553
0.643427
0.641039
0.638369
0.635396
0.632103
0.628474
0.624495
0.620154
0.615442
0.610352
0.604877
0.599007
0.592734
0.586094
0.579147
0.5718
0.564346
0.556898
0.549291
0.541495
0.533597
0.666033
0.66941
0.668707
0.667215
0.665746
0.664214
0.662491
0.660532
0.658315
0.655819
0.65302
0.649898
0.646432
0.642606
0.638403
0.633811
0.628817
0.623414
0.617595
0.611354
0.604672
0.597539
0.590033
0.582252
0.574049
0.565751
0.557413
0.548946
0.540293
0.680335
0.68393
0.68322
0.681695
0.680194
0.678622
0.676844
0.674814
0.67251
0.669908
0.666984
0.663714
0.660077
0.656055
0.651629
0.646786
0.641511
0.635795
0.629631
0.623014
0.615936
0.608375
0.600324
0.591879
0.583198
0.574097
0.564925
0.555606
0.546032
0.693866
0.697667
0.696952
0.695398
0.693871
0.692261
0.690432
0.688335
0.685946
0.68324
0.680192
0.676775
0.672966
0.668747
0.664096
0.658998
0.653436
0.647401
0.640883
0.633876
0.626376
0.618375
0.609856
0.600835
0.591328
0.581633
0.571578
0.561339
0.551059
0.706585
0.710575
0.709855
0.708279
0.706729
0.705087
0.70321
0.701047
0.698575
0.695767
0.692594
0.689029
0.685048
0.680629
0.675749
0.670389
0.664531
0.658165
0.651278
0.643864
0.63592
0.62744
0.61842
0.608862
0.59883
0.588233
0.577387
0.566351
0.554945
0.71847
0.722628
0.721901
0.720308
0.718742
0.71707
0.715146
0.712921
0.710367
0.707457
0.70416
0.700448
0.696293
0.691669
0.686552
0.680919
0.674754
0.668041
0.660767
0.652925
0.644511
0.635524
0.625961
0.615818
0.605157
0.594
0.582255
0.570115
0.557816
0.729513
0.733814
0.733079
0.731476
0.729897
0.728199
0.726232
0.723946
0.721313
0.718304
0.714884
0.711024
0.706691
0.701855
0.696491
0.690576
0.684089
0.677009
0.669324
0.661024
0.652105
0.642569
0.632418
0.621651
0.610274
0.598422
0.585984
0.573059
0.559641
0.73972
0.744134
0.743391
0.741783
0.740197
0.738476
0.736469
0.734125
0.731417
0.72831
0.724769
0.720759
0.716243
0.711192
0.705578
0.699372
0.692546
0.685079
0.676956
0.668164
0.658699
0.648563
0.637766
0.626318
0.614231
0.601515
0.588367
0.574589
0.560216
0.749109
0.753605
0.752851
0.751244
0.749656
0.747916
0.745872
0.743474
0.740692
0.73749
0.733828
0.729669
0.724973
0.719709
0.713838
0.707328
0.700148
0.692273
0.683684
0.674364
0.664308
0.653517
0.642003
0.629786
0.616898
0.603335
0.589203
0.574545
0.559279
0.757707
0.762251
0.761483
0.759885
0.758299
0.756543
0.754466
0.752019
0.749168
0.745875
0.742098
0.737794
0.732923
0.727441
0.721306
0.714482
0.706937
0.698636
0.689553
0.679668
0.668971
0.657463
0.645156
0.632073
0.618259
0.603753
0.588589
0.572927
0.556573
0.765549
0.770105
0.769322
0.767738
0.76616
0.764393
0.762287
0.759795
0.756882
0.753504
0.749617
0.745174
0.740128
0.734429
0.728033
0.720896
0.712975
0.704229
0.694624
0.684136
0.672748
0.660457
0.647273
0.633225
0.618359
0.602742
0.586421
0.569546
0.552107
0.772673
0.777207
0.776408
0.774845
0.77328
0.771505
0.769377
0.766846
0.763875
0.76042
0.756429
0.751853
0.746638
0.740731
0.73408
0.726627
0.718321
0.709116
0.698968
0.687841
0.675712
0.66257
0.648424
0.6333
0.617251
0.600357
0.58271
0.564419
0.545693
0.779125
0.783604
0.782786
0.781251
0.779704
0.777927
0.775781
0.773218
0.770198
0.766673
0.762588
0.757888
0.752515
0.746409
0.739502
0.731736
0.723048
0.713377
0.702667
0.690869
0.677951
0.663891
0.64869
0.632376
0.615003
0.596662
0.57748
0.557596
0.537202
0.784951
0.789342
0.788505
0.787004
0.785481
0.783708
0.78155
0.778963
0.775903
0.772318
0.768149
0.763337
0.757816
0.751518
0.744371
0.736303
0.727235
0.717091
0.705806
0.693313
0.679561
0.664517
0.64817
0.630542
0.61169
0.591715
0.570768
0.549046
0.526724
0.790196
0.794473
0.793615
0.792157
0.790663
0.788898
0.786737
0.784134
0.781043
0.777409
0.773168
0.768257
0.762602
0.756129
0.748756
0.740394
0.730957
0.72035
0.708482
0.695273
0.68065
0.664559
0.646974
0.627904
0.607405
0.585589
0.562632
0.538783
0.5143
0.794909
0.799045
0.798169
0.79676
0.795302
0.793552
0.791395
0.788785
0.785673
0.782
0.777701
0.772705
0.766934
0.760303
0.752721
0.744087
0.734296
0.723236
0.710792
0.696858
0.681335
0.664141
0.645227
0.624582
0.602254
0.578365
0.553122
0.526826
0.499857
0.799133
0.80311
0.802217
0.800865
0.799448
0.79772
0.795575
0.792967
0.789845
0.786145
0.781801
0.776735
0.770866
0.764098
0.75633
0.747447
0.737322
0.72583
0.712829
0.698173
0.681732
0.663391
0.643064
0.620711
0.596362
0.570143
0.54229
0.513172
0.483303
0.802911
0.806712
0.805807
0.804521
0.803151
0.801453
0.799328
0.796731
0.793608
0.789893
0.785516
0.780398
0.774449
0.767568
0.75964
0.750536
0.740113
0.728216
0.714679
0.699321
0.681965
0.662448
0.640638
0.616449
0.589878
0.561042
0.530207
0.497819
0.464549
0.806281
0.809899
0.808987
0.807774
0.806458
0.804796
0.8027
0.800122
0.797007
0.793287
0.78889
0.783735
0.777727
0.770758
0.762701
0.753412
0.742729
0.730466
0.716429
0.700401
0.682153
0.661456
0.638114
0.611976
0.582982
0.551223
0.516979
0.480778
0.443499
0.809277
0.812712
0.811799
0.810668
0.809412
0.807793
0.805732
0.803181
0.80008
0.796364
0.791959
0.786782
0.780735
0.773704
0.765551
0.756118
0.745219
0.732644
0.718158
0.701505
0.682406
0.66056
0.635673
0.607503
0.575904
0.540898
0.502766
0.462104
0.420069
0.811925
0.815192
0.814283
0.813242
0.81205
0.81048
0.80846
0.80594
0.802859
0.799153
0.79475
0.789566
0.783502
0.776437
0.768224
0.758688
0.747626
0.734799
0.719935
0.702728
0.682838
0.659897
0.633505
0.603267
0.568933
0.530376
0.487821
0.441912
0.394209
0.814246
0.817375
0.816475
0.815529
0.814403
0.812886
0.810911
0.808425
0.805368
0.801678
0.797286
0.792111
0.786053
0.778984
0.77075
0.76116
0.749994
0.736985
0.721828
0.704163
0.683586
0.659631
0.631815
0.599552
0.562419
0.52003
0.472541
0.420492
0.365989
0.816258
0.819295
0.8184
0.817553
0.816495
0.815032
0.813103
0.810652
0.807623
0.803957
0.799592
0.794448
0.788424
0.78139
0.77318
0.763597
0.752395
0.73929
0.723943
0.705942
0.684824
0.660007
0.630893
0.596707
0.556816
0.51039
0.457508
0.398266
0.335607
0.817972
0.820981
0.82008
0.819331
0.818337
0.816928
0.815046
0.812635
0.809644
0.806022
0.80171
0.796633
0.790688
0.78374
0.775616
0.766109
0.754961
0.741862
0.726451
0.708268
0.686792
0.661328
0.631159
0.595228
0.552759
0.502243
0.443608
0.375949
0.303513
0.819399
0.822451
0.821524
0.820869
0.819933
0.818577
0.816748
0.814394
0.811469
0.807931
0.803724
0.798772
0.792971
0.78618
0.778221
0.768875
0.757878
0.744904
0.729573
0.711385
0.689783
0.663951
0.6331
0.595795
0.551133
0.49669
0.432275
0.354915
0.270805
0.820555
0.823716
0.822736
0.822171
0.821286
0.81999
0.818233
0.815973
0.813168
0.809779
0.805748
0.800998
0.79542
0.788868
0.781161
0.772073
0.761339
0.748624
0.733542
0.715561
0.694115
0.668268
0.637199
0.599086
0.552911
0.495041
0.425276
0.337139
0.239294
0.821459
0.824777
0.82372
0.82324
0.822406
0.821188
0.81954
0.817426
0.814808
0.811641
0.807865
0.803393
0.798114
0.791879
0.784508
0.775774
0.765416
0.753094
0.73843
0.720865
0.699843
0.67433
0.643498
0.605185
0.558293
0.497894
0.423522
0.32424
0.209807
0.822117
0.825617
0.824468
0.824072
0.823295
0.822178
0.820676
0.818756
0.816375
0.813483
0.81001
0.805862
0.800923
0.795044
0.788045
0.779706
0.769769
0.757894
0.743712
0.726644
0.706152
0.681108
0.650726
0.612518
0.565367
0.503163
0.424548
0.314549
0.178863
0.822483
0.826164
0.824921
0.824604
0.823884
0.82287
0.821516
0.819788
0.817637
0.815004
0.811809
0.807952
0.803313
0.797739
0.791055
0.783036
0.77343
0.761889
0.748055
0.73131
0.711156
0.686328
0.656152
0.6177
0.570065
0.505693
0.422315
0.300058
0.137432
0.822571
0.826403
0.825075
0.824823
0.824138
0.823186
0.821917
0.820296
0.818276
0.815792
0.812761
0.809077
0.804615
0.799217
0.792702
0.784837
0.775371
0.763933
0.750172
0.733418
0.713208
0.688114
0.657613
0.618211
0.569443
0.501773
0.413227
0.275513
0.0782593
0.823062
0.826965
0.825604
0.825417
0.824793
0.823909
0.822693
0.821096
0.819067
0.816551
0.813479
0.809759
0.80527
0.799856
0.793324
0.785426
0.775896
0.76434
0.750395
0.733342
0.712711
0.686985
0.655655
0.614904
0.564324
0.492904
0.39954
0.249137
0.014128
0.826173
0.830054
0.828778
0.828768
0.828547
0.828227
0.827642
0.826618
0.825003
0.82268
0.819567
0.815594
0.810686
0.804737
0.797598
0.789064
0.778865
0.766654
0.751993
0.734314
0.71286
0.686597
0.653979
0.612841
0.559306
0.487776
0.387903
0.243732
0.0766584
0.351624
0.350986
0.350342
0.349691
0.349033
0.34837
0.347701
0.347026
0.346347
0.345663
0.344974
0.344281
0.343583
0.342882
0.342177
0.341468
0.340756
0.34004
0.339322
0.3386
0.337876
0.33715
0.336421
0.335691
0.334959
0.334225
0.33349
0.332754
0.332018
0.33128
0.330542
0.329804
0.329066
0.328328
0.327591
0.326854
0.326118
0.325383
0.32465
0.323917
0.323187
0.322458
0.321732
0.321008
0.320287
0.319568
0.318853
0.31814
0.317432
0.316727
0.316026
0.31533
0.314638
0.31395
0.313268
0.31259
0.311918
0.311251
0.310591
0.309936
0.309287
0.308644
0.308008
0.307379
0.306756
0.306141
0.305532
0.304931
0.304338
0.303752
0.303174
0.302604
0.302043
0.301489
0.300945
0.300409
0.299881
0.299363
0.298854
0.298354
0.297864
0.297383
0.296911
0.296449
0.295997
0.295555
0.295123
0.294701
0.29429
0.293889
0.293498
0.293118
0.292749
0.292391
0.292043
0.291706
0.29138
0.291065
0.290761
0.290469
0.290187
0.289916
0.289656
0.289408
0.28917
0.288944
0.288728
0.288524
0.28833
0.288146
0.287974
0.287811
0.287659
0.287517
0.287385
0.287263
0.28715
0.287046
0.286952
0.286868
0.286793
0.286728
0.286671
0.286623
0.286583
0.28655
0.286523
0.286506
0.286491
0.286487
0.286487
0.286494
0.286509
0.286527
0.286561
0.286589
0.286655
0.286676
0.286828
0.352302
0.351645
0.350982
0.350313
0.349638
0.348957
0.348271
0.34758
0.346883
0.346182
0.345475
0.344764
0.344049
0.343329
0.342607
0.34188
0.34115
0.340418
0.339682
0.338943
0.338202
0.337458
0.336711
0.335962
0.335211
0.334458
0.333702
0.332945
0.332187
0.331428
0.330668
0.329908
0.329147
0.328386
0.327625
0.326865
0.326106
0.325348
0.324591
0.323835
0.323082
0.32233
0.321581
0.320834
0.32009
0.319348
0.31861
0.317876
0.317145
0.316418
0.315694
0.314976
0.314262
0.313552
0.312848
0.312148
0.311454
0.310766
0.310083
0.309406
0.308736
0.308072
0.307415
0.306765
0.306122
0.305486
0.304858
0.304238
0.303625
0.303021
0.302425
0.301837
0.301258
0.300687
0.300126
0.299573
0.29903
0.298496
0.297972
0.297457
0.296952
0.296457
0.295973
0.295499
0.295035
0.294582
0.294139
0.293707
0.293287
0.292877
0.292478
0.29209
0.291714
0.291349
0.290995
0.290652
0.290322
0.290003
0.289695
0.2894
0.289116
0.288843
0.288583
0.288335
0.288098
0.287873
0.28766
0.287459
0.287269
0.287091
0.286925
0.28677
0.286627
0.286496
0.286376
0.286268
0.28617
0.286084
0.286008
0.285942
0.285886
0.285837
0.285798
0.285767
0.285743
0.285728
0.285719
0.285712
0.28572
0.285716
0.285733
0.285734
0.28576
0.28575
0.285792
0.285757
0.285766
0.285728
0.285681
0.353426
0.352731
0.352031
0.351327
0.350618
0.349903
0.349182
0.348457
0.347727
0.346991
0.346249
0.345502
0.344751
0.343996
0.343235
0.342469
0.341701
0.34093
0.340154
0.339374
0.338589
0.337799
0.337006
0.336211
0.335412
0.334612
0.333811
0.333009
0.332206
0.331402
0.330598
0.329794
0.32899
0.328186
0.327383
0.32658
0.325779
0.324979
0.324181
0.323384
0.32259
0.321797
0.321008
0.320221
0.319438
0.318658
0.317881
0.317108
0.31634
0.315576
0.314816
0.314061
0.313311
0.312566
0.311826
0.311092
0.310364
0.309643
0.308927
0.308218
0.307516
0.30682
0.306132
0.305452
0.304778
0.304113
0.303455
0.302806
0.302165
0.301533
0.300909
0.300294
0.299689
0.299092
0.298505
0.297928
0.297361
0.296803
0.296256
0.295719
0.295193
0.294677
0.294173
0.293679
0.293196
0.292725
0.292265
0.291817
0.29138
0.290955
0.290542
0.29014
0.289751
0.289374
0.289009
0.288656
0.288316
0.287988
0.287673
0.287371
0.287081
0.286804
0.28654
0.286289
0.286051
0.285826
0.285614
0.285416
0.285231
0.285059
0.284901
0.284757
0.284627
0.28451
0.284407
0.284318
0.284243
0.284181
0.284133
0.284098
0.284077
0.284069
0.284073
0.284091
0.284122
0.284164
0.284221
0.284289
0.284366
0.284451
0.284546
0.28464
0.284735
0.284878
0.284848
0.285183
0.284924
0.285711
0.284833
0.355089
0.354349
0.353604
0.352853
0.352095
0.351332
0.350563
0.349787
0.349005
0.348216
0.347423
0.346624
0.345817
0.345003
0.344183
0.343358
0.342525
0.341696
0.34088
0.340078
0.33928
0.338478
0.33766
0.336818
0.335963
0.335106
0.334247
0.333385
0.332522
0.331658
0.330793
0.329928
0.329062
0.328197
0.327332
0.326468
0.325606
0.324744
0.323885
0.323028
0.322172
0.32132
0.32047
0.319624
0.318781
0.317941
0.317106
0.316274
0.315447
0.314625
0.313808
0.312996
0.31219
0.311389
0.310595
0.309806
0.309025
0.30825
0.307482
0.306722
0.305969
0.305224
0.304487
0.303758
0.303037
0.302325
0.301622
0.300928
0.300243
0.299568
0.298902
0.298247
0.297601
0.296966
0.296342
0.295727
0.295124
0.294532
0.293951
0.293381
0.292823
0.292276
0.29174
0.291216
0.290705
0.290205
0.289717
0.289241
0.288777
0.288326
0.287888
0.287463
0.28705
0.286651
0.286265
0.285892
0.285533
0.285187
0.284855
0.284537
0.284232
0.283943
0.283667
0.283406
0.28316
0.282929
0.282713
0.282513
0.282328
0.282159
0.282006
0.281869
0.281749
0.281645
0.281558
0.281489
0.281436
0.281401
0.281384
0.281386
0.281406
0.281445
0.281505
0.281584
0.281683
0.281807
0.281944
0.282102
0.282304
0.282507
0.282701
0.283145
0.282955
0.284057
0.282957
0.285495
0.282674
0.287623
0.281547
0.357161
0.356401
0.355626
0.354845
0.354057
0.353256
0.352447
0.35163
0.350806
0.349974
0.349132
0.348282
0.347424
0.346565
0.345698
0.344821
0.343938
0.34304
0.342117
0.341173
0.340226
0.339295
0.338383
0.337489
0.336583
0.33566
0.334736
0.33381
0.332882
0.331952
0.331021
0.330088
0.329154
0.32822
0.327285
0.32635
0.325416
0.324482
0.32355
0.322619
0.321689
0.320762
0.319838
0.318917
0.318
0.317087
0.316178
0.315273
0.314374
0.31348
0.312592
0.311711
0.310835
0.309967
0.309105
0.308251
0.307405
0.306566
0.305735
0.304913
0.304099
0.303293
0.302497
0.30171
0.300933
0.300165
0.299406
0.298658
0.297919
0.297191
0.296473
0.295765
0.295069
0.294383
0.293707
0.293044
0.292391
0.291751
0.291121
0.290503
0.289898
0.289305
0.288724
0.288156
0.2876
0.287058
0.286528
0.286012
0.28551
0.285022
0.284547
0.284087
0.283642
0.28321
0.282794
0.282393
0.282006
0.281635
0.28128
0.280941
0.280617
0.28031
0.280019
0.279745
0.279487
0.279247
0.279024
0.278818
0.278629
0.278459
0.278307
0.278173
0.278058
0.277962
0.277885
0.277828
0.277791
0.277774
0.27778
0.277806
0.277856
0.277929
0.278026
0.278152
0.278302
0.278487
0.278719
0.278964
0.279221
0.279756
0.279659
0.281083
0.279844
0.283376
0.279433
0.286895
0.277717
0.292127
0.270614
0.359174
0.358378
0.357572
0.356751
0.355913
0.355065
0.354206
0.353333
0.352447
0.35155
0.35064
0.349727
0.348806
0.347868
0.346925
0.345979
0.34503
0.344075
0.343113
0.342143
0.341157
0.340149
0.339126
0.338097
0.337082
0.336077
0.335066
0.334051
0.333034
0.332014
0.330994
0.329975
0.328955
0.327936
0.326917
0.325899
0.324881
0.323865
0.32285
0.321836
0.320826
0.319818
0.318812
0.317809
0.31681
0.315815
0.314824
0.313839
0.312859
0.311886
0.310919
0.309958
0.309004
0.308058
0.307119
0.306188
0.305265
0.30435
0.303444
0.302546
0.301658
0.300779
0.299909
0.299048
0.298198
0.297357
0.296527
0.295708
0.294899
0.294102
0.293315
0.292541
0.291778
0.291028
0.290291
0.289566
0.288855
0.288157
0.287472
0.286803
0.286145
0.285504
0.284875
0.284262
0.283664
0.28308
0.282513
0.281959
0.281422
0.2809
0.280394
0.279903
0.279428
0.278969
0.278527
0.278101
0.277691
0.277298
0.276922
0.276563
0.276221
0.275897
0.275589
0.2753
0.275029
0.274776
0.274541
0.274324
0.274127
0.273948
0.273788
0.273648
0.273529
0.273429
0.273351
0.273294
0.27326
0.273248
0.273261
0.273298
0.273362
0.273454
0.273575
0.273728
0.273913
0.274119
0.274368
0.274729
0.274801
0.275661
0.275145
0.276961
0.275415
0.278553
0.275788
0.280356
0.274887
0.287122
0.255554
0.361663
0.360828
0.359967
0.359082
0.358188
0.357281
0.356348
0.355399
0.354437
0.35347
0.352487
0.351484
0.350466
0.349437
0.348399
0.347342
0.346269
0.345186
0.344096
0.342999
0.341895
0.340785
0.339668
0.338548
0.337422
0.336289
0.335157
0.334023
0.332887
0.331753
0.330614
0.329469
0.328324
0.327183
0.326041
0.324901
0.323762
0.322626
0.321491
0.32036
0.31923
0.318103
0.316982
0.315868
0.31476
0.313659
0.312566
0.31148
0.310402
0.309331
0.308269
0.307215
0.30617
0.305134
0.304107
0.303089
0.302081
0.301084
0.300097
0.299122
0.298158
0.297206
0.296266
0.295338
0.294423
0.293521
0.29263
0.291754
0.290889
0.290038
0.289201
0.288375
0.287563
0.286764
0.285977
0.28521
0.284451
0.283707
0.282978
0.282261
0.28156
0.280873
0.280203
0.279546
0.278904
0.27828
0.27767
0.277077
0.2765
0.275939
0.275396
0.274869
0.27436
0.273867
0.273393
0.272936
0.272497
0.272075
0.271672
0.271287
0.270919
0.27057
0.27024
0.269927
0.269634
0.269359
0.269104
0.268867
0.26865
0.268453
0.268276
0.26812
0.267985
0.267871
0.267779
0.267709
0.267662
0.26764
0.26764
0.267665
0.267715
0.267787
0.267884
0.268003
0.268149
0.268306
0.268425
0.268758
0.26867
0.269318
0.268928
0.269879
0.269328
0.270234
0.270312
0.270486
0.270491
0.27731
0.245375
0.365206
0.364288
0.363344
0.362384
0.361393
0.360375
0.359333
0.35831
0.35726
0.356154
0.355039
0.3539
0.35277
0.351628
0.350451
0.349264
0.348075
0.346883
0.345678
0.34446
0.343229
0.341988
0.340739
0.33949
0.338232
0.336976
0.335713
0.334434
0.333148
0.331855
0.330561
0.329298
0.328067
0.32683
0.325585
0.324339
0.323094
0.321853
0.320616
0.319385
0.318161
0.31694
0.315704
0.31444
0.313174
0.311937
0.310725
0.30953
0.308348
0.307176
0.306013
0.304861
0.303719
0.302589
0.301471
0.300367
0.299276
0.298198
0.297135
0.296086
0.295052
0.294033
0.293025
0.292026
0.291034
0.290052
0.289081
0.28812
0.287176
0.286243
0.285321
0.284412
0.283512
0.28262
0.281738
0.280875
0.280032
0.27921
0.278402
0.277616
0.276848
0.276097
0.275364
0.274655
0.273961
0.273283
0.272625
0.271983
0.271359
0.270752
0.270162
0.26959
0.269035
0.268496
0.267976
0.267472
0.266987
0.266518
0.266068
0.265636
0.265222
0.264827
0.264451
0.264093
0.263754
0.263435
0.263134
0.262854
0.262593
0.262353
0.262132
0.261932
0.261752
0.261593
0.261454
0.261335
0.261236
0.261157
0.261097
0.261054
0.261029
0.261016
0.261019
0.261031
0.26106
0.261113
0.26109
0.261276
0.261153
0.261491
0.26129
0.261699
0.261628
0.261637
0.262023
0.261172
0.260779
0.26783
0.239176
0.369914
0.36889
0.367857
0.366792
0.365692
0.364577
0.363449
0.362261
0.361061
0.359867
0.35866
0.357438
0.356183
0.354909
0.353639
0.352355
0.351033
0.349689
0.34833
0.347003
0.345655
0.34427
0.342879
0.341496
0.340145
0.338762
0.337333
0.335916
0.334505
0.333083
0.331657
0.330216
0.328766
0.327338
0.32592
0.324507
0.3231
0.321698
0.320298
0.318903
0.317521
0.316156
0.314805
0.313478
0.312165
0.310855
0.309546
0.308236
0.306931
0.305633
0.304344
0.303066
0.301799
0.300543
0.299298
0.298063
0.29684
0.295627
0.294424
0.293233
0.292054
0.290884
0.28973
0.288589
0.287467
0.286366
0.285286
0.284225
0.28318
0.282153
0.281148
0.280164
0.279198
0.278257
0.277347
0.276449
0.275568
0.274697
0.273844
0.273003
0.272174
0.271369
0.270579
0.269797
0.269034
0.268292
0.267562
0.266853
0.266162
0.26549
0.264837
0.264204
0.263589
0.262995
0.262419
0.261863
0.261326
0.260809
0.26031
0.259831
0.25937
0.258928
0.258504
0.2581
0.257714
0.257346
0.256997
0.256666
0.256354
0.25606
0.255784
0.255526
0.255285
0.25506
0.254852
0.25466
0.254482
0.254318
0.254168
0.254029
0.253904
0.25379
0.253686
0.253591
0.253502
0.253464
0.253338
0.253401
0.253232
0.253379
0.253223
0.253335
0.253499
0.25335
0.253741
0.252944
0.251573
0.258108
0.233487
0.375393
0.374249
0.373064
0.371849
0.370608
0.36934
0.368045
0.366714
0.365373
0.363992
0.362577
0.361152
0.359706
0.358235
0.35674
0.355226
0.35371
0.352237
0.350735
0.34915
0.34758
0.346033
0.344511
0.34303
0.34149
0.339896
0.338332
0.336768
0.335208
0.333663
0.332121
0.33057
0.328986
0.327392
0.325808
0.324234
0.322667
0.321105
0.319552
0.318011
0.316473
0.314927
0.313393
0.311899
0.310422
0.308937
0.307449
0.305978
0.304525
0.303089
0.301669
0.300261
0.298867
0.297484
0.296113
0.294756
0.29341
0.292079
0.290763
0.289463
0.288182
0.286922
0.285686
0.284479
0.2833
0.282143
0.281
0.279875
0.278765
0.277678
0.276602
0.275553
0.274524
0.273506
0.272507
0.27153
0.270562
0.269611
0.26868
0.267766
0.266872
0.265983
0.265126
0.264305
0.263499
0.262709
0.261943
0.261195
0.260464
0.259751
0.259056
0.258377
0.257716
0.257072
0.256449
0.255846
0.255262
0.254698
0.254152
0.253626
0.253119
0.252631
0.252161
0.251708
0.251272
0.250854
0.250452
0.250066
0.249697
0.249344
0.249006
0.248683
0.248374
0.24808
0.247799
0.247531
0.247277
0.247034
0.246806
0.246588
0.246384
0.246196
0.246019
0.245859
0.245697
0.245604
0.245431
0.245416
0.245254
0.245285
0.245193
0.245153
0.245369
0.244858
0.244703
0.244072
0.242944
0.248427
0.227304
0.381055
0.379694
0.378316
0.376905
0.375452
0.373967
0.372452
0.370923
0.369353
0.367754
0.366145
0.364523
0.362884
0.361222
0.359552
0.357894
0.356204
0.354455
0.352712
0.350999
0.349297
0.347564
0.345769
0.343895
0.342058
0.340284
0.338497
0.336706
0.334942
0.333164
0.33134
0.329546
0.327818
0.326127
0.324434
0.322729
0.321016
0.319302
0.317591
0.315884
0.314182
0.312496
0.31084
0.309197
0.307557
0.305925
0.304301
0.302688
0.301086
0.299501
0.297933
0.296384
0.294855
0.293346
0.291861
0.290397
0.288957
0.287539
0.286144
0.284771
0.283417
0.282085
0.280769
0.27947
0.278188
0.27691
0.275659
0.274425
0.27321
0.272014
0.270842
0.269684
0.268551
0.267447
0.266367
0.26531
0.264276
0.263274
0.262291
0.261326
0.260373
0.259459
0.258567
0.257683
0.256818
0.255977
0.255155
0.254349
0.25357
0.252813
0.252076
0.251364
0.250675
0.250013
0.249369
0.248741
0.248131
0.247537
0.246959
0.246399
0.245854
0.245326
0.244813
0.244318
0.243841
0.24338
0.242936
0.242508
0.242096
0.241699
0.241318
0.240952
0.240601
0.240265
0.239944
0.239638
0.239349
0.239073
0.238815
0.238572
0.238346
0.238137
0.237948
0.237782
0.23761
0.237508
0.237343
0.237303
0.237144
0.237163
0.237064
0.236891
0.236883
0.236302
0.235895
0.235325
0.234399
0.239126
0.220684
0.387232
0.385689
0.384076
0.382436
0.380801
0.379121
0.377391
0.37563
0.373856
0.372088
0.370296