/*--------------------------------*- C++ -*----------------------------------*\
| =========                 |                                                 |
| \\      /  F ield         | OpenFOAM: The Open Source CFD Toolbox           |
|  \\    /   O peration     | Version:  5.x                                   |
|   \\  /    A nd           | Web:      www.OpenFOAM.org                      |
|    \\/     M anipulation  |                                                 |
\*---------------------------------------------------------------------------*/
/*   Windows 32 and 64 bit porting by blueCAPE: http://www.bluecape.com.pt   *\
|  Based on Windows porting (2.0.x v4) by Symscape: http://www.symscape.com   |
\*---------------------------------------------------------------------------*/
FoamFile
{
    version     2.0;
    format      ascii;
    class       surfaceScalarField;
    location    "220";
    object      phi;
}
// * * * * * * * * * * * * * * * * * * * * * * * * * * * * * * * * * * * * * //

dimensions      [0 3 -1 0 0 0 0];

internalField   nonuniform List<scalar> 
87341
(
0.365475
39.5576
0.52782
39.7607
0.493763
39.9571
0.599552
39.8172
0.636243
39.8863
0.679191
39.8801
0.717534
39.8847
0.759792
39.8808
0.798552
39.8843
0.828718
39.8929
0.855898
39.8959
0.881086
39.8978
0.905422
39.8987
0.928532
39.8999
0.94978
39.9018
0.96865
39.9042
0.986505
39.9052
1.00235
39.9072
1.0168
39.9086
1.03076
39.9091
1.04312
39.9107
1.05504
39.9111
1.06668
39.9114
1.07713
39.9126
1.08764
39.9125
1.09792
39.9128
1.10735
39.9136
1.11714
39.9133
39.9134
1.12682
0.966009
38.5916
1.35471
39.372
1.4624
39.8494
1.5947
39.6849
1.62769
39.8534
1.78246
39.7253
1.87602
39.7911
2.00607
39.7507
2.09879
39.7916
2.2104
39.7813
2.31741
39.7888
2.41726
39.798
2.50887
39.8071
2.59188
39.8169
2.66811
39.8256
2.74009
39.8322
2.80521
39.8401
2.86591
39.8465
2.923
39.8515
2.97477
39.8573
3.02464
39.8608
3.07131
39.8644
3.1139
39.8688
3.15547
39.871
3.19397
39.874
3.22949
39.8772
3.26442
39.8787
3.29638
39.8813
39.8833
3.32645
2.03231
36.5592
3.34665
38.0576
4.12277
39.0733
4.20247
39.6052
4.35864
39.6972
4.28926
39.7947
4.31968
39.7607
4.29241
39.778
4.31549
39.7685
4.33624
39.7605
4.36118
39.7639
4.39691
39.7623
4.43585
39.7682
4.47668
39.7761
4.51981
39.7824
4.56131
39.7907
4.60447
39.7969
4.65003
39.8009
4.69488
39.8067
4.74172
39.8105
4.78844
39.8141
4.83397
39.8189
4.88119
39.8216
4.92664
39.8256
4.97116
39.8295
5.01696
39.8314
5.06015
39.8355
5.10278
39.8387
39.8399
5.14613
1.6964
34.8628
3.49456
36.2595
4.94314
37.6247
5.83009
38.7183
6.13056
39.3967
6.21939
39.7059
6.23509
39.745
6.25473
39.7584
6.26699
39.7562
6.26678
39.7607
6.26486
39.7658
6.25157
39.7756
6.24222
39.7775
6.24063
39.7777
6.24292
39.7801
6.25621
39.7774
6.27699
39.7761
6.29712
39.7808
6.3229
39.7809
6.35235
39.781
6.38165
39.7848
6.41368
39.7869
6.44633
39.7889
6.48065
39.7912
6.51657
39.7936
6.55068
39.7973
6.58778
39.7984
6.62633
39.8001
39.8042
6.66208
1.08234
33.7805
2.44455
34.8973
4.01227
36.057
5.47133
37.2592
6.53486
38.3332
7.11329
39.1274
7.31153
39.5468
7.34968
39.7202
7.38046
39.7254
7.40903
39.7322
7.43692
39.7379
7.46888
39.7436
7.49717
39.7492
7.51992
39.7549
7.55203
39.748
7.58576
39.7437
7.61476
39.7471
7.64887
39.7467
7.68512
39.7446
7.72238
39.7438
7.76204
39.7451
7.79959
39.7493
7.84123
39.7473
7.88567
39.7468
7.92628
39.753
7.97255
39.7511
8.02033
39.7506
8.06187
39.7586
39.7569
8.10913
0.844071
32.9364
1.84595
33.8954
3.00444
34.8985
4.32348
35.9402
5.66669
36.99
6.79301
38.0011
7.50895
38.8308
7.85356
39.3756
7.97948
39.5995
8.05613
39.6555
8.13391
39.6601
8.20943
39.6681
8.28777
39.6709
8.36708
39.6756
8.43913
39.676
8.50975
39.673
8.58628
39.6706
8.6581
39.6749
8.72607
39.6766
8.79567
39.6742
8.86149
39.6793
8.93312
39.6777
9.00554
39.6749
9.07055
39.6818
9.14141
39.6821
9.21202
39.6804
9.277
39.6856
9.35017
39.6854
39.6834
9.42374
0.736027
32.2004
1.57239
33.059
2.51156
33.9593
3.55755
34.8942
4.69996
35.8476
5.90103
36.8001
7.00063
37.7312
7.81487
38.5614
8.25918
39.1552
8.45489
39.4598
8.57425
39.5408
8.6971
39.5452
8.81865
39.5493
8.94083
39.5534
9.05997
39.5568
9.17711
39.5559
9.28564
39.5621
9.39479
39.5657
9.50917
39.5623
9.61407
39.5693
9.72278
39.5706
9.82844
39.572
9.92512
39.5782
10.0283
39.5786
10.1307
39.5797
10.2269
39.5843
10.3274
39.5851
10.4221
39.5908
39.5957
10.5097
0.684584
31.5158
1.43827
32.3053
2.26413
33.1335
3.16449
33.9939
4.13682
34.8752
5.17211
35.7648
6.2557
36.6476
7.31408
37.503
8.16869
38.3006
8.70624
38.9222
8.9601
39.2869
9.10968
39.3956
9.25722
39.4018
9.39625
39.4144
9.54026
39.4128
9.68006
39.4161
9.82234
39.4198
9.96735
39.4207
10.0976
39.432
10.2348
39.432
10.3727
39.4328
10.5065
39.4382
10.6452
39.4395
10.7809
39.4429
10.9067
39.4539
11.0352
39.4559
11.1584
39.4618
11.2815
39.4677
39.4663
11.4109
0.651602
30.8642
1.35276
31.6042
2.10805
32.3782
2.91946
33.1824
3.78647
34.0082
4.70553
34.8457
5.66911
35.6841
6.66129
36.5108
7.65116
37.3107
8.50948
38.0639
9.10296
38.6934
9.40082
39.0978
9.57952
39.2231
9.76056
39.2334
9.91903
39.2544
10.0829
39.2522
10.2508
39.2519
10.4096
39.262
10.5752
39.2664
10.7413
39.2659
10.9007
39.2734
11.0618
39.2771
11.218
39.2833
11.3668
39.2941
11.5211
39.2996
11.6734
39.3035
11.8271
39.3082
11.9802
39.3145
39.3263
12.1202
0.624868
30.2394
1.29155
30.9375
1.99897
31.6707
2.74869
32.4327
3.5408
33.2161
4.37365
34.0129
5.24329
34.8144
6.14249
35.6116
7.05912
36.3941
7.97388
37.1492
8.80943
37.8579
9.42754
38.4797
9.75785
38.8928
9.96488
39.0263
10.1812
39.038
10.3803
39.0531
10.5682
39.064
10.7642
39.066
10.9651
39.0656
11.157
39.074
11.3479
39.0824
11.5284
39.0967
11.7051
39.1065
11.884
39.1153
12.0681
39.1155
12.2458
39.1257
12.4107
39.1433
12.5666
39.1586
39.1663
12.7265
0.6173
29.6221
1.26702
30.2878
1.95009
30.9877
2.66698
31.7158
3.41737
32.4657
4.19999
33.2302
5.01236
34.0021
5.85041
34.7736
6.70787
35.5366
7.57504
36.282
8.43493
36.998
9.24787
37.6667
9.87297
38.2677
10.2251
38.6742
10.4569
38.8062
10.6974
38.8126
10.9325
38.8289
11.1601
38.8384
11.377
38.8486
11.588
38.8631
11.7969
38.8735
12.0212
38.8724
12.2422
38.8855
12.4607
38.8968
12.6584
38.9178
12.8442
38.94
13.036
38.9515
13.2439
38.9507
38.9619
13.4484
0.624418
28.9976
1.27614
29.6361
1.95632
30.3075
2.66512
31.007
3.4022
31.7286
4.16644
32.466
4.95597
33.2125
5.768
33.9615
6.59852
34.7061
7.44167
35.4389
8.28822
36.1515
9.12163
36.8333
9.91971
37.4696
10.5533
38.0407
10.9279
38.4316
11.178
38.5625
11.437
38.57
11.6953
38.5801
11.9319
38.612
12.177
38.6179
12.4333
38.6172
12.6629
38.6427
12.881
38.6674
13.1056
38.6722
13.3313
38.6922
13.5697
38.7015
13.8142
38.7071
14.0215
38.7434
38.7678
14.2156
0.635819
28.3618
1.29657
28.9753
1.98243
29.6216
2.69316
30.2963
3.42823
30.9936
4.18683
31.7074
4.9674
32.4319
5.76778
33.1612
6.58498
33.8889
7.41497
34.6089
8.25198
35.3145
9.08732
35.998
9.90703
36.6499
10.6914
37.2563
11.3236
37.7993
11.7087
38.1774
11.9851
38.2936
12.2405
38.3246
12.5242
38.3283
12.8092
38.3329
13.0596
38.3668
13.3184
38.3839
13.6042
38.3815
13.8631
38.4133
14.1068
38.4485
14.3473
38.4611
14.5624
38.492
14.7956
38.5101
38.5138
15.0496
0.647331
27.7145
1.31725
28.3054
2.0098
28.9291
2.72466
29.5815
3.46076
30.2575
4.21695
30.9512
4.99193
31.657
5.78383
32.3693
6.59017
33.0825
7.40782
33.7912
8.23266
34.4896
9.05911
35.1715
9.87904
35.8299
10.6795
36.4558
11.4423
37.0365
12.066
37.5537
12.461
37.8986
12.7804
38.0052
13.0878
38.0209
13.3802
38.0406
13.68
38.0671
13.9755
38.0884
14.2324
38.1246
14.501
38.1447
14.799
38.1505
15.0801
38.18
15.3531
38.219
15.6108
38.2524
38.2813
15.8433
0.661021
27.0535
1.34259
27.6238
2.04452
28.2272
2.7666
28.8594
3.50799
29.5161
4.26701
30.1922
5.04198
30.882
5.83126
31.58
6.63271
32.2811
7.44368
32.9803
8.26092
33.6724
9.08033
34.3521
9.89647
35.0138
10.7016
35.6507
11.484
36.2542
12.225
36.8127
12.8185
37.305
13.2341
37.5896
13.5768
37.6782
13.8908
37.7265
14.1996
37.7583
14.5308
37.7573
14.865
37.7904
15.2011
37.8086
15.4986
37.8529
15.7772
37.9014
16.0587
37.9374
16.3595
37.9517
37.9818
16.659
0.675794
26.3777
1.37072
26.9289
2.08427
27.5136
2.81587
28.1278
3.5649
28.767
4.33016
29.4269
5.10954
30.1026
5.90098
30.7885
6.70256
31.4795
7.512
32.1708
8.32653
32.8578
9.14287
33.5358
9.95696
34.1997
10.7635
34.8441
11.5552
35.4625
12.3211
36.0468
13.0382
36.5879
13.5806
37.0473
13.9571
37.3018
14.3226
37.361
14.7029
37.3779
15.0527
37.4075
15.3825
37.4605
15.706
37.4852
16.0233
37.5356
16.3581
37.5666
16.696
37.5995
16.9963
37.6514
37.6949
17.2832
0.691161
25.6865
1.40048
26.2196
2.12723
26.7869
2.87054
27.3845
3.62943
28.0081
4.40299
28.6534
5.18977
29.3158
5.98744
29.9909
6.79368
30.6733
7.60641
31.3581
8.42322
32.041
9.24132
32.7177
10.0575
33.3836
10.8678
34.0338
11.6672
34.6631
12.4491
35.2649
13.2054
35.8316
13.8949
36.3578
14.42
36.7766
14.8579
36.9231
15.2348
37.0011
15.5927
37.0496
15.9612
37.0921
16.3143
37.1321
16.6632
37.1867
17.0094
37.2204
17.3487
37.2602
17.6966
37.3035
37.3631
18.0284
0.707411
24.9791
1.43229
25.4947
2.17384
26.0453
2.93108
26.6272
3.70282
27.2364
4.4878
27.8684
5.28486
28.5188
6.09245
29.1833
6.90814
29.8576
7.72949
30.5367
8.55434
31.2162
9.38015
31.8919
10.2041
32.5596
11.023
33.2149
11.833
33.8532
12.629
34.4689
13.4048
35.0557
14.1555
35.6071
14.8149
36.1172
15.2874
36.4506
15.6978
36.5907
16.0868
36.6606
16.4699
36.7089
16.8845
36.7175
17.3138
36.7574
17.7182
36.816
18.0714
36.9071
18.3918
36.9831
37.0321
18.7227
0.723262
24.2558
1.46359
24.7544
2.22009
25.2888
2.99169
25.8556
3.77713
26.451
4.57497
27.0706
5.38366
27.7101
6.20183
28.3651
7.02777
29.0316
7.85895
29.7056
8.69289
30.3822
9.52729
31.0575
10.3595
31.7274
11.1866
32.3878
12.0052
33.0346
12.8112
33.6628
13.5998
34.2671
14.3653
34.8416
15.0994
35.3831
15.6934
35.8567
16.1726
36.1115
16.6499
36.1833
17.0916
36.2672
17.4781
36.331
17.8335
36.402
18.1957
36.4538
18.5969
36.5059
18.9914
36.5885
36.6595
19.3641
0.738997
23.5168
1.49485
23.9985
2.26657
24.5171
3.05302
25.0692
3.85292
25.6511
4.66478
26.2587
5.48697
26.8879
6.31773
27.5343
7.15547
28.1939
7.9983
28.8627
8.84368
29.5369
9.68913
30.212
10.5321
30.8844
11.37
31.55
12.1996
32.205
13.0175
32.8448
13.8198
33.4648
14.602
34.0595
15.3602
34.6249
16.0615
35.1554
16.6275
35.5454
17.1063
35.7045
17.5713
35.8022
18.0634
35.8389
18.5332
35.9322
18.9379
36.0492
19.3233
36.1204
19.7127
36.1992
36.2304
20.1417
0.755201
22.7616
1.52717
23.2266
2.31493
23.7293
3.11733
24.2668
3.93307
24.8353
4.76071
25.4311
5.59864
26.05
6.4451
26.6879
7.29825
27.3407
8.15639
28.0046
9.01745
28.6758
9.87899
29.3505
10.7386
30.0247
11.5938
30.6948
12.4418
31.357
13.2796
32.0071
14.1036
32.6408
14.91
33.2531
15.6959
33.8389
16.4491
34.4023
17.1065
34.888
17.6487
35.1622
18.112
35.3389
18.5125
35.4384
18.9354
35.5093
19.4351
35.5494
19.9475
35.6081
20.3975
35.7492
35.8652
20.7628
0.771317
21.9903
1.5595
22.4384
2.36355
22.9253
3.18232
23.448
4.01455
24.0031
4.85879
24.5868
5.71348
25.1953
6.5769
25.8245
7.44718
26.4705
8.32243
27.1293
9.20077
27.7975
10.08
28.4712
10.9578
29.147
11.8315
29.8211
12.6986
30.4899
13.5562
31.1496
14.4007
31.7962
15.2287
32.4251
16.0357
33.032
16.8232
33.6148
17.5414
34.1698
18.1191
34.5845
18.685
34.773
19.2327
34.8907
19.7203
35.0218
20.1199
35.1498
20.5069
35.2211
20.9464
35.3097
35.3742
21.4374
0.787181
21.2031
1.59135
21.6342
2.41156
22.1051
3.24674
22.6128
4.09566
23.1542
4.95693
23.7255
5.82902
24.3232
6.71026
24.9432
7.59881
25.5819
8.49273
26.2354
9.39009
26.9001
10.2888
27.5725
11.1866
28.2492
12.081
28.9267
12.9694
29.6015
13.8489
30.2701
14.7163
30.9288
15.568
31.5734
16.4002
32.1998
17.2097
32.8053
17.9901
33.3894
18.6739
33.9007
19.1993
34.2476
19.6931
34.3969
20.2523
34.4626
20.8624
34.5397
21.3904
34.6931
21.7883
34.9118
35.0596
22.1029
0.801846
20.4013
1.62088
20.8152
2.4562
21.2697
3.30679
21.7622
4.17149
22.2895
5.04897
22.8481
5.93775
23.4344
6.83621
24.0448
7.74258
24.6755
8.65497
25.323
9.57135
25.9837
10.4896
26.6542
11.4076
27.3312
12.3229
28.0113
13.2331
28.6913
14.1355
29.3678
15.0269
30.0373
15.9042
30.6961
16.7635
31.3405
17.6015
31.9673
18.4085
32.5824
19.1464
33.1629
19.8548
33.5391
20.4387
33.813
20.8588
34.0426
21.2091
34.1894
21.7112
34.1909
22.3167
34.3063
34.5783
22.7981
0.814887
19.5864
1.64714
19.9829
2.49595
20.4209
3.36037
20.8978
4.23932
21.4105
5.13154
21.9558
6.03564
22.5303
6.95003
23.1304
7.87299
23.7526
8.80269
24.3933
9.73714
25.0493
10.6742
25.7171
11.6118
26.3936
12.5475
27.0756
13.479
27.7598
14.4037
28.4431
15.319
29.1221
16.2217
29.7934
17.1089
30.4533
17.9777
31.0985
18.8301
31.73
19.6166
32.3764
20.2382
32.9175
20.8598
33.1913
21.5322
33.3701
22.0653
33.6564
22.4164
33.8398
22.832
33.8906
34.0831
23.3272
0.825864
18.7605
1.66926
19.1395
2.52948
19.5607
3.40569
20.0216
4.2969
20.5193
5.20194
21.0508
6.1195
21.6128
7.04806
22.2018
7.98597
22.8147
8.93143
23.4479
9.88248
24.0982
10.8371
24.7625
11.7931
25.4376
12.7482
26.1205
13.7
26.808
14.6459
27.4972
15.5832
28.1848
16.5089
28.8677
17.4196
29.5425
18.312
30.2062
19.1843
30.8577
20.0536
31.5071
20.8621
32.109
21.4037
32.6497
21.8917
32.8822
22.543
33.005
23.1266
33.2562
23.6071
33.4102
33.669
24.0212
0.834422
17.9261
1.6865
18.2874
2.55565
18.6916
3.44116
19.1361
4.34218
19.6183
5.25764
20.1353
6.18631
20.6841
7.12679
21.2614
8.0775
21.8639
9.0367
22.4887
10.0025
23.1324
10.973
23.7921
11.9459
24.4647
12.9191
25.1472
13.8902
25.8369
14.8566
26.5308
15.8156
27.2258
16.7643
27.919
17.6994
28.6074
18.6172
29.2884
19.5137
29.9611
20.3753
30.6455
21.2102
31.2742
22.0263
31.8335
22.5485
32.36
22.9595
32.5941
23.5015
32.7142
24.0491
32.8625
33.1053
24.6129
0.840211
17.0859
1.69814
17.4295
2.57334
17.8164
3.46527
18.2442
4.37317
18.7104
5.29612
19.2124
6.23301
19.7472
7.18251
20.3118
8.14316
20.9033
9.11331
21.5185
10.0911
22.1546
11.0747
22.8085
12.062
23.4774
13.0507
24.1586
14.0385
24.8491
15.023
25.5463
16.0014
26.2474
16.9709
26.9495
17.9283
27.65
18.8706
28.3461
19.7947
29.0371
20.7054
29.7347
21.5194
30.4603
22.2885
31.0644
23.0775
31.5709
23.6407
32.0309
24.063
32.2919
24.5092
32.4164
32.6059
25.0086
0.843009
16.2429
1.70373
16.5688
2.58185
16.9382
3.47698
17.349
4.38854
17.7989
5.3157
18.2852
6.25747
18.8054
7.21265
19.3567
8.17986
19.9361
9.15752
20.5409
10.1439
21.1682
11.1371
21.8153
12.1351
22.4794
13.1357
23.158
14.1366
23.8483
15.1352
24.5477
16.129
25.2536
17.1151
25.9635
18.0904
26.6746
19.052
27.3846
19.9975
28.0916
20.9326
28.7996
21.8613
29.5316
22.633
30.2927
23.3219
30.882
24.0582
31.2947
24.6142
31.7358
25.0446
31.986
32.1987
25.4518
0.842749
15.4002
1.70311
15.7084
2.58093
16.0604
3.47599
16.454
4.38784
16.887
5.31581
17.3572
6.25902
17.8622
7.21638
18.3993
8.18661
18.9659
9.16822
19.5592
10.1596
20.1768
11.1588
20.816
12.1638
21.4744
13.1726
22.1492
14.1827
22.8381
15.1918
23.5386
16.1971
24.2483
17.1958
24.9648
18.1848
25.6855
19.1611
26.4082
20.1217
27.1311
21.0672
27.8541
22.0131
28.5857
22.9504
29.3553
23.6729
30.1596
24.2726
30.6949
24.9555
31.0529
25.4733
31.4683
31.7068
25.9651
0.839482
14.5607
1.69639
14.8515
2.57073
15.1861
3.46247
15.5622
4.37131
15.9782
5.29672
16.4318
6.23796
16.921
7.19406
17.4432
8.16384
17.9961
9.14593
18.5772
10.1387
19.184
11.1405
19.8143
12.1492
20.4656
13.1627
21.1356
14.1789
21.822
15.1952
22.5224
16.209
23.2346
17.2175
23.9563
18.2178
24.6852
19.2069
25.4192
20.1816
26.1563
21.1399
26.8958
22.0846
27.6411
23.0399
28.4
23.9859
29.2136
24.6495
30.0313
25.1825
30.5199
25.7598
30.8909
31.2613
26.2054
0.83332
13.7274
1.68379
14.0011
2.55159
14.3183
3.43688
14.6769
4.33951
15.0755
5.25914
15.5122
6.19513
15.985
7.14667
16.4917
8.1127
17.03
9.09195
17.5979
10.0829
18.193
11.084
18.8132
12.0933
19.4563
13.1087
20.1203
14.1278
20.8028
15.1484
21.5018
16.1677
22.2152
17.1831
22.9408
18.1917
23.6765
19.1907
24.4203
20.1769
25.1701
21.1479
25.9248
22.1033
26.6856
23.0417
27.4616
23.9924
28.2629
24.8968
29.1269
25.5156
29.9011
25.9894
30.4172
30.7776
26.4731
0.824409
12.9029
1.6656
13.1599
2.52396
13.4599
3.39982
13.8011
4.29324
14.1821
5.20402
14.6014
6.1317
15.0573
7.0756
15.5478
8.03482
16.0708
9.00822
16.6245
9.9944
17.2068
10.9918
17.8158
11.9985
18.4496
13.0125
19.1063
14.0316
19.7837
15.0535
20.48
16.0754
21.1933
17.0948
21.9215
18.1086
22.6627
19.1139
23.415
20.1077
24.1764
21.087
24.9455
22.0503
25.7222
23.0006
26.5114
23.9366
27.3269
24.8599
28.2036
25.6988
29.0622
26.3016
29.8143
30.3556
26.7235
0.812901
12.09
1.64215
12.3306
2.48831
12.6137
3.35193
12.9375
4.23327
13.3008
5.13229
13.7024
6.04871
14.1409
6.98202
14.6145
7.93145
15.1214
8.89598
15.66
9.87437
16.2284
10.8651
16.8251
11.8664
17.4483
12.8764
18.0963
13.8928
18.7673
14.9133
19.4595
15.9353
20.1713
16.9559
20.9009
17.9721
21.6465
18.9807
22.4063
19.9786
23.1785
20.9627
23.9615
21.9304
24.7545
22.8825
25.5593
23.8253
26.3841
24.7649
27.264
25.6227
28.2044
26.3784
29.0586
29.8231
26.9109
0.798945
11.2911
1.61372
11.5159
2.4451
11.7824
3.29384
12.0887
4.1604
12.4342
5.04491
12.8179
5.94729
13.2385
6.86718
13.6946
7.80399
14.1846
8.75686
14.7071
9.72469
15.2606
10.7061
15.8437
11.6996
16.4548
12.7032
17.0927
13.7147
17.7558
14.7316
18.4426
15.7512
19.1517
16.7706
19.8815
17.7866
20.6305
18.796
21.397
19.7951
22.1793
20.7805
22.9761
21.749
23.786
22.6989
24.6094
23.6335
25.4495
24.5702
26.3273
25.4947
27.2799
26.2817
28.2716
29.1448
26.96
0.782687
10.5084
1.58062
10.7179
2.39479
10.9682
3.22618
11.2573
4.07542
11.585
4.94288
11.9504
5.82864
12.3527
6.73255
12.7907
7.65419
13.263
8.59291
13.7684
9.54777
14.3058
10.5176
14.8739
11.5008
15.4716
12.4957
16.0978
13.4998
16.7517
14.5109
17.4316
15.5262
18.1364
16.5427
18.865
17.557
19.6162
18.5655
20.3885
19.5642
21.1806
20.5492
21.9911
21.5167
22.8186
22.4636
23.6624
23.3891
24.524
24.3064
25.4099
25.2346
26.3517
26.1197
27.3866
28.4455
26.819
0.764255
9.74415
1.54313
9.93905
2.33781
10.1735
3.14951
10.4456
3.97908
10.7554
4.82708
11.1024
5.6938
11.486
6.57929
11.9052
7.48334
12.3589
8.40549
12.8462
9.34498
13.3663
10.3008
13.9181
11.2715
14.5009
12.2554
15.1139
13.2505
15.7565
14.2544
16.4277
15.2641
17.1266
16.2766
17.8525
17.2883
18.6045
18.2953
19.3816
19.2931
20.1828
20.2774
21.0067
21.2437
21.8523
22.1878
22.7184
23.1069
23.6049
24.0025
24.5143
24.8965
25.4577
25.8074
26.4757
27.6261
26.6268
0.74376
9.00039
1.50147
9.18134
2.2745
9.40047
3.06433
9.6558
3.87201
9.94771
4.6983
10.2762
5.54369
10.6406
6.40847
11.0404
7.29264
11.4747
8.19594
11.9429
9.11783
12.4444
10.0575
12.9784
11.0137
13.5446
11.9851
14.1425
12.9699
14.7717
13.9653
15.4324
14.9684
16.1234
15.9763
16.8447
16.985
17.5957
17.9904
18.3762
18.9879
19.1853
19.9723
20.0223
20.9384
20.8862
21.881
21.7757
22.7958
22.6901
23.6805
23.6296
24.5407
24.5976
25.4144
25.602
26.7468
26.2937
0.721297
8.2791
1.45584
8.44681
2.20521
8.6511
2.97111
8.88991
3.7548
9.16402
4.55725
9.47371
5.3792
9.81868
6.22113
10.1985
7.08328
10.6126
7.96565
11.0606
8.86794
11.5421
9.78955
12.0568
10.7296
12.6046
11.6866
13.1854
12.6592
13.7992
13.6448
14.4467
14.6407
15.1276
15.6435
15.8418
16.6495
16.5898
17.6541
17.3716
18.6523
18.1872
19.6384
19.0362
20.6064
19.9182
21.55
20.8321
22.4635
21.7766
23.3422
22.7509
24.1835
23.7563
25.0001
24.7853
25.8932
25.8537
0.696954
7.58214
1.40643
7.73733
2.13021
7.92731
2.87024
8.14988
3.62798
8.40627
4.40462
8.69707
5.2011
9.0222
6.01815
9.38141
6.85625
9.77447
7.71565
10.2012
8.5963
10.6614
9.49788
11.1553
10.4197
11.6828
11.3607
12.2444
12.3195
12.8404
13.2945
13.4718
14.2824
14.1396
15.28
14.8442
16.2835
15.5863
17.2882
16.3669
18.2885
17.1868
19.2785
18.0463
20.251
18.9456
21.199
19.8841
22.1147
20.8608
22.9916
21.874
23.8245
22.9234
24.607
24.0028
25.113
25.3873
0.670821
6.91132
1.35343
7.05472
2.04983
7.23092
2.76218
7.43753
3.49215
7.6763
4.24112
7.9481
5.01027
8.25306
5.80053
8.59115
6.61263
8.96236
7.44708
9.36673
8.30411
9.80441
9.1837
10.2757
10.0855
10.781
11.0088
11.3211
11.9525
11.8968
12.9149
12.5093
13.8939
13.1607
14.8859
13.8521
15.8872
14.585
16.8928
15.3612
17.8972
16.1824
18.8934
17.0501
19.8738
17.9652
20.8299
18.9281
21.7524
19.9383
22.6325
20.9939
23.4627
22.0933
24.2325
23.233
24.3918
24.9537
0.643001
6.26832
1.29708
6.40064
1.96442
6.56357
2.64744
6.75451
3.34799
6.97575
4.06763
7.22846
4.80773
7.51296
5.56943
7.82945
6.3537
8.1781
7.16128
8.55915
7.99271
8.97297
8.8483
9.42008
9.72807
9.90123
10.6317
10.4175
11.5583
10.9701
12.5067
11.5609
13.4754
12.192
14.461
12.8665
15.4599
13.5861
16.4674
14.3538
17.4773
15.1725
18.4825
16.0449
19.4743
16.9734
20.4428
17.9596
21.3773
19.0038
22.2664
20.1048
23.0995
21.2602
23.8657
22.4668
23.7031
24.5545
0.613621
5.6547
1.23763
5.77663
1.87445
5.92675
2.52669
6.10228
3.19637
6.30607
3.88522
6.53961
4.59476
6.80342
5.32632
7.09788
6.08105
7.42336
6.85994
7.78026
7.66383
8.16909
8.49335
8.59056
9.34892
9.04566
10.2306
9.53575
11.1382
10.0626
12.0707
10.6284
13.027
11.2357
14.0052
11.8883
15.0013
12.59
16.0107
13.3444
17.0274
14.1558
18.0438
15.0285
19.0505
15.9666
20.0364
16.9736
20.9887
18.0515
21.8933
19.2003
22.7361
20.4173
23.5042
21.6987
23.0271
24.1802
0.582831
5.07187
1.17544
5.18402
1.78047
5.32173
2.40073
5.48202
3.03837
5.66843
3.69523
5.88274
4.37296
6.12569
5.07302
6.39783
5.7967
6.69968
6.5452
7.03176
7.31964
7.39466
8.12099
7.7892
8.95011
8.21654
9.8076
8.67827
10.6937
9.1765
11.6081
9.7139
12.5501
10.2937
13.5184
10.9201
14.51
11.5984
15.5208
12.3337
16.5447
13.1318
17.5742
13.999
18.5993
14.9416
19.6075
15.9655
20.5839
17.0751
21.5116
18.2725
22.3725
19.5564
23.1492
20.922
22.354
23.8223
0.550813
4.52106
1.11094
4.6239
1.68319
4.74947
2.27056
4.89464
2.87528
5.06371
3.49927
5.25876
4.14422
5.48074
4.81166
5.73039
5.50299
6.00835
6.21958
6.31518
6.96276
6.65147
7.73388
7.01808
8.53422
7.4162
9.36492
7.84757
10.2268
8.31461
11.1204
8.82035
12.0454
9.36872
13.0009
9.96449
13.9856
10.6137
14.996
11.3234
16.0266
12.1012
17.0699
12.9557
18.1158
13.8957
19.1509
14.9304
20.1582
16.0678
21.1177
17.3131
22.0063
18.6678
22.8007
20.1276
21.6769
23.4778
0.517783
4.00327
1.04463
4.09705
1.58346
4.21065
2.13738
4.34072
2.70863
4.49246
3.29915
4.66823
3.91065
4.86924
4.54464
5.0964
5.20254
5.35044
5.88585
5.63187
6.59611
5.94121
7.33499
6.2792
8.10421
6.64697
8.90545
7.04634
9.74017
7.47989
10.6096
7.95097
11.5142
8.46404
12.4541
9.02462
13.4284
9.63936
14.4351
10.3166
15.4702
11.0662
16.5266
11.8993
17.5944
12.8278
18.6599
13.865
19.7044
15.0232
20.7046
16.3129
21.6323
17.7401
22.4557
19.3042
20.9873
23.1454
0.484006
3.51927
0.977171
3.60388
1.48228
3.70554
2.00251
3.82049
2.54006
3.95491
3.09684
4.11146
3.67446
4.29161
4.27437
4.49649
4.89798
4.72684
5.54682
4.98304
6.22264
5.26539
6.92739
5.57444
7.66323
5.91113
8.43235
6.27723
9.23681
6.67542
10.0786
7.10922
10.9591
7.58354
11.8792
8.10448
12.8391
8.67947
13.8378
9.3179
14.873
10.0311
15.9394
10.8329
17.0281
11.7391
18.1255
12.7675
19.2124
13.9363
20.262
15.2633
21.24
16.7621
22.1055
18.4387
20.2734
22.8193
0.449822
3.06945
0.909314
3.14439
1.38078
3.23407
1.86741
3.33386
2.3713
3.45102
2.89425
3.58851
3.43775
3.74811
4.00311
3.93114
4.59167
4.13828
5.205
4.3697
5.84503
4.62537
6.51395
4.90551
7.21433
5.21076
7.94878
5.54277
8.72005
5.90416
9.5306
6.29867
10.3828
6.73137
11.2784
7.20887
12.2187
7.73919
13.204
8.33257
14.2336
9.00151
15.3045
9.76195
16.4102
10.6334
17.5382
11.6395
18.6696
12.8048
19.7744
14.1586
20.814
15.7224
21.7359
17.5168
19.5215
22.4878
0.415682
2.65376
0.841967
2.7181
1.28021
2.79583
1.73359
2.88048
2.20402
2.9806
2.69314
3.09938
3.20231
3.23894
3.73266
3.40079
4.28548
3.58546
4.86238
3.7928
5.46544
4.02231
6.09712
4.27384
6.76026
4.54762
7.4579
4.84513
8.19323
5.16883
8.96917
5.52274
9.78868
5.91186
10.6546
6.34292
11.5694
6.82436
12.535
7.36707
13.552
7.98443
14.6196
8.69433
15.7352
9.51789
16.8882
10.4865
18.0619
11.6311
19.2248
12.9957
20.3357
14.6116
21.326
16.5265
18.7166
22.1308
0.382168
2.2716
0.776129
2.32414
1.18185
2.3901
1.60248
2.45985
2.03968
2.5434
2.49495
2.64412
2.96946
2.76443
3.46426
2.90598
3.98066
3.06906
4.52036
3.2531
5.08557
3.45709
5.67901
3.6804
6.3037
3.92293
6.96289
4.18593
7.6599
4.47182
8.39816
4.78448
9.18118
5.12884
10.0125
5.51161
10.8957
5.94117
11.8339
6.42882
12.8303
6.98803
13.8858
7.63881
15.001
8.40269
16.1693
9.31821
17.379
10.4214
18.5978
11.7769
19.7847
13.4247
20.8535
15.4578
17.8432
21.7269
0.349977
1.92162
0.712808
1.96131
1.0869
2.01601
1.47534
2.07141
1.87948
2.13926
2.30068
2.22291
2.74006
2.32506
3.19871
2.44732
3.6781
2.58967
4.18011
2.7511
4.70709
2.93011
5.26192
3.12557
5.84755
3.3373
6.46727
3.56621
7.12448
3.81461
7.82282
4.08614
8.56612
4.38554
9.35841
4.71932
10.2042
5.09537
11.1079
5.52511
12.0748
6.02115
13.1081
6.60554
14.2117
7.29911
15.3819
8.14797
16.6161
9.1872
17.8826
10.5103
19.1464
12.1609
20.3
14.3042
16.8861
21.2571
0.319828
1.60179
0.652873
1.62827
0.996343
1.67254
1.35314
1.71462
1.7243
1.76811
2.11113
1.83608
2.51484
1.92134
2.93686
2.02531
3.37896
2.14757
3.84331
2.28675
4.33234
2.44108
4.84883
2.60908
5.39562
2.79052
5.97578
2.98605
6.59261
3.19777
7.2497
3.42905
7.95104
3.68421
8.70094
3.96941
9.5047
4.29161
10.3676
4.66221
11.2966
5.09216
12.2965
5.60569
13.3759
6.21963
14.534
6.98994
15.7777
7.94343
17.0781
9.20996
18.4152
10.8239
19.6536
13.0658
15.8285
20.7112
0.292285
1.30951
0.596904
1.32365
0.910868
1.35858
1.2366
1.38888
1.57491
1.4298
1.92723
1.48377
2.29508
1.55349
2.68045
1.63994
3.08556
1.74245
3.51288
1.85943
3.96483
1.98912
4.44391
2.12999
4.9527
2.28173
5.4939
2.44485
6.07055
2.62112
6.68598
2.81363
7.34418
3.02601
8.04954
3.26405
8.8078
3.53335
9.62462
3.8454
10.5086
4.2082
11.4657
4.64853
12.5093
5.17608
13.6411
5.85808
14.8794
6.70522
16.1975
7.89184
17.6016
9.4198
18.9244
11.7429
14.648
20.1049
0.267562
1.04194
0.545107
1.0461
0.830873
1.07281
1.12636
1.0934
1.43238
1.12377
1.75067
1.16548
2.08325
1.22091
2.43272
1.29046
2.80182
1.37336
3.19317
1.46808
3.60915
1.57314
4.05194
1.6872
4.52373
1.80994
5.02677
1.94181
5.56369
2.0842
6.13755
2.23977
6.75221
2.41135
7.412
2.60426
8.1229
2.82244
8.89076
3.07755
9.72533
3.37363
10.6337
3.74015
11.6325
4.17726
12.7269
4.76369
13.9458
5.4863
15.2693
6.5684
16.7349
7.95412
18.1594
10.3184
13.2991
19.5083
0.245445
0.7965
0.497392
0.794155
0.756614
0.813588
1.02321
0.826798
1.29837
0.84861
1.58416
0.879694
1.88315
0.921925
2.19836
0.975255
2.53277
1.03894
2.88917
1.11168
3.26996
1.19236
3.67712
1.28004
4.1125
1.37456
4.57797
1.47635
5.07574
1.58643
5.60852
1.70699
6.17998
1.83989
6.79431
1.98993
7.45756
2.15919
8.17577
2.35934
8.95932
2.59008
9.81627
2.88319
10.7658
3.22774
11.817
3.71247
13.0078
4.29551
14.3362
5.23995
15.8618
6.42858
17.4596
8.72066
11.6834
19.0753
0.225507
0.570992
0.453572
0.566091
0.68835
0.578811
0.928152
0.586996
1.17493
0.601837
1.4309
0.623715
1.69892
0.65391
1.98215
0.692025
2.2837
0.737391
2.60633
0.78905
2.95243
0.846259
3.32394
0.908522
3.72262
0.975876
4.15017
1.04881
4.60856
1.12804
5.10025
1.21529
5.62866
1.31149
6.19784
1.42075
6.81369
1.54333
7.48262
1.69041
8.21518
1.85752
9.02117
2.0772
9.92111
2.3278
10.9298
2.70381
12.0903
3.13499
13.439
3.89122
15.0239
4.84375
16.9788
6.76571
9.60199
19.0602
0.207494
0.363499
0.413467
0.360117
0.62626
0.366018
0.842016
0.37124
1.06361
0.380244
1.29323
0.394092
1.53379
0.413348
1.7883
0.437522
2.05962
0.46607
2.35031
0.498357
2.66263
0.533944
2.9985
0.572646
3.35974
0.614641
3.74812
0.660422
4.16567
0.710491
4.61484
0.766121
5.09883
0.827496
5.6217
0.897881
6.18896
0.976075
6.80751
1.07186
7.48726
1.17777
8.24063
1.32384
9.0875
1.48093
10.0515
1.73984
11.1765
2.00997
12.53
2.53766
14.1964
3.1774
16.6388
4.32328
6.89644
19.3444
0.191313
0.172185
0.376829
0.174602
0.57029
0.172556
0.764852
0.176678
0.964636
0.18046
1.17162
0.187113
1.3886
0.19636
1.61824
0.207882
1.86296
0.221358
2.12486
0.236456
2.40583
0.252968
2.70764
0.270838
3.03204
0.290242
3.38096
0.311508
3.75656
0.334887
4.16146
0.361218
4.59881
0.39015
5.07267
0.424017
5.58806
0.46069
6.15235
0.507572
6.77376
0.556353
7.46742
0.630173
8.24921
0.699144
9.15332
0.835735
10.2151
0.948234
11.5195
1.23324
13.1651
1.53176
15.7664
1.722
3.75632
18.9065
0.172185
0.346787
0.519343
0.696022
0.876481
1.06359
1.25995
1.46784
1.68919
1.92565
2.17862
2.44946
2.7397
3.05121
3.38609
3.74731
4.13746
4.56148
5.02217
5.52974
6.08609
6.71626
7.41541
8.25114
9.19938
10.4326
11.9644
13.6864
17.4427
1.13923
54.1278
1.15246
54.127
1.16559
54.1271
1.17695
54.1289
1.18766
54.1295
1.1999
54.128
1.21341
54.1267
1.22594
54.1277
1.23606
54.1301
1.24526
54.131
1.25578
54.1297
1.26859
54.1274
1.28133
54.1275
1.29143
54.1301
1.29814
54.1335
1.30255
54.1358
1.30552
54.1373
1.30742
54.1383
1.30855
54.1391
1.30924
54.1395
1.30987
54.1396
1.31084
54.1393
1.31252
54.1386
1.31511
54.1376
1.3186
54.1368
1.32273
54.1361
1.32711
54.1359
1.33134
54.136
1.33518
54.1364
1.33846
54.137
1.34117
54.1375
1.34335
54.1381
1.34503
54.1386
1.34625
54.139
1.347
54.1395
1.34722
54.14
1.34692
54.1405
1.34611
54.141
1.34484
54.1415
1.34312
54.142
1.341
54.1424
1.33847
54.1428
1.33553
54.1432
1.33216
54.1436
1.32836
54.144
1.32414
54.1445
1.3195
54.1449
1.31446
54.1453
1.30904
54.1457
1.30321
54.1461
1.297
54.1465
1.29039
54.1468
1.2834
54.1472
1.27601
54.1476
1.26821
54.148
1.26
54.1484
1.25137
54.1489
1.24229
54.1493
1.23276
54.1498
1.22274
54.1503
1.21225
54.1507
1.20131
54.1512
1.18991
54.1516
1.17807
54.1521
1.16579
54.1525
1.15309
54.1529
1.13996
54.1534
1.1264
54.1538
1.11242
54.1542
1.09804
54.1546
1.08323
54.155
1.06802
54.1554
1.05241
54.1558
1.03636
54.1563
1.01996
54.1566
1.00311
54.1571
0.985884
54.1575
0.968243
54.1579
0.950184
54.1583
0.931731
54.1587
0.912861
54.1591
0.893623
54.1595
0.873994
54.1599
0.854035
54.1602
0.833752
54.1605
0.813164
54.1608
0.792311
54.1611
0.771182
54.1614
0.749862
54.1616
0.728403
54.1617
0.706873
54.1618
0.685284
54.1618
0.663669
54.1619
0.64205
54.1619
0.620457
54.1618
0.598904
54.1618
0.577431
54.1617
0.55604
54.1616
0.534776
54.1615
0.513651
54.1614
0.492689
54.1612
0.471916
54.161
0.451336
54.1608
0.430966
54.1606
0.410801
54.1604
0.390863
54.1602
0.371155
54.1599
0.35171
54.1597
0.332528
54.1594
0.313652
54.1591
0.29507
54.1588
0.276792
54.1585
0.258933
54.1581
0.241645
54.1575
0.224977
54.1569
0.209007
54.1562
0.193899
54.1553
0.179637
54.1545
0.16563
54.1542
0.151548
54.1543
0.137104
54.1547