/*--------------------------------*- C++ -*----------------------------------*\
| =========                 |                                                 |
| \\      /  F ield         | OpenFOAM: The Open Source CFD Toolbox           |
|  \\    /   O peration     | Version:  5.x                                   |
|   \\  /    A nd           | Web:      www.OpenFOAM.org                      |
|    \\/     M anipulation  |                                                 |
\*---------------------------------------------------------------------------*/
/*   Windows 32 and 64 bit porting by blueCAPE: http://www.bluecape.com.pt   *\
|  Based on Windows porting (2.0.x v4) by Symscape: http://www.symscape.com   |
\*---------------------------------------------------------------------------*/
FoamFile
{
    version     2.0;
    format      ascii;
    class       volVectorField;
    location    "220";
    object      U;
}
// * * * * * * * * * * * * * * * * * * * * * * * * * * * * * * * * * * * * * //

dimensions      [0 1 -1 0 0 0 0];

internalField   nonuniform List<vector> 
43900
(
(1.16162 -0.000724472 -1.72364e-027)
(1.16716 0.00216636 -4.61932e-027)
(1.16973 0.000366966 1.45583e-030)
(1.1684 0.00181944 2.82359e-030)
(1.16972 0.000795648 3.67846e-030)
(1.16989 0.00197976 3.64456e-030)
(1.17013 0.00118283 6.16711e-027)
(1.17046 0.00186468 -1.2313e-026)
(1.1705 0.00167983 9.47011e-030)
(1.17045 0.00178335 -1.22866e-026)
(1.17025 0.00193247 1.23096e-026)
(1.17015 0.00192662 1.14964e-029)
(1.17012 0.00198923 -1.2252e-026)
(1.17012 0.00204631 2.47515e-029)
(1.1701 0.00209761 2.54385e-029)
(1.17008 0.00214181 2.60846e-029)
(1.17009 0.00218276 -2.43984e-026)
(1.17007 0.00222072 5.45275e-029)
(1.17006 0.00225345 2.44256e-026)
(1.17007 0.00228559 2.82943e-029)
(1.17006 0.00231674 2.87547e-029)
(1.17007 0.00234138 2.91912e-029)
(1.17007 0.00236974 2.95998e-029)
(1.17006 0.00239425 2.99841e-029)
(1.17007 0.00241595 3.035e-029)
(1.17007 0.00244212 -2.41324e-026)
(1.17006 0.00246237 6.20501e-029)
(1.17008 0.00248368 6.2686e-029)
(1.17008 0.00250605 9.63384e-026)
(1.15873 0.0114469 0)
(1.16558 -0.00498744 0)
(1.1715 0.00904875 0)
(1.16658 -0.000219256 0)
(1.16847 0.00617504 0)
(1.16803 0.00266343 0)
(1.1683 0.00488233 0)
(1.16751 0.0045289 0)
(1.16801 0.00460065 0)
(1.16837 0.00529012 0)
(1.16878 0.00526499 0)
(1.1689 0.00555442 0)
(1.1689 0.00582857 0)
(1.16891 0.00602672 0)
(1.16898 0.00620621 0)
(1.16909 0.00637743 0)
(1.1691 0.00653777 0)
(1.1692 0.00668381 0)
(1.16925 0.00682578 0)
(1.16924 0.00695471 0)
(1.16933 0.00706614 0)
(1.16932 0.00718756 0)
(1.16931 0.00728842 0)
(1.16938 0.00738376 0)
(1.16935 0.00748587 0)
(1.16935 0.00756343 0)
(1.1694 0.00765103 0)
(1.16936 0.00773329 0)
(1.16936 0.0078026 0)
(1.10224 0.0321054 0)
(1.14488 -0.0175773 0)
(1.1632 0.0287849 0)
(1.16345 -0.00372826 0)
(1.16654 0.0208611 0)
(1.1645 0.0039265 0)
(1.166 0.0149905 0)
(1.16634 0.00827157 0)
(1.16649 0.0118019 0)
(1.16617 0.0104552 0)
(1.16608 0.0107204 0)
(1.16643 0.0109558 0)
(1.16679 0.0110007 0)
(1.1671 0.0110944 0)
(1.1673 0.0112025 0)
(1.16735 0.0112987 0)
(1.16758 0.0114001 0)
(1.16766 0.0115203 0)
(1.16773 0.0116303 0)
(1.1679 0.0117338 0)
(1.16788 0.0118661 0)
(1.16796 0.0119642 0)
(1.1681 0.0120792 0)
(1.16805 0.0122112 0)
(1.16816 0.0122982 0)
(1.16826 0.0124255 0)
(1.16822 0.0125354 0)
(1.16834 0.0126271 0)
(1.16841 0.0127462 1.69322e-027)
(1.04098 0.0200227 0)
(1.0869 -0.00676758 0)
(1.12986 0.02012 0)
(1.15587 0.00812684 0)
(1.16356 0.0222222 0)
(1.16627 0.010686 0)
(1.16506 0.0205597 0)
(1.16391 0.0135961 0)
(1.16478 0.0180364 0)
(1.16487 0.01568 0)
(1.16523 0.0166686 0)
(1.16517 0.0164249 0)
(1.16535 0.0163818 0)
(1.16546 0.0163757 0)
(1.16558 0.0163476 0)
(1.16593 0.0163806 0)
(1.16593 0.0164455 0)
(1.16603 0.0164934 0)
(1.16622 0.0165484 0)
(1.16614 0.016641 0)
(1.16631 0.0166913 0)
(1.16645 0.0167885 0)
(1.16639 0.0168869 0)
(1.1666 0.0169295 0)
(1.16667 0.0170654 0)
(1.16664 0.0171456 0)
(1.16686 0.0172131 0)
(1.16689 0.0173487 0)
(1.16689 0.0174283 1.80471e-027)
(1.00396 0.0101398 3.61478e-027)
(1.03946 -0.000917683 0)
(1.07632 0.0107679 0)
(1.11458 0.0128191 0)
(1.14491 0.0182187 0)
(1.16049 0.0172239 0)
(1.16378 0.022653 0)
(1.16481 0.0183611 0)
(1.16388 0.0214873 0)
(1.16405 0.0200334 0)
(1.16404 0.0205517 0)
(1.16446 0.0207461 0)
(1.16441 0.0207142 0)
(1.16445 0.0207278 0)
(1.16455 0.0208274 0)
(1.16426 0.0209434 0)
(1.16436 0.0210254 0)
(1.16447 0.0210902 0)
(1.16435 0.0212217 0)
(1.16461 0.0212938 0)
(1.16466 0.021414 0)
(1.16458 0.0215422 0)
(1.16487 0.0216063 0)
(1.16485 0.0217847 0)
(1.16484 0.0218662 0)
(1.16511 0.021976 0)
(1.16504 0.0221667 0)
(1.16505 0.0222273 0)
(1.1653 0.0223641 -7.59192e-027)
(0.976796 0.00681071 -3.77307e-027)
(1.00673 0.00060775 0)
(1.03801 0.00750774 0)
(1.07045 0.01089 0)
(1.10293 0.0147131 0)
(1.13336 0.0179731 0)
(1.1537 0.0219118 0)
(1.16183 0.0219049 0)
(1.16299 0.0242104 0)
(1.16286 0.0226676 0)
(1.16298 0.0239556 0)
(1.16283 0.0238139 0)
(1.16297 0.0240411 0)
(1.1629 0.0243179 0)
(1.16259 0.0245304 0)
(1.16297 0.0247546 0)
(1.16307 0.0249249 0)
(1.16283 0.0252022 0)
(1.16308 0.0253575 0)
(1.16299 0.025569 0)
(1.16294 0.0257952 0)
(1.16329 0.025927 0)
(1.16317 0.0262389 0)
(1.16318 0.0263534 0)
(1.16344 0.0265587 0)
(1.16328 0.0268678 0)
(1.16341 0.0269187 0)
(1.1637 0.027196 0)
(1.16354 0.0274611 4.0177e-027)
(0.954319 0.00521659 0)
(0.980684 0.00135501 0)
(1.0083 0.00631477 0)
(1.03697 0.00946857 0)
(1.06612 0.012737 0)
(1.09504 0.016305 0)
(1.1231 0.0200154 0)
(1.14629 0.0228292 0)
(1.15766 0.0254675 0)
(1.16077 0.0258864 0)
(1.1607 0.025948 0)
(1.16086 0.0267987 0)
(1.16057 0.0269503 0)
(1.16063 0.0273073 0)
(1.16105 0.0278103 0)
(1.16073 0.0280629 0)
(1.1604 0.0285113 0)
(1.16084 0.0287358 0)
(1.16082 0.0291474 0)
(1.16083 0.0295146 0)
(1.16115 0.0297236 0)
(1.16086 0.0302219 0)
(1.16096 0.0303757 0)
(1.16128 0.0307312 0)
(1.16114 0.0311649 0)
(1.16138 0.0312526 0)
(1.16155 0.0317241 0)
(1.16132 0.0320283 0)
(1.1616 0.0321526 0)
(0.933576 0.00437577 0)
(0.957634 0.00183324 0)
(0.982845 0.00589326 0)
(1.00904 0.00888571 0)
(1.03582 0.0118735 0)
(1.06276 0.0151097 0)
(1.08935 0.0185948 0)
(1.11481 0.0220956 0)
(1.13791 0.0253592 0)
(1.15224 0.02765 0)
(1.15701 0.0293151 0)
(1.15704 0.0291552 0)
(1.15723 0.0299486 0)
(1.15719 0.0303231 0)
(1.15697 0.0307943 0)
(1.15726 0.0313493 0)
(1.15788 0.0316618 0)
(1.15759 0.0322167 0)
(1.15736 0.0326954 0)
(1.15775 0.0329768 0)
(1.15754 0.0336584 0)
(1.15789 0.0338591 0)
(1.15815 0.0344511 0)
(1.15789 0.0349354 0)
(1.15807 0.0351337 0)
(1.15815 0.0358467 0)
(1.15812 0.0360939 0)
(1.15862 0.0363898 0)
(1.15881 0.037046 0)
(0.914146 0.00378382 0)
(0.936447 0.00221964 0)
(0.959821 0.00574779 0)
(0.984115 0.00865182 0)
(1.00904 0.0115165 0)
(1.03428 0.0145531 0)
(1.05947 0.0177938 0)
(1.08417 0.0211835 0)
(1.10783 0.0246264 0)
(1.12976 0.0278071 0)
(1.146 0.0305165 0)
(1.15211 0.032346 0)
(1.15215 0.03238 0)
(1.15247 0.0332519 0)
(1.15255 0.0339581 0)
(1.15268 0.0341998 0)
(1.15231 0.0350519 0)
(1.15256 0.0354538 0)
(1.15336 0.035963 0)
(1.15311 0.0367919 0)
(1.15337 0.0370239 0)
(1.1533 0.0378018 0)
(1.15317 0.0383095 0)
(1.15354 0.0386487 0)
(1.15391 0.0395126 0)
(1.15402 0.0397484 0)
(1.15441 0.0403226 0)
(1.15423 0.0410335 0)
(1.15409 0.0413206 0)
(0.89547 0.00324141 0)
(0.916496 0.00257897 0)
(0.938526 0.00575664 0)
(0.961413 0.00860717 0)
(0.984925 0.0114084 0)
(1.00881 0.0143316 0)
(1.03279 0.0174169 0)
(1.05657 0.0206377 0)
(1.07979 0.0239568 0)
(1.10203 0.0273039 0)
(1.12258 0.0304807 0)
(1.13969 0.033273 0)
(1.14652 0.0354032 0)
(1.1465 0.0355709 0)
(1.14715 0.0365594 0)
(1.1469 0.0374789 0)
(1.14734 0.0378892 0)
(1.14762 0.0386809 0)
(1.14715 0.0395875 0)
(1.1474 0.0398943 0)
(1.14755 0.0410299 0)
(1.14788 0.0414535 0)
(1.14829 0.0420508 0)
(1.14849 0.0429821 0)
(1.14845 0.0433027 0)
(1.14862 0.0441411 0)
(1.14855 0.044858 0)
(1.14904 0.0451446 0)
(1.14992 0.0459645 -1.05662e-026)
(0.877382 0.00307435 0)
(0.897361 0.00285053 0)
(0.918333 0.00595191 0)
(0.940136 0.00883542 0)
(0.962569 0.0116598 0)
(0.985412 0.0145764 0)
(1.00844 0.0176279 0)
(1.0314 0.0207959 0)
(1.05405 0.0240553 0)
(1.07606 0.0273788 0)
(1.09704 0.0307121 0)
(1.11629 0.0339027 0)
(1.13314 0.0367671 0)
(1.14045 0.0391334 0)
(1.14031 0.0394943 0)
(1.14106 0.0404621 0)
(1.1412 0.0416944 0)
(1.14112 0.042249 0)
(1.14146 0.043045 0)
(1.14172 0.0443041 0)
(1.14209 0.0446683 0)
(1.14252 0.0455264 0)
(1.14259 0.0467509 0)
(1.14285 0.0471207 0)
(1.14296 0.0482137 0)
(1.14342 0.0489889 0)
(1.14441 0.0493787 0)
(1.14481 0.0504874 0)
(1.14456 0.0511552 1.11618e-026)
(0.859306 0.00302281 0)
(0.878404 0.0031758 0)
(0.898478 0.00633191 0)
(0.919377 0.00933989 0)
(0.940919 0.0122848 0)
(0.962909 0.0153055 0)
(0.985143 0.0184458 0)
(1.00741 0.0216918 0)
(1.0295 0.0250231 0)
(1.05118 0.0284203 0)
(1.07215 0.0318573 0)
(1.09207 0.0352801 0)
(1.11038 0.0385584 0)
(1.12646 0.0415399 0)
(1.13379 0.0441195 0)
(1.13345 0.0446622 0)
(1.13418 0.0457037 0)
(1.13473 0.046889 0)
(1.13511 0.0480182 0)
(1.13575 0.0485396 0)
(1.13601 0.0498965 0)
(1.13563 0.0510688 0)
(1.13632 0.0513733 0)
(1.13682 0.0527508 0)
(1.13796 0.0536461 0)
(1.13876 0.0541715 0)
(1.13857 0.0556578 0)
(1.1382 0.0563974 0)
(1.13913 0.0569786 1.21798e-026)
(0.840836 0.00295471 0)
(0.859172 0.00355535 0)
(0.878473 0.00680969 0)
(0.898597 0.00998202 0)
(0.91937 0.0130961 0)
(0.940619 0.0162754 0)
(0.962161 0.0195628 0)
(0.983809 0.0229478 0)
(1.00537 0.0264128 0)
(1.02666 0.029942 0)
(1.04746 0.0335166 0)
(1.06751 0.0371092 0)
(1.08648 0.0406663 0)
(1.10388 0.0440604 0)
(1.11912 0.0472262 0)
(1.12647 0.0498188 0)
(1.12607 0.0506668 0)
(1.12605 0.0519309 0)
(1.12746 0.0527052 0)
(1.12737 0.0544312 0)
(1.12735 0.0555377 0)
(1.12916 0.0559483 0)
(1.13008 0.0579133 0)
(1.13005 0.0588739 0)
(1.13 0.0594687 0)
(1.12989 0.0612561 0)
(1.13055 0.0617568 0)
(1.13294 0.0625166 0)
(1.13383 0.0641974 -1.28924e-026)
(0.822044 0.00290588 0)
(0.839687 0.00394408 0)
(0.858287 0.00732774 0)
(0.877727 0.0106813 0)
(0.897839 0.0139854 0)
(0.918448 0.0173458 0)
(0.939392 0.0208029 0)
(0.9605 0.0243479 0)
(0.981602 0.0279655 0)
(1.00253 0.0316415 0)
(1.0231 0.0353605 0)
(1.04311 0.0391027 0)
(1.06235 0.0428385 0)
(1.08048 0.0465104 0)
(1.09706 0.0500094 0)
(1.11136 0.0533288 0)
(1.11746 0.0558976 0)
(1.11887 0.0570439 0)
(1.11797 0.0588094 0)
(1.11834 0.0597095 0)
(1.12019 0.0609184 0)
(1.11982 0.063023 0)
(1.11903 0.0637021 0)
(1.12055 0.0645699 0)
(1.12257 0.0667374 0)
(1.12356 0.0673153 0)
(1.12471 0.0687145 0)
(1.12376 0.0703507 0)
(1.12343 0.0709456 -1.41748e-026)
(0.802896 0.00289317 0)
(0.819912 0.00435552 0)
(0.837884 0.00791307 0)
(0.856698 0.0114733 0)
(0.876223 0.0149959 0)
(0.896291 0.0185715 0)
(0.916726 0.0222333 0)
(0.937378 0.0259741 0)
(0.958092 0.0297797 0)
(0.978711 0.0336373 0)
(0.999077 0.0375331 0)
(1.01903 0.0414507 0)
(1.03837 0.0453687 0)
(1.05689 0.0492546 0)
(1.07429 0.0530455 0)
(1.09014 0.0566704 0)
(1.10333 0.0600287 0)
(1.10727 0.0628297 0)
(1.10879 0.0638168 0)
(1.1095 0.0658142 0)
(1.10959 0.0675329 0)
(1.11115 0.0680381 0)
(1.11378 0.070439 0)
(1.11371 0.072175 0)
(1.11212 0.0731434 0)
(1.11271 0.0747888 0)
(1.11385 0.0762113 0)
(1.11673 0.0772078 0)
(1.11907 0.0789315 1.50069e-026)
(0.783316 0.00291699 0)
(0.799752 0.00478707 0)
(0.817157 0.00855995 0)
(0.835414 0.0123574 0)
(0.854394 0.0161224 0)
(0.873969 0.0199405 0)
(0.893975 0.0238413 0)
(0.914243 0.0278127 0)
(0.934631 0.0318418 0)
(0.954998 0.0359165 0)
(0.975199 0.0400241 0)
(0.995091 0.04415 0)
(1.01452 0.0482766 0)
(1.03331 0.0523816 0)
(1.05126 0.0564278 0)
(1.06808 0.0603435 0)
(1.08348 0.064109 0)
(1.09514 0.0674194 0)
(1.0986 0.0703526 0)
(1.1007 0.0711019 0)
(1.10216 0.0731688 0)
(1.1009 0.0757648 0)
(1.10051 0.076835 0)
(1.10126 0.0782474 0)
(1.1052 0.0805186 0)
(1.10749 0.0817167 0)
(1.1084 0.083462 0)
(1.10668 0.0853205 0)
(1.10658 0.0867072 0)
(0.763303 0.00297797 0)
(0.779195 0.00523996 0)
(0.796075 0.00926546 0)
(0.81383 0.013331 0)
(0.832331 0.0173694 0)
(0.851448 0.0214558 0)
(0.871055 0.0256234 0)
(0.891 0.0298613 0)
(0.911118 0.034151 0)
(0.931277 0.0384808 0)
(0.951346 0.0428393 0)
(0.971191 0.0472125 0)
(0.990674 0.051585 0)
(1.00965 0.0559387 0)
(1.02793 0.0602497 0)
(1.04533 0.064477 0)
(1.06158 0.0685465 0)
(1.07648 0.0725331 0)
(1.08679 0.0757096 0)
(1.08804 0.0788031 0)
(1.08806 0.0806198 0)
(1.09063 0.081807 0)
(1.09423 0.0848345 0)
(1.09546 0.0863436 0)
(1.09448 0.0878193 0)
(1.09387 0.0900215 0)
(1.09485 0.0919984 0)
(1.09941 0.0932385 0)
(1.10234 0.0958058 0)
(0.742819 0.00308063 0)
(0.758191 0.00572044 0)
(0.774574 0.0100374 0)
(0.791859 0.0144053 0)
(0.809925 0.0187516 0)
(0.828638 0.023145 0)
(0.847868 0.0276134 0)
(0.867497 0.0321527 0)
(0.887382 0.0367463 0)
(0.907366 0.0413772 0)
(0.927327 0.0460341 0)
(0.947142 0.0507041 0)
(0.966682 0.0553722 0)
(0.985816 0.0600222 0)
(1.0044 0.0646348 0)
(1.02225 0.0691805 0)
(1.03918 0.0736042 0)
(1.05496 0.0778541 0)
(1.06892 0.0823019 0)
(1.07583 0.0850293 0)
(1.07993 0.0880143 0)
(1.08069 0.0900087 0)
(1.0795 0.0916788 0)
(1.08032 0.0942501 0)
(1.08466 0.0968775 0)
(1.08735 0.0990356 0)
(1.08883 0.101085 0)
(1.08737 0.103356 0)
(1.08831 0.104654 0)
(0.721859 0.00322154 4.31903e-026)
(0.736725 0.00622284 0)
(0.752628 0.0108632 0)
(0.769463 0.0155619 0)
(0.787114 0.020243 0)
(0.805455 0.0249721 0)
(0.824353 0.0297747 0)
(0.843681 0.034642 0)
(0.863326 0.0395636 0)
(0.883153 0.0445247 0)
(0.903019 0.0495082 0)
(0.922809 0.0545019 0)
(0.942403 0.0594906 0)
(0.961678 0.0644582 0)
(0.980503 0.0693872 0)
(0.998732 0.0742563 0)
(1.0162 0.0790254 0)
(1.03271 0.0836048 0)
(1.04818 0.0880515 0)
(1.06033 0.0928172 0)
(1.06448 0.0953877 0)
(1.06728 0.0976969 0)
(1.07178 0.101762 0)
(1.07205 0.103366 0)
(1.07006 0.105443 0)
(1.07058 0.107681 0)
(1.07425 0.10988 0)
(1.08023 0.11248 0)
(1.08277 0.11498 0)
(0.700444 0.00340236 1.4921e-027)
(0.714815 0.00675316 0)
(0.73025 0.0117502 0)
(0.74665 0.016811 0)
(0.763903 0.0218567 0)
(0.78189 0.0269521 0)
(0.800483 0.0321223 0)
(0.819556 0.0373571 0)
(0.838984 0.0426411 0)
(0.858662 0.0479647 0)
(0.87846 0.0533134 0)
(0.898247 0.0586683 0)
(0.917916 0.0640171 0)
(0.937348 0.0693419 0)
(0.956423 0.0746252 0)
(0.975006 0.0798478 0)
(0.992947 0.0849849 0)
(1.01008 0.0899856 0)
(1.02626 0.0947868 0)
(1.04117 0.0994412 0)
(1.05116 0.103853 0)
(1.05299 0.107427 0)
(1.05317 0.109295 0)
(1.05622 0.112683 0)
(1.06223 0.11609 0)
(1.0651 0.118826 0)
(1.0649 0.121236 0)
(1.06394 0.123109 0)
(1.06556 0.126025 0)
(0.67856 0.00362541 -4.99793e-026)
(0.692439 0.00732103 0)
(0.707411 0.0127128 0)
(0.723383 0.0181731 0)
(0.740246 0.02362 0)
(0.757884 0.02912 0)
(0.776177 0.0346986 0)
(0.795002 0.0403452 0)
(0.814237 0.0460436 0)
(0.833765 0.0517809 0)
(0.85348 0.0575447 0)
(0.873264 0.0633214 0)
(0.892999 0.0690921 0)
(0.912576 0.0748422 0)
(0.93188 0.080554 0)
(0.950787 0.0862088 0)
(0.969162 0.0917829 0)
(0.986851 0.0972392 0)
(1.00369 0.102509 0)
(1.01971 0.107847 0)
(1.03218 0.11255 0)
(1.03876 0.116188 0)
(1.04511 0.121073 0)
(1.0448 0.12239 0)
(1.04406 0.125233 0)
(1.04731 0.128192 0)
(1.05122 0.131697 0)
(1.05768 0.13623 0)
(1.05887 0.13774 0)
(0.656201 0.0038866 0)
(0.669587 0.00792637 0)
(0.684096 0.0137494 0)
(0.699639 0.0196452 0)
(0.716111 0.0255284 0)
(0.7334 0.0314692 0)
(0.751391 0.0374944 0)
(0.769964 0.0435928 0)
(0.789002 0.0497475 0)
(0.808387 0.055943 0)
(0.828016 0.0621687 0)
(0.847779 0.0684085 0)
(0.867561 0.0746454 0)
(0.887259 0.0808637 0)
(0.906761 0.0870447 0)
(0.925954 0.0931697 0)
(0.944712 0.0992176 0)
(0.962901 0.105155 0)
(0.980381 0.110904 0)
(0.997139 0.116468 0)
(1.01274 0.122303 0)
(1.02243 0.126876 0)
(1.0257 0.130173 0)
(1.03168 0.134729 0)
(1.03712 0.138836 0)
(1.03719 0.141548 0)
(1.03696 0.143412 0)
(1.03788 0.146858 0)
(1.04271 0.150111 0)
(0.633369 0.00418407 -6.15188e-026)
(0.646259 0.00857129 0)
(0.660301 0.0148616 0)
(0.67541 0.0212283 0)
(0.691484 0.0275831 0)
(0.708418 0.0340015 0)
(0.726099 0.040512 0)
(0.744413 0.047103 0)
(0.763244 0.0537569 0)
(0.782482 0.0604584 0)
(0.802015 0.0671925 0)
(0.821745 0.0739448 0)
(0.841568 0.0807 0)
(0.861377 0.0874385 0)
(0.881069 0.0941419 0)
(0.900536 0.10079 0)
(0.919663 0.107361 0)
(0.938324 0.113829 0)
(0.956385 0.120145 0)
(0.973753 0.126238 0)
(0.990363 0.132251 0)
(1.00441 0.137645 0)
(1.01341 0.143671 0)
(1.01424 0.145569 0)
(1.01566 0.149783 0)
(1.02218 0.154255 0)
(1.02744 0.158799 0)
(1.03303 0.16355 0)
(1.03204 0.164109 5.65682e-026)
(0.610082 0.00451023 -1.92136e-027)
(0.622471 0.00924964 0)
(0.63604 0.0160377 0)
(0.650706 0.0229052 0)
(0.666374 0.0297611 0)
(0.68294 0.0366876 0)
(0.700297 0.0437155 0)
(0.718336 0.0508328 0)
(0.736945 0.0580212 0)
(0.756016 0.0652649 0)
(0.775444 0.0725481 0)
(0.795128 0.0798552 0)
(0.814968 0.0871689 0)
(0.834866 0.094471 0)
(0.854724 0.101743 0)
(0.87444 0.108963 0)
(0.89391 0.116111 0)
(0.913022 0.123159 0)
(0.931659 0.130066 0)
(0.949721 0.136745 0)
(0.967294 0.143438 0)
(0.983049 0.149717 0)
(0.99339 0.154447 0)
(1.0022 0.161718 0)
(1.00597 0.164832 0)
(1.00472 0.167754 0)
(1.00815 0.169437 0)
(1.01392 0.174884 0)
(1.02321 0.181433 1.13344e-027)
(0.586387 0.00486071 7.11162e-026)
(0.598269 0.00995836 0)
(0.611357 0.017271 0)
(0.625571 0.0246654 0)
(0.64082 0.0320483 0)
(0.657005 0.0395101 0)
(0.674024 0.047084 0)
(0.691771 0.0547576 0)
(0.710139 0.0625121 0)
(0.729025 0.0703309 0)
(0.748326 0.0781978 0)
(0.767945 0.0860967 0)
(0.787785 0.0940091 0)
(0.80775 0.101915 0)
(0.827745 0.109796 0)
(0.847674 0.117631 0)
(0.86744 0.125399 0)
(0.886936 0.133077 0)
(0.906058 0.140635 0)
(0.924721 0.147998 0)
(0.943042 0.155036 0)
(0.961491 0.162529 0)
(0.974312 0.168999 0)
(0.980679 0.17234 0)
(0.988774 0.178613 0)
(0.998563 0.185025 0)
(0.996909 0.188002 0)
(0.999391 0.190243 0)
(1.00483 0.194152 -6.53975e-026)
(0.562336 0.00523021 0)
(0.573706 0.0106934 0)
(0.586305 0.0185535 0)
(0.600056 0.026497 0)
(0.614873 0.0344296 0)
(0.630662 0.0424505 0)
(0.647324 0.0505961 0)
(0.66476 0.0588534 0)
(0.682867 0.067203 0)
(0.701545 0.0756279 0)
(0.720696 0.0841116 0)
(0.740225 0.0926367 0)
(0.760039 0.101184 0)
(0.780046 0.109734 0)
(0.800154 0.118265 0)
(0.820271 0.126755 0)
(0.840301 0.135181 0)
(0.860145 0.143518 0)
(0.879699 0.151739 0)
(0.898862 0.159801 0)
(0.917622 0.167636 0)
(0.936611 0.175154 0)
(0.954731 0.18278 0)
(0.966012 0.190949 0)
(0.969198 0.19292 0)
(0.975725 0.197934 0)
(0.987107 0.204581 0)
(0.988068 0.209414 0)
(0.994385 0.213368 0)
(0.537995 0.00561375 0)
(0.548849 0.01145 0)
(0.560951 0.0198764 0)
(0.574228 0.0283867 0)
(0.588598 0.0368872 0)
(0.603973 0.0454869 0)
(0.62026 0.0542256 0)
(0.637362 0.0630898 0)
(0.655183 0.0720598 0)
(0.673627 0.0811183 0)
(0.692601 0.0902488 0)
(0.712011 0.0994328 0)
(0.731769 0.10865 0)
(0.751787 0.117882 0)
(0.771977 0.127105 0)
(0.792252 0.136296 0)
(0.81252 0.14543 0)
(0.832692 0.154482 0)
(0.852675 0.16342 0)
(0.872385 0.172201 0)
(0.891777 0.1807 0)
(0.911337 0.189532 0)
(0.928912 0.196472 0)
(0.947377 0.204516 0)
(0.958467 0.214008 0)
(0.960421 0.215016 0)
(0.964429 0.219702 0)
(0.972738 0.224819 0)
(0.979927 0.231221 7.71053e-026)
(0.51344 0.00600589 0)
(0.523775 0.0122223 0)
(0.535374 0.0212284 0)
(0.548166 0.0303178 0)
(0.562075 0.039399 0)
(0.577017 0.0485919 0)
(0.592906 0.0579391 0)
(0.609651 0.0674271 0)
(0.627159 0.0770361 0)
(0.64534 0.0867486 0)
(0.664104 0.0965477 0)
(0.683364 0.106415 0)
(0.703032 0.116329 0)
(0.723025 0.12627 0)
(0.743259 0.136214 0)
(0.763652 0.146137 0)
(0.784118 0.156013 0)
(0.804573 0.165815 0)
(0.824934 0.175517 0)
(0.845132 0.185077 0)
(0.865161 0.194382 0)
(0.885539 0.203436 0)
(0.905633 0.213472 0)
(0.921025 0.219138 0)
(0.939186 0.227645 0)
(0.949889 0.23783 0)
(0.953714 0.238701 0)
(0.955646 0.244486 0)
(0.962666 0.247868 1.08038e-027)
(0.488756 0.00640171 0)
(0.498572 0.0130045 0)
(0.509662 0.0225987 0)
(0.521959 0.0322743 0)
(0.535393 0.0419439 0)
(0.549887 0.0517385 0)
(0.565357 0.0617039 0)
(0.58172 0.0718266 0)
(0.598889 0.0820863 0)
(0.616778 0.0924659 0)
(0.635302 0.102948 0)
(0.654377 0.113513 0)
(0.673922 0.124141 0)
(0.693856 0.134809 0)
(0.714099 0.145492 0)
(0.734573 0.156165 0)
(0.755198 0.1668 0)
(0.775895 0.177369 0)
(0.796585 0.187843 0)
(0.817196 0.198195 0)
(0.837696 0.208359 0)
(0.858326 0.218217 0)
(0.880338 0.227964 0)
(0.90069 0.23901 0)
(0.913743 0.243873 0)
(0.929569 0.252484 0)
(0.940828 0.262101 0)
(0.946228 0.263161 0)
(0.950143 0.270034 -1.76651e-025)
(0.464034 0.00679707 0)
(0.473331 0.013792 0)
(0.48391 0.0239787 0)
(0.495706 0.0342431 0)
(0.508653 0.0445045 0)
(0.522681 0.0549055 0)
(0.537714 0.0654945 0)
(0.553673 0.0762582 0)
(0.570478 0.0871762 0)
(0.588046 0.0982314 0)
(0.6063 0.109406 0)
(0.62516 0.120681 0)
(0.644549 0.132035 0)
(0.664392 0.143442 0)
(0.684612 0.154879 0)
(0.705136 0.166318 0)
(0.725889 0.17773 0)
(0.746797 0.189083 0)
(0.767787 0.200346 0)
(0.788788 0.211486 0)
(0.809745 0.222471 0)
(0.830704 0.233202 0)
(0.852031 0.243793 0)
(0.876035 0.254032 0)
(0.896779 0.265882 0)
(0.906711 0.270451 0)
(0.921466 0.278416 0)
(0.931178 0.286959 0)
(0.938616 0.288821 -9.32722e-028)
(0.439363 0.00718844 0)
(0.448146 0.014581 0)
(0.458213 0.0253612 0)
(0.469501 0.0362138 0)
(0.481951 0.0470673 0)
(0.4955 0.0580758 0)
(0.510078 0.0692908 0)
(0.525612 0.0806987 0)
(0.542028 0.0922796 0)
(0.55925 0.104017 0)
(0.577205 0.115892 0)
(0.59582 0.127887 0)
(0.615023 0.139977 0)
(0.63474 0.152139 0)
(0.654903 0.164346 0)
(0.675441 0.17657 0)
(0.696287 0.18878 0)
(0.717371 0.200944 0)
(0.738626 0.213028 0)
(0.759984 0.224996 0)
(0.78139 0.236812 0)
(0.802829 0.248424 0)
(0.824495 0.259772 0)
(0.846327 0.271324 0)
(0.872602 0.281705 0)
(0.893438 0.294559 0)
(0.900869 0.298435 0)
(0.91611 0.306292 0)
(0.922297 0.313028 1.0115e-025)
(0.41483 0.00757254 0)
(0.423106 0.0153684 0)
(0.432663 0.0267402 0)
(0.443439 0.0381771 0)
(0.455384 0.0496201 0)
(0.468441 0.061235 0)
(0.482547 0.0730756 0)
(0.497636 0.0851286 0)
(0.513639 0.0973747 0)
(0.530488 0.109798 0)
(0.548114 0.12238 0)
(0.56645 0.135102 0)
(0.585432 0.147944 0)
(0.604992 0.160876 0)
(0.625062 0.173871 0)
(0.645579 0.186899 0)
(0.666479 0.19993 0)
(0.687697 0.212927 0)
(0.709169 0.225858 0)
(0.730833 0.238684 0)
(0.752635 0.251369 0)
(0.774545 0.263863 0)
(0.796635 0.276124 0)
(0.819315 0.288053 0)
(0.841986 0.300866 0)
(0.869304 0.310635 0)
(0.890185 0.32422 0)
(0.897351 0.327942 0)
(0.911239 0.333993 1.08934e-025)
(0.390517 0.00794625 0)
(0.398296 0.0161512 0)
(0.407346 0.0281098 0)
(0.417609 0.0401246 0)
(0.429042 0.052152 0)
(0.441596 0.0643695 0)
(0.455215 0.0768333 0)
(0.469839 0.0895306 0)
(0.485405 0.102443 0)
(0.501853 0.115556 0)
(0.51912 0.128851 0)
(0.537145 0.142311 0)
(0.555869 0.155911 0)
(0.575232 0.169624 0)
(0.595172 0.183421 0)
(0.615631 0.197272 0)
(0.636548 0.211143 0)
(0.657862 0.224997 0)
(0.679513 0.238797 0)
(0.701442 0.252501 0)
(0.723595 0.266072 0)
(0.745933 0.279467 0)
(0.768477 0.29263 0)
(0.791464 0.305512 0)
(0.815511 0.318118 0)
(0.840377 0.332062 0)
(0.865568 0.341301 0)
(0.887976 0.354489 0)
(0.895197 0.35945 -1.15698e-025)
(0.366504 0.00830642 0)
(0.373796 0.0169261 0)
(0.382347 0.029464 0)
(0.392097 0.0420471 0)
(0.403013 0.0546509 0)
(0.415053 0.0674645 0)
(0.428169 0.0805461 0)
(0.442308 0.0938836 0)
(0.457414 0.10746 0)
(0.473433 0.121262 0)
(0.490311 0.135274 0)
(0.507993 0.149476 0)
(0.526426 0.163843 0)
(0.545558 0.178349 0)
(0.565329 0.192966 0)
(0.585687 0.207659 0)
(0.60658 0.222392 0)
(0.627952 0.237127 0)
(0.649747 0.25182 0)
(0.67191 0.266427 0)
(0.694387 0.280902 0)
(0.717134 0.295203 0)
(0.740141 0.309285 0)
(0.763509 0.32308 0)
(0.787676 0.336643 0)
(0.81394 0.34987 0)
(0.840474 0.364822 0)
(0.863768 0.373408 0)
(0.886037 0.385173 1.23667e-025)
(0.342864 0.00864988 0)
(0.349684 0.0176895 0)
(0.357743 0.0307958 0)
(0.366982 0.0439344 0)
(0.377377 0.0571037 0)
(0.388895 0.0705038 0)
(0.401495 0.0841948 0)
(0.415129 0.0981656 0)
(0.429752 0.112402 0)
(0.445315 0.12689 0)
(0.46177 0.141618 0)
(0.479073 0.156566 0)
(0.497175 0.171709 0)
(0.516033 0.187026 0)
(0.535597 0.202483 0)
(0.555819 0.218039 0)
(0.576651 0.233659 0)
(0.598047 0.249299 0)
(0.619955 0.264913 0)
(0.642325 0.28045 0)
(0.665107 0.295857 0)
(0.688256 0.31108 0)
(0.711743 0.326072 0)
(0.735596 0.340762 0)
(0.759986 0.355226 0)
(0.785968 0.369161 0)
(0.814587 0.38378 0)
(0.842094 0.397702 0)
(0.864893 0.407386 -2.62606e-025)
(0.319666 0.00897354 0)
(0.326031 0.0184372 0)
(0.333607 0.0320977 0)
(0.34234 0.0457756 0)
(0.352212 0.0594963 0)
(0.3632 0.0734706 0)
(0.375269 0.0877597 0)
(0.388382 0.102355 0)
(0.402497 0.117243 0)
(0.417575 0.132416 0)
(0.433576 0.14786 0)
(0.45046 0.163559 0)
(0.468189 0.17949 0)
(0.486729 0.19563 0)
(0.506043 0.211938 0)
(0.526084 0.228379 0)
(0.546817 0.244913 0)
(0.568201 0.261493 0)
(0.590193 0.278066 0)
(0.612749 0.294573 0)
(0.635823 0.310952 0)
(0.659373 0.32714 0)
(0.683364 0.343074 0)
(0.707784 0.358678 0)
(0.732707 0.373989 0)
(0.758502 0.388775 0)
(0.786663 0.403876 0)
(0.817888 0.418542 0)
(0.845679 0.432132 4.60178e-028)
(0.296976 0.00927431 0)
(0.302903 0.0191641 0)
(0.31001 0.0333606 0)
(0.31824 0.0475579 0)
(0.327588 0.0618122 0)
(0.338039 0.0763445 0)
(0.349566 0.0912172 0)
(0.362138 0.106423 0)
(0.375722 0.121954 0)
(0.390285 0.137804 0)
(0.405796 0.153962 0)
(0.422224 0.170414 0)
(0.439541 0.187138 0)
(0.45772 0.204107 0)
(0.476737 0.221288 0)
(0.496552 0.238648 0)
(0.517136 0.256133 0)
(0.538463 0.273694 0)
(0.560501 0.291274 0)
(0.583215 0.308806 0)
(0.606566 0.326219 0)
(0.630516 0.343435 0)
(0.655029 0.360377 0)
(0.680075 0.376959 0)
(0.705676 0.393138 0)
(0.731953 0.40887 0)
(0.759493 0.424052 0)
(0.790316 0.440409 0)
(0.823962 0.454001 9.53307e-028)
(0.274857 0.00954907 0)
(0.280365 0.0198638 0)
(0.287015 0.0345737 0)
(0.29475 0.0492658 0)
(0.303574 0.0640318 0)
(0.313482 0.0791019 0)
(0.324455 0.0945391 0)
(0.336468 0.11034 0)
(0.349496 0.1265 0)
(0.363514 0.143016 0)
(0.3785 0.159882 0)
(0.39443 0.177085 0)
(0.411286 0.194608 0)
(0.429049 0.212422 0)
(0.447709 0.230507 0)
(0.467246 0.248816 0)
(0.487632 0.267291 0)
(0.508855 0.285885 0)
(0.530895 0.304533 0)
(0.55373 0.32316 0)
(0.577334 0.341683 0)
(0.601676 0.360013 0)
(0.626723 0.378052 0)
(0.652439 0.395702 0)
(0.678811 0.412867 0)
(0.705878 0.429523 0)
(0.733824 0.445446 0)
(0.763313 0.461419 0)
(0.798085 0.477866 1.54736e-025)
(0.253367 0.00979477 0)
(0.258476 0.0205287 0)
(0.264684 0.0357241 0)
(0.27193 0.0508814 0)
(0.280232 0.0661323 0)
(0.289592 0.0817151 0)
(0.299999 0.0976936 0)
(0.311435 0.114068 0)
(0.323883 0.130839 0)
(0.337326 0.148008 0)
(0.351748 0.165574 0)
(0.367137 0.183527 0)
(0.383482 0.201853 0)
(0.400774 0.22053 0)
(0.419013 0.239531 0)
(0.438208 0.258812 0)
(0.458333 0.278329 0)
(0.479389 0.298015 0)
(0.501374 0.317803 0)
(0.524283 0.337611 0)
(0.548103 0.357343 0)
(0.572816 0.376895 0)
(0.598398 0.396149 0)
(0.624817 0.414985 0)
(0.65204 0.433275 0)
(0.680057 0.450925 0)
(0.708941 0.467853 0)
(0.738574 0.483869 0)
(0.77152 0.500416 -1.59788e-025)
(0.232562 0.0100084 0)
(0.237294 0.02115 0)
(0.243074 0.036797 0)
(0.24984 0.0523843 0)
(0.257621 0.0680877 0)
(0.26643 0.0841528 0)
(0.27626 0.100644 0)
(0.287103 0.117565 0)
(0.298946 0.134924 0)
(0.311781 0.152727 0)
(0.3256 0.170978 0)
(0.340401 0.189673 0)
(0.356181 0.208802 0)
(0.372944 0.228348 0)
(0.390697 0.248278 0)
(0.409465 0.268574 0)
(0.429259 0.28918 0)
(0.450074 0.310019 0)
(0.471933 0.331028 0)
(0.49485 0.352114 0)
(0.518832 0.37317 0)
(0.54388 0.394074 0)
(0.569986 0.414687 0)
(0.597126 0.434859 0)
(0.625263 0.454432 0)
(0.65436 0.473246 0)
(0.684433 0.491208 0)
(0.715262 0.508094 0)
(0.747431 0.523923 1.68908e-025)
(0.212497 0.0101869 0)
(0.216872 0.0217174 0)
(0.22224 0.0377761 0)
(0.228535 0.0537517 0)
(0.235798 0.0698697 0)
(0.244051 0.0863809 0)
(0.253295 0.10335 0)
(0.263527 0.120786 0)
(0.274741 0.138703 0)
(0.286937 0.157116 0)
(0.300115 0.176032 0)
(0.314279 0.195455 0)
(0.329438 0.21538 0)
(0.345607 0.235797 0)
(0.362805 0.256683 0)
(0.38106 0.278011 0)
(0.400426 0.299736 0)
(0.420912 0.3218 0)
(0.442557 0.344114 0)
(0.465399 0.366585 0)
(0.48947 0.389094 0)
(0.514798 0.411503 0)
(0.541396 0.433646 0)
(0.569259 0.455341 0)
(0.598361 0.476388 0)
(0.628652 0.496576 0)
(0.660097 0.515723 0)
(0.692584 0.533695 0)
(0.725591 0.549907 0)
(0.193222 0.0103276 0)
(0.197262 0.0222202 0)
(0.202234 0.0386437 0)
(0.208065 0.0549602 0)
(0.214813 0.0714489 0)
(0.222508 0.0883646 0)
(0.231157 0.105772 0)
(0.240762 0.123685 0)
(0.251326 0.142126 0)
(0.262853 0.161115 0)
(0.27535 0.180669 0)
(0.288829 0.200796 0)
(0.303309 0.221503 0)
(0.318816 0.242784 0)
(0.33538 0.264628 0)
(0.353044 0.287006 0)
(0.371873 0.309895 0)
(0.39193 0.333233 0)
(0.413249 0.356934 0)
(0.435907 0.380902 0)
(0.459969 0.405007 0)
(0.485494 0.429091 0)
(0.512528 0.452964 0)
(0.541096 0.476403 0)
(0.571193 0.499161 0)
(0.602774 0.520966 0)
(0.635771 0.541542 0)
(0.670111 0.560707 0)
(0.705099 0.577961 1.76697e-025)
(0.174786 0.0104276 0)
(0.178512 0.0226472 0)
(0.183102 0.0393823 0)
(0.188477 0.0559862 0)
(0.194713 0.072797 0)
(0.201847 0.0900707 0)
(0.209893 0.107871 0)
(0.218859 0.126219 0)
(0.228752 0.145143 0)
(0.239582 0.16467 0)
(0.251363 0.184824 0)
(0.264112 0.205625 0)
(0.277857 0.227086 0)
(0.292631 0.249214 0)
(0.308482 0.272008 0)
(0.325464 0.295451 0)
(0.343646 0.319517 0)
(0.363137 0.344171 0)
(0.384011 0.369345 0)
(0.406358 0.394918 0)
(0.430284 0.420762 0)
(0.455893 0.446704 0)
(0.483275 0.472527 0)
(0.512499 0.49797 0)
(0.543597 0.522723 0)
(0.576546 0.546442 0)
(0.611269 0.568752 0)
(0.647667 0.589337 0)
(0.685186 0.607823 -5.72256e-027)
(0.157233 0.0104845 0)
(0.160663 0.0229871 0)
(0.164884 0.039975 0)
(0.16981 0.0568084 0)
(0.175536 0.0738887 0)
(0.182108 0.0914703 0)
(0.189544 0.109615 0)
(0.197859 0.128351 0)
(0.207066 0.147711 0)
(0.217177 0.167731 0)
(0.228211 0.188443 0)
(0.240189 0.209874 0)
(0.253145 0.232051 0)
(0.267121 0.254993 0)
(0.282174 0.278714 0)
(0.298376 0.303213 0)
(0.315812 0.328473 0)
(0.334594 0.354476 0)
(0.354868 0.381162 0)
(0.376751 0.408434 0)
(0.400386 0.436156 0)
(0.42593 0.464144 0)
(0.453532 0.49216 0)
(0.483323 0.519899 0)
(0.515392 0.546986 0)