/*--------------------------------*- C++ -*----------------------------------*\
| =========                 |                                                 |
| \\      /  F ield         | OpenFOAM: The Open Source CFD Toolbox           |
|  \\    /   O peration     | Version:  5.x                                   |
|   \\  /    A nd           | Web:      www.OpenFOAM.org                      |
|    \\/     M anipulation  |                                                 |
\*---------------------------------------------------------------------------*/
/*   Windows 32 and 64 bit porting by blueCAPE: http://www.bluecape.com.pt   *\
|  Based on Windows porting (2.0.x v4) by Symscape: http://www.symscape.com   |
\*---------------------------------------------------------------------------*/
FoamFile
{
    version     2.0;
    format      ascii;
    class       volScalarField;
    location    "310";
    object      epsilon;
}
// * * * * * * * * * * * * * * * * * * * * * * * * * * * * * * * * * * * * * //

dimensions      [0 2 -3 0 0 0 0];

internalField   nonuniform List<scalar> 
43900
(
0.00152925
0.00151909
0.00151979
0.00151971
0.00151968
0.00151967
0.00151967
0.00151967
0.00151967
0.00151967
0.00151967
0.00151968
0.00151968
0.00151968
0.00151968
0.00151968
0.00151968
0.00151969
0.00151969
0.00151969
0.00151969
0.00151969
0.00151969
0.00151969
0.00151969
0.00151969
0.00151969
0.00151969
0.00151969
0.00041385
3.819e-005
3.16665e-005
3.15209e-005
3.27304e-005
3.27938e-005
3.28065e-005
3.2792e-005
3.27921e-005
3.27959e-005
3.27943e-005
3.27987e-005
3.28028e-005
3.28055e-005
3.28076e-005
3.2806e-005
3.28078e-005
3.28122e-005
3.28116e-005
3.28125e-005
3.28126e-005
3.28119e-005
3.2815e-005
3.28156e-005
3.28151e-005
3.28171e-005
3.28164e-005
3.28158e-005
3.28182e-005
0.0508298
0.00575098
0.000289534
1.14811e-005
1.71104e-006
1.3278e-006
1.32678e-006
1.40983e-006
1.4188e-006
1.41753e-006
1.41636e-006
1.41652e-006
1.41715e-006
1.41773e-006
1.41792e-006
1.4181e-006
1.41863e-006
1.41892e-006
1.41899e-006
1.41924e-006
1.41931e-006
1.41951e-006
1.41984e-006
1.41989e-006
1.42003e-006
1.42017e-006
1.42011e-006
1.42025e-006
1.42047e-006
0.146405
0.0437203
0.00965813
0.00131647
8.32528e-005
3.39949e-006
3.41034e-007
1.22415e-007
1.08347e-007
1.15579e-007
1.19867e-007
1.20154e-007
1.1959e-007
1.19471e-007
1.19593e-007
1.19655e-007
1.19669e-007
1.19691e-007
1.19733e-007
1.19764e-007
1.19782e-007
1.19817e-007
1.19846e-007
1.19852e-007
1.19875e-007
1.19897e-007
1.19916e-007
1.19945e-007
1.19956e-007
0.197763
0.0845279
0.0338667
0.0112518
0.00264753
0.000356741
2.2411e-005
9.62658e-007
8.4133e-008
2.22454e-008
1.64964e-008
1.71402e-008
1.84309e-008
1.8618e-008
1.84344e-008
1.84175e-008
1.84855e-008
1.84872e-008
1.8475e-008
1.84794e-008
1.84826e-008
1.84853e-008
1.84906e-008
1.84969e-008
1.85025e-008
1.85053e-008
1.85069e-008
1.851e-008
1.85132e-008
0.222708
0.109105
0.0532858
0.0250942
0.0104946
0.00331427
0.000705246
7.71884e-005
4.2753e-006
2.02729e-007
1.91571e-008
5.54906e-009
4.10438e-009
4.43874e-009
4.73486e-009
4.71496e-009
4.63176e-009
4.64773e-009
4.67177e-009
4.67034e-009
4.67311e-009
4.6776e-009
4.67711e-009
4.67687e-009
4.67785e-009
4.67875e-009
4.68003e-009
4.68172e-009
4.6826e-009
0.234305
0.123718
0.0661621
0.0353333
0.0183921
0.00892536
0.00356763
0.00097587
0.000153312
1.17162e-005
6.042e-007
3.31489e-008
4.36843e-009
1.73404e-009
1.52699e-009
1.67273e-009
1.75153e-009
1.71407e-009
1.69958e-009
1.70665e-009
1.70478e-009
1.70414e-009
1.70668e-009
1.70841e-009
1.70811e-009
1.70783e-009
1.70838e-009
1.70879e-009
1.70892e-009
0.237419
0.131285
0.0739337
0.0420583
0.0238686
0.0132507
0.00693984
0.00316563
0.00103359
0.000214816
2.24982e-005
1.37365e-006
7.63302e-008
5.40991e-009
1.21351e-009
7.32119e-010
7.53282e-010
8.16992e-010
8.12927e-010
7.99538e-010
8.0379e-010
8.04689e-010
8.02742e-010
8.03275e-010
8.04899e-010
8.05233e-010
8.05271e-010
8.05469e-010
8.05601e-010
0.23669
0.135424
0.0790925
0.0468916
0.0279995
0.016655
0.0097046
0.00538263
0.00268514
0.00102074
0.000246937
3.16156e-005
2.2595e-006
1.36938e-007
8.92809e-009
1.09616e-009
4.75391e-010
4.05075e-010
4.47688e-010
4.62273e-010
4.53626e-010
4.53244e-010
4.53862e-010
4.52871e-010
4.51949e-010
4.52653e-010
4.53178e-010
4.53303e-010
4.53376e-010
0.232431
0.136072
0.081518
0.049733
0.0307235
0.0190797
0.0117921
0.00714453
0.00413749
0.00217838
0.000918114
0.000244849
3.57497e-005
2.90989e-006
1.94289e-007
1.3268e-008
1.2336e-009
3.82849e-010
2.63004e-010
2.77048e-010
2.92458e-010
2.88585e-010
2.88808e-010
2.90391e-010
2.89852e-010
2.88671e-010
2.88753e-010
2.89166e-010
2.89309e-010
0.225343
0.134359
0.0819281
0.0509849
0.0322285
0.0205838
0.0131922
0.00840401
0.0052461
0.00313391
0.00171262
0.000770293
0.000218176
3.45855e-005
3.12172e-006
2.30042e-007
1.70079e-008
1.4957e-009
3.1822e-010
1.93792e-010
1.88809e-010
2.01171e-010
1.99974e-010
1.99363e-010
2.00573e-010
2.01407e-010
2.00792e-010
2.00334e-010
2.00456e-010
0.217399
0.13157
0.0814879
0.0515187
0.0331392
0.0215962
0.0141869
0.00933271
0.00609188
0.00389166
0.00237863
0.0013335
0.000622811
0.000182632
3.06998e-005
3.02984e-006
2.46478e-007
1.99527e-008
1.78979e-009
2.97176e-010
1.5726e-010
1.33687e-010
1.44996e-010
1.46224e-010
1.44914e-010
1.45841e-010
1.47317e-010
1.4746e-010
1.47184e-010
0.208513
0.127846
0.0802277
0.0513936
0.0335368
0.0222101
0.0148675
0.0100101
0.00673486
0.00448712
0.00292057
0.00181637
0.00103597
0.000493515
0.000146876
2.5585e-005
2.72098e-006
2.4313e-007
2.15321e-008
2.03836e-009
2.99114e-010
1.35394e-010
1.0615e-010
1.10713e-010
1.12747e-010
1.11242e-010
1.11183e-010
1.11893e-010
1.12384e-010
0.198878
0.123321
0.0782701
0.0507518
0.0335061
0.02249
0.0152864
0.0104799
0.00721083
0.00494721
0.00335371
0.00221603
0.00139591
0.000804344
0.00038575
0.000114213
1.99971e-005
2.25682e-006
2.20749e-007
2.14194e-008
2.17973e-009
3.07529e-010
1.1617e-010
8.78829e-011
8.83424e-011
9.09843e-011
8.96682e-011
8.86943e-011
8.92116e-011
0.188742
0.118202
0.0757801
0.0496472
0.033159
0.0224992
0.0154925
0.0107808
0.00755131
0.00529732
0.00369722
0.00254369
0.0017014
0.00108146
0.000625815
0.00029834
8.67776e-005
1.51773e-005
1.82286e-006
1.9586e-007
2.08889e-008
2.30739e-009
3.2368e-010
1.05277e-010
7.61414e-011
7.35028e-011
7.67883e-011
7.61374e-011
7.47279e-011
0.178259
0.112661
0.0728863
0.0482029
0.0325112
0.0223113
0.0155275
0.0109443
0.00778073
0.00555685
0.00396634
0.00281039
0.00195814
0.00132259
0.000845655
0.000489137
0.000229371
6.52382e-005
1.14827e-005
1.47314e-006
1.73186e-007
2.02048e-008
2.42323e-009
3.47209e-010
1.00286e-010
6.93243e-011
6.22772e-011
6.55682e-011
6.64666e-011
0.167603
0.106837
0.0697108
0.0465036
0.031652
0.0219307
0.0154306
0.0109938
0.00791591
0.00573822
0.00417035
0.0030228
0.00217005
0.00152791
0.0010395
0.000666402
0.00038331
0.000174938
4.85703e-005
8.64374e-006
1.18396e-006
1.51554e-007
1.9287e-008
2.50767e-009
3.73268e-010
9.987e-011
6.35492e-011
5.47393e-011
5.68495e-011
0.156917
0.100851
0.0663438
0.0446249
0.0306319
0.0214156
0.0152151
0.0109562
0.00797895
0.00585907
0.00432305
0.00319149
0.00234482
0.00170228
0.00120876
0.000826458
0.000529689
0.000301592
0.00013246
3.59902e-005
6.53799e-006
9.61858e-007
1.34186e-007
1.85951e-008
2.61583e-009
4.08314e-010
1.02895e-010
5.80394e-011
4.84812e-011
0.146289
0.0947793
0.0628491
0.0426164
0.0294951
0.0207972
0.0149096
0.0108439
0.00797715
0.00592775
0.00443307
0.00332472
0.00248984
0.00185169
0.00135751
0.000970729
0.000665967
0.000425896
0.000239317
0.000100286
2.68269e-005
5.0327e-006
7.96944e-007
1.20739e-007
1.81296e-008
2.74872e-009
4.51632e-010
1.07672e-010
5.37905e-011
0.135805
0.0886904
0.0592776
0.0405158
0.0282696
0.0201001
0.0145361
0.01067
0.00793275
0.00595591
0.00450738
0.00342704
0.00260835
0.00197858
0.00148744
0.0010998
0.000790987
0.000543768
0.000346388
0.000191475
7.57794e-005
2.01473e-005
3.93178e-006
6.69544e-007
1.09885e-007
1.78864e-008
2.93087e-009
5.09755e-010
1.15582e-010
0.125536
0.0826406
0.0556717
0.0383546
0.026978
0.0193404
0.0141059
0.0104469
0.00783997
0.00594687
0.00455113
0.00350364
0.00270494
0.00208671
0.0016014
0.00121558
0.000905532
0.000654426
0.000450438
0.000285603
0.00015527
5.7776e-005
1.54086e-005
3.15538e-006
5.78983e-007
1.02874e-007
1.81007e-008
3.1966e-009
5.77492e-010
0.115541
0.0766755
0.0520659
0.0361581
0.0256394
0.0185325
0.0136312
0.010184
0.00771314
0.0059102
0.00456889
0.00355759
0.00278199
0.00217808
0.0017011
0.0013194
0.00101038
0.0007578
0.000550061
0.000379017
0.000239328
0.000128452
4.63102e-005
1.23104e-005
2.63858e-006
5.1873e-007
9.9055e-008
1.86973e-008
3.45275e-009
0.105875
0.0708375
0.048491
0.0339485
0.0242692
0.0176873
0.0131191
0.0098859
0.00755431
0.00584189
0.00456195
0.00359066
0.00284116
0.00225404
0.00178753
0.00141188
0.00110571
0.000853538
0.000644137
0.000469427
0.000323781
0.000203639
0.000107144
3.80812e-005
1.02191e-005
2.29877e-006
4.8143e-007
9.82619e-008
1.93863e-008
0.0965863
0.0651637
0.0449749
0.0317463
0.0228827
0.0168159
0.0125782
0.00956002
0.00736989
0.00575193
0.00453629
0.0036058
0.00288434
0.00231599
0.00186179
0.0014939
0.00119219
0.000942001
0.000732584
0.000556084
0.000406838
0.000280937
0.000175933
9.07995e-005
3.22061e-005
8.84684e-006
2.08721e-006
4.63022e-007
9.80902e-008
0.0877167
0.0596869
0.0415422
0.0295697
0.0214929
0.0159279
0.0120152
0.00921049
0.00716237
0.00563991
0.0044884
0.00360266
0.00291204
0.00236461
0.00192451
0.00156593
0.00127009
0.00102322
0.000815147
0.000638326
0.000487215
0.000357824
0.00024743
0.000154465
7.84148e-005
2.79862e-005
7.91273e-006
1.95697e-006
4.48e-007
0.0793009
0.0544358
0.0382152
0.0274354
0.0201125
0.0150325
0.0114371
0.00884303
0.0069366
0.00551059
0.00442567
0.00358701
0.00292739
0.00240173
0.00197683
0.00162873
0.00133992
0.0010975
0.000891885
0.000715914
0.000564249
0.000432953
0.000319208
0.000221161
0.000137839
6.90102e-005
2.49166e-005
7.27885e-006
1.84335e-006
0.071366
0.0494341
0.0350128
0.0253581
0.0187525
0.0141382
0.0108501
0.00846187
0.00669527
0.00536537
0.00434725
0.003555
0.00292808
0.00242665
0.00201875
0.00168253
0.00140194
0.00116503
0.000962886
0.000788768
0.000637609
0.000505604
0.000389951
0.000288681
0.000200554
0.000124966
6.19051e-005
2.27193e-005
6.70408e-006
0.0639316
0.0447003
0.0319509
0.0233504
0.0174228
0.0132524
0.0102599
0.00807169
0.00644227
0.00520772
0.00425664
0.00351208
0.00292033
0.00244264
0.00205205
0.00172839
0.00145681
0.00122624
0.00102838
0.000856936
0.000707136
0.00057535
0.000458857
0.000355666
0.000264412
0.000184277
0.000114923
5.66097e-005
2.0683e-005
0.0570091
0.0402482
0.0290418
0.0214228
0.0161317
0.0123818
0.00967187
0.00767644
0.00618055
0.00503969
0.00415515
0.00345847
0.00290145
0.00244863
0.00207664
0.00176658
0.00150492
0.00128151
0.0010887
0.000920658
0.000772932
0.000642106
0.000525581
0.00042141
0.000328192
0.000244993
0.000171257
0.000107382
5.15471e-005
0.0506025
0.0360862
0.0262947
0.0195835
0.0148863
0.0115321
0.0090904
0.0072797
0.00591293
0.00486357
0.00404466
0.00339554
0.00287314
0.00244644
0.00209367
0.0017979
0.00154686
0.0013313
0.00114422
0.000980231
0.000835211
0.000705975
0.000590076
0.000485647
0.000391308
0.000306082
0.000229342
0.000161046
0.00010066
0.044709
0.0322181
0.0237156
0.0178386
0.013692
0.0107079
0.00851933
0.00688459
0.00564199
0.00468148
0.003927
0.00332515
0.0028379
0.00243797
0.00210447
0.00182335
0.00158343
0.00137629
0.00119549
0.00103611
0.000894341
0.000767236
0.000652508
0.000548401
0.000453585
0.000367089
0.000288257
0.000216791
0.000152775
0.0393197
0.0286438
0.0213075
0.0161922
0.0125529
0.0099129
0.00796179
0.00649368
0.00536978
0.00449506
0.00380338
0.00324804
0.00279562
0.00242177
0.00210845
0.00184294
0.00161492
0.00141685
0.00124294
0.00108873
0.000950739
0.000826261
0.00071319
0.000609891
0.000515112
0.000427922
0.000347662
0.000273951
0.000206751
0.0344204
0.0253593
0.019071
0.0146467
0.0114718
0.00914982
0.00742027
0.00610907
0.00509807
0.00430575
0.00367504
0.00316538
0.00274753
0.00240009
0.0021072
0.00185759
0.00164194
0.0014535
0.00128704
0.00113854
0.00100483
0.000883464
0.000772504
0.000670452
0.00057615
0.000488722
0.000407539
0.0003322
0.00026254
0.0299928
0.0223579
0.0170048
0.0132031
0.0104507
0.00842079
0.0068967
0.00573248
0.00482829
0.00411476
0.00354298
0.00307797
0.00269437
0.00237354
0.00210176
0.00186808
0.00166512
0.00148674
0.00132824
0.00118596
0.00105705
0.000939277
0.00083088
0.000730495
0.000637065
0.000549789
0.000468083
0.000391559
0.00032001
0.0260152
0.0196302
0.0151057
0.0118611
0.00949056
0.00772727
0.00639263
0.0053653
0.00456162
0.00392304
0.00340793
0.00298635
0.00263642
0.00234199
0.00209099
0.00187411
0.00168451
0.00151682
0.00136687
0.00123139
0.00110782
0.000994144
0.000888778
0.000790488
0.00069832
0.000611553
0.000529661
0.000452293
0.000379246
0.0224633
0.0171652
0.0133692
0.0106196
0.0085918
0.00707028
0.00590921
0.00500863
0.00429903
0.00373136
0.0032705
0.00289099
0.00257408
0.00230586
0.00207579
0.00187576
0.00170017
0.00154385
0.00140312
0.00127509
0.00115748
0.00104848
0.00094667
0.000850947
0.000760456
0.000674558
0.000592794
0.000514863
0.000440598
0.0193111
0.0149503
0.0117898
0.00947655
0.00775425
0.00645048
0.0054474
0.00466344
0.00404136
0.00354041
0.00313121
0.00279226
0.00250764
0.0022654
0.00205648
0.00187395
0.00171259
0.00156811
0.00143722
0.00131731
0.00120634
0.00110267
0.00100504
0.000912427
0.000824088
0.000739459
0.000658148
0.000579916
0.000504645
0.0165312
0.0129717
0.010361
0.00842953
0.00697736
0.00586824
0.00500793
0.00433053
0.00378933
0.00335079
0.00299049
0.00269044
0.0024372
0.00222062
0.00203296
0.00186834
0.00172164
0.00158959
0.00146922
0.00135819
0.00125464
0.00115708
0.00106435
0.000975521
0.000889917
0.000807039
0.000726559
0.000648299
0.000572206
0.0140955
0.0112148
0.00907571
0.00747544
0.00626021
0.00532372
0.00459145
0.00401068
0.00354368
0.00316306
0.00284873
0.00258573
0.0023628
0.00217136
0.0020048
0.00185796
0.00172669
0.00160786
0.00149888
0.00139765
0.00130246
0.00121195
0.00112503
0.00104084
0.000958724
0.000878227
0.000799065
0.000721113
0.00064439
0.0119754
0.00966457
0.00792625
0.00661072
0.00560154
0.00481686
0.00419844
0.00370458
0.00330507
0.0029778
0.00270633
0.00247835
0.00228447
0.0021175
0.00197181
0.00184291
0.00172711
0.00162239
0.00152575
0.00143534
0.00134963
0.00126734
0.0011874
0.00110895
0.00103134
0.000954094
0.00087694
0.000799778
0.000722684
0.0101423
0.00830515
0.0069043
0.00583137
0.00499977
0.00434739
0.00382932
0.00341292
0.00307428
0.00279567
0.00256381
0.00236861
0.00220233
0.00205896
0.00193378
0.00182301
0.00172364
0.00163308
0.00154939
0.00147079
0.00139575
0.00132301
0.00125147
0.00118021
0.00110849
0.00103575
0.000961646
0.000886037
0.000809017
0.0085678
0.00712057
0.00600117
0.005133
0.00445303
0.00391492
0.00348448
0.0031365
0.00285222
0.0026176
0.00242196
0.00225712
0.00211676
0.0019959
0.00189061
0.00179771
0.00171471
0.00163889
0.00156893
0.00150313
0.00144003
0.00137834
0.00131688
0.0012546
0.0011906
0.00112412
0.00105462
0.000981805
0.000905685
0.00722437
0.00609484
0.00520793
0.00451097
0.00395931
0.00351901
0.00316445
0.00287636
0.00264023
0.002445
0.00228218
0.00214519
0.00202889
0.00192921
0.00184289
0.00176727
0.0017001
0.00163926
0.00158377
0.00153168
0.00148168
0.00143251
0.00138291
0.00133166
0.00127761
0.00121968
0.00115697
0.00108884
0.00101505
0.00608556
0.00521234
0.00451565
0.00396061
0.00351663
0.00315943
0.00287009
0.00263411
0.00244035
0.00228018
0.00214689
0.00203525
0.00194109
0.00186111
0.00179266
0.00173354
0.00168194
0.00163634
0.0015949
0.00155676
0.00152059
0.00148511
0.00144898
0.00141081
0.00136912
0.00132242
0.00126927
0.00120845
0.00113914
0.00512668
0.0044582
0.00391581
0.00347749
0.00312331
0.00283634
0.00260288
0.00241215
0.00225565
0.0021267
0.00202002
0.00193142
0.00185758
0.00179583
0.00174402
0.00170041
0.00166354
0.00163212
0.00160463
0.00158035
0.00155822
0.00153708
0.00151557
0.00149217
0.0014651
0.00143238
0.00139189
0.00134153
0.00127954
0.00432521
0.00381873
0.00340052
0.00305766
0.00277813
0.00255051
0.00236508
0.00221388
0.00209047
0.00198965
0.00190723
0.00183986
0.00178486
0.00174006
0.00170378
0.00167465
0.00165158
0.00163348
0.00161858
0.00160733
0.00159874
0.00159186
0.00158541
0.00157781
0.00156707
0.00155062
0.00152586
0.00148944
0.00143797
0.00366102
0.00328155
0.00296268
0.00269774
0.0024804
0.00230332
0.00215969
0.00204367
0.00195035
0.00187559
0.00181601
0.00176883
0.00173185
0.00170322
0.00168174
0.00166627
0.00165542
0.00164802
0.00164522
0.00164608
0.00164989
0.00165663
0.00166486
0.00167321
0.00167962
0.0016805
0.00167442
0.00165565
0.00161762
0.00311632
0.0028356
0.00259595
0.00239477
0.00222977
0.00209645
0.00199016
0.00190655
0.00184176
0.00179236
0.00175547
0.00172862
0.00171
0.00169763
0.00168977
0.00168574
0.00168588
0.00168958
0.00169783
0.00170979
0.0017251
0.00174386
0.00176549
0.00178899
0.00181254
0.00183291
0.00184615
0.00184422
0.00182418
0.00267535
0.00247086
0.00229442
0.00214593
0.00202579
0.00193152
0.00185993
0.00180769
0.00177169
0.00174869
0.00173625
0.00173138
0.00173112
0.00173455
0.00174171
0.00175165
0.00176416
0.00177927
0.00179786
0.00181953
0.00184461
0.00187368
0.00190691
0.00194391
0.00198349
0.00202273
0.00205727
0.00207628
0.00206972
0.00232389
0.002178
0.00205228
0.00194808
0.00186755
0.00180956
0.00177201
0.00175207
0.00174743
0.00175385
0.00176807
0.00178828
0.00181262
0.00183869
0.00186569
0.00189302
0.0019205
0.00194845
0.00197749
0.00200838
0.00204218
0.00208006
0.00212302
0.00217146
0.00222513
0.00228168
0.00233756
0.00237944
0.00238767
0.00204891
0.001948
0.0018635
0.00179752
0.00175332
0.00173074
0.0017287
0.0017442
0.00177472
0.00181666
0.00186775
0.0019244
0.00198356
0.00204229
0.00209871
0.00215162
0.00220075
0.00224664
0.00229033
0.00233326
0.00237731
0.00242448
0.00247674
0.0025354
0.0026014
0.00267306
0.00274919
0.00281303
0.00283903
0.00183829
0.00177206
0.00172176
0.00168989
0.00168052
0.00169427
0.0017309
0.00178748
0.0018631
0.00195433
0.00205717
0.00216682
0.0022789
0.00238921
0.00249435
0.00259193
0.00268074
0.00276083
0.00283325
0.00289987
0.00296358
0.00302767
0.00309528
0.0031685
0.00324936
0.00333678
0.00343251
0.00351827
0.00356062
0.00168086
0.00164169
0.00162055
0.00162033
0.00164546
0.00169861
0.00177917
0.00188797
0.00202316
0.00218135
0.00235845
0.00254888
0.00274643
0.00294469
0.00313774
0.00332078
0.00349051
0.00364538
0.00378546
0.00391212
0.00402959
0.00414318
0.00425516
0.00436851
0.00448605
0.00460887
0.00473573
0.00486539
0.00492205
0.00156656
0.00154889
0.00155344
0.00158333
0.00164495
0.0017411
0.00187531
0.00204887
0.00226204
0.00251329
0.0027992
0.00311409
0.00345049
0.00379973
0.00415294
0.00450198
0.00484033
0.00516363
0.0054697
0.00575819
0.00603253
0.00629885
0.00656025
0.00681973
0.00707563
0.00733977
0.00756166
0.00787717
0.00791228
0.00148657
0.00148639
0.00151415
0.00157426
0.00167403
0.00181983
0.00201721
0.0022715
0.00258693
0.00296586
0.00340814
0.00391049
0.00446655
0.0050675
0.00570314
0.00636332
0.00703938
0.00772526
0.00841804
0.00911803
0.00982558
0.0105531
0.0113111
0.0121046
0.0129258
0.013834
0.0145469
0.0159251
0.0158175
0.00143334
0.00144762
0.00149734
0.00158777
0.0017289
0.00193012
0.00220189
0.00255538
0.00300165
0.00355057
0.00420967
0.00498308
0.00587111
0.00687066
0.00797645
0.00918302
0.010487
0.0118895
0.0133978
0.0150275
0.0168021
0.0187469
0.0209246
0.0233862
0.0262049
0.0295835
0.0328295
0.0394093
0.0394323
0.00140053
0.00142702
0.00149788
0.00161912
0.00180422
0.00206705
0.00242466
0.00289673
0.0035049
0.00427164
0.0052187
0.00636578
0.00772972
0.00932478
0.0111642
0.0132633
0.015643
0.0183352
0.0213882
0.0248725
0.028892
0.033581
0.0391581
0.0458436
0.0542155
0.0647249
0.0777779
0.100733
0.108273
0.00138306
0.00141989
0.00151127
0.00166368
0.00189508
0.00222504
0.00267914
0.00328858
0.00409009
0.00512509
0.00643844
0.0080772
0.01009
0.0125279
0.0154469
0.0189129
0.0230093
0.0278468
0.0335776
0.0404123
0.0486551
0.0587132
0.0712642
0.0870464
0.108022
0.13502
0.175421
0.233606
0.280605
0.00137762
0.00142305
0.00153475
0.00171827
0.00199781
0.00239949
0.00295946
0.00372366
0.00474895
0.00610337
0.00786607
0.0101273
0.0129892
0.016569
0.0210041
0.026462
0.0331546
0.0413588
0.0514483
0.0639327
0.0795465
0.099285
0.124828
0.158072
0.204294
0.265184
0.366027
0.490359
0.666389
0.00151969
0.00151969
0.0015197
0.0015197
0.00151969
0.00151969
0.00151969
0.0015197
0.00151971
0.0015197
0.00151969
0.00151969
0.00151971
0.00151971
0.00151971
0.00151969
0.00151969
0.00151969
0.00151969
0.00151969
0.00151968
0.00151968
0.00151968
0.00151969
0.00151969
0.0015197
0.0015197
0.00151969
0.00151968
0.00151968
0.00151968
0.00151969
0.0015197
0.0015197
0.0015197
0.0015197
0.0015197
0.0015197
0.0015197
0.0015197
0.0015197
0.0015197
0.0015197
0.0015197
0.0015197
0.0015197
0.0015197
0.0015197
0.0015197
0.0015197
0.0015197
0.0015197
0.0015197
0.0015197
0.0015197
0.0015197
0.0015197
0.0015197
0.0015197
0.0015197
0.0015197
0.0015197
0.0015197
0.0015197
0.0015197
0.0015197
0.0015197
0.0015197
0.00151971
0.00151971
0.00151971
0.00151971
0.00151971
0.00151971
0.00151971
0.00151971
0.00151971
0.00151971
0.00151971
0.0015197
0.00151971
0.00151971
0.00151971
0.00151971
0.00151971
0.00151971
0.00151971
0.00151971
0.00151971
0.00151971
0.00151971
0.00151971
0.00151971
0.00151971
0.00151971
0.00151971
0.00151971
0.00151971
0.00151971
0.00151971
0.00151971
0.00151971
0.00151971
0.00151971
0.00151971
0.00151971
0.00151971
0.00151971
0.00151971
0.00151971
0.00151971
0.00151971
0.00151971
0.00151971
0.00151971
0.00151971
0.00151971
0.00151971
0.00151971
0.00151971
0.00151971
0.00151971
0.00151971
0.00151971
0.00151971
0.00151971
0.00151971
0.00151971
0.00151971
0.00151971
0.00151971
0.00151971
0.00151971
0.00151972
0.00151972
0.00151972
0.00151972
0.00151973
0.00154196
3.2818e-005
3.28189e-005
3.28239e-005
3.28254e-005
3.28186e-005
3.28142e-005
3.28203e-005
3.28309e-005
3.28342e-005
3.2826e-005
3.28166e-005
3.28193e-005
3.28338e-005
3.28406e-005
3.28319e-005
3.28171e-005
3.2812e-005
3.28178e-005
3.28189e-005
3.28127e-005
3.2804e-005
3.2804e-005
3.28119e-005
3.28186e-005
3.28208e-005
3.28231e-005
3.2824e-005
3.28164e-005
3.28082e-005
3.28067e-005
3.28103e-005
3.28231e-005
3.2825e-005
3.28244e-005
3.28241e-005
3.2824e-005
3.28239e-005
3.28238e-005
3.28238e-005
3.28238e-005
3.28241e-005
3.28245e-005
3.28251e-005
3.28254e-005
3.28257e-005
3.28261e-005
3.28263e-005
3.28265e-005
3.28267e-005
3.2827e-005
3.28271e-005
3.28274e-005
3.28277e-005
3.2828e-005
3.28284e-005
3.28288e-005
3.28293e-005
3.28298e-005
3.28303e-005
3.28308e-005
3.28313e-005
3.28317e-005
3.28323e-005
3.28326e-005
3.28332e-005
3.28334e-005
3.28343e-005
3.28343e-005
3.28353e-005
3.28353e-005
3.28354e-005
3.28367e-005
3.28361e-005
3.28369e-005
3.28368e-005
3.28378e-005
3.28365e-005
3.28365e-005
3.28369e-005
3.28345e-005
3.2837e-005
3.28363e-005
3.28374e-005
3.284e-005
3.28409e-005
3.28395e-005
3.28364e-005
3.28379e-005
3.28382e-005
3.28402e-005
3.28418e-005
3.28422e-005
3.28421e-005
3.2842e-005
3.2842e-005
3.28419e-005
3.2842e-005
3.28418e-005
3.28419e-005
3.28419e-005
3.28418e-005
3.28418e-005
3.28417e-005
3.28417e-005
3.28416e-005
3.28416e-005
3.28414e-005
3.28414e-005
3.28413e-005
3.28412e-005
3.2841e-005
3.28408e-005
3.28405e-005
3.28403e-005
3.28399e-005
3.28396e-005
3.28393e-005
3.28391e-005
3.28392e-005
3.28392e-005
3.28394e-005
3.28394e-005
3.28396e-005
3.28398e-005
3.28401e-005
3.28401e-005
3.28406e-005
3.2841e-005
3.28412e-005
3.28424e-005
3.2843e-005
3.28449e-005
3.28448e-005
3.28501e-005
3.28471e-005
3.28529e-005
3.28549e-005
3.28673e-005
3.49999e-005
1.42049e-006
1.42074e-006
1.42094e-006
1.42064e-006
1.42028e-006
1.42067e-006
1.42146e-006
1.42172e-006
1.42119e-006
1.42044e-006
1.42055e-006
1.42139e-006
1.42204e-006
1.42159e-006
1.42074e-006
1.42055e-006
1.42099e-006
1.42149e-006
1.42136e-006
1.42124e-006
1.42151e-006
1.42188e-006
1.42221e-006
1.42208e-006
1.42207e-006
1.42216e-006
1.42217e-006
1.42191e-006
1.42183e-006
1.42199e-006
1.42241e-006
1.42272e-006
1.4225e-006
1.42254e-006
1.42263e-006
1.42268e-006
1.42273e-006
1.42277e-006
1.42282e-006
1.42288e-006
1.42295e-006
1.42301e-006
1.42303e-006
1.42303e-006
1.42305e-006
1.42311e-006
1.42316e-006
1.42324e-006
1.42329e-006
1.42336e-006
1.4234e-006
1.42346e-006
1.42352e-006
1.42357e-006
1.42363e-006
1.4237e-006
1.42374e-006
1.42382e-006
1.42386e-006
1.42393e-006
1.42398e-006
1.42403e-006
1.4241e-006
1.42413e-006
1.42421e-006
1.42424e-006
1.42431e-006
1.42431e-006
1.42441e-006
1.42442e-006
1.42445e-006
1.42455e-006
1.42445e-006
1.42457e-006
1.42453e-006
1.4246e-006
1.42457e-006
1.42451e-006
1.42458e-006
1.42451e-006
1.42459e-006
1.42451e-006
1.42463e-006
1.42478e-006
1.42484e-006
1.42484e-006
1.42482e-006
1.42493e-006
1.4249e-006
1.42501e-006
1.42509e-006
1.42518e-006
1.42523e-006
1.42525e-006
1.42525e-006
1.42527e-006
1.42524e-006
1.42527e-006
1.42525e-006
1.42525e-006
1.42524e-006
1.42524e-006
1.42522e-006
1.42521e-006
1.4252e-006
1.42517e-006
1.42516e-006
1.42513e-006
1.42511e-006
1.42507e-006
1.42504e-006
1.42499e-006
1.42496e-006
1.4249e-006
1.42485e-006
1.42478e-006
1.42473e-006
1.42467e-006
1.42466e-006
1.42463e-006
1.42461e-006
1.42457e-006
1.42455e-006
1.42453e-006
1.42449e-006
1.42445e-006
1.42446e-006
1.42435e-006
1.42436e-006
1.42448e-006
1.42426e-006
1.42452e-006
1.42445e-006
1.42488e-006
1.42436e-006
1.42799e-006
1.39671e-006
1.33298e-006
2.73412e-006
1.1997e-007
1.19998e-007
1.20005e-007
1.2e-007
1.20032e-007
1.20094e-007
1.20114e-007
1.20077e-007
1.20044e-007
1.20066e-007
1.20139e-007
1.20179e-007
1.2016e-007
1.20116e-007
1.20092e-007
1.20123e-007
1.20177e-007
1.20222e-007
1.20258e-007
1.20276e-007
1.20282e-007
1.20271e-007
1.2027e-007
1.20302e-007
1.20337e-007
1.20353e-007
1.20357e-007
1.20349e-007
1.20333e-007
1.20325e-007
1.20346e-007
1.20369e-007
1.20411e-007
1.20426e-007
1.2044e-007
1.20451e-007
1.20461e-007
1.20472e-007
1.20483e-007
1.20494e-007
1.20504e-007
1.20512e-007
1.20516e-007
1.20522e-007
1.20532e-007
1.20546e-007
1.2056e-007
1.20576e-007
1.20588e-007
1.20602e-007
1.20614e-007
1.20627e-007
1.20638e-007
1.2065e-007
1.20662e-007
1.20674e-007
1.20683e-007
1.20695e-007
1.20704e-007
1.20716e-007
1.20725e-007
1.20735e-007
1.20746e-007
1.20755e-007
1.20766e-007
1.20774e-007
1.20784e-007
1.20792e-007
1.20802e-007
1.20809e-007
1.20817e-007
1.20828e-007
1.20832e-007
1.20846e-007
1.20848e-007
1.20854e-007
1.2086e-007
1.20867e-007
1.20877e-007
1.20878e-007
1.20896e-007
1.20898e-007
1.2091e-007
1.20915e-007
1.20923e-007
1.20929e-007
1.20931e-007
1.20941e-007
1.20947e-007
1.20955e-007
1.20964e-007
1.20975e-007
1.20984e-007
1.2099e-007
1.20995e-007
1.21001e-007
1.21001e-007
1.21008e-007
1.21008e-007
1.2101e-007
1.21012e-007
1.21012e-007
1.21012e-007
1.21011e-007
1.21011e-007
1.21008e-007
1.21007e-007
1.21002e-007
1.20999e-007
1.20992e-007
1.20987e-007
1.20977e-007
1.20972e-007
1.20962e-007
1.20956e-007
1.20945e-007
1.20936e-007
1.20925e-007
1.20917e-007
1.20907e-007
1.20897e-007
1.20884e-007
1.20872e-007
1.2086e-007
1.20846e-007
1.20828e-007
1.20817e-007
1.20799e-007
1.20772e-007
1.20758e-007
1.20801e-007
1.20721e-007
1.20681e-007
1.21902e-007
1.2117e-007
1.0943e-007
1.87044e-007
1.24719e-005
0.00176846
1.85198e-008
1.85251e-008
1.85279e-008
1.85316e-008
1.8535e-008
1.85373e-008
1.85384e-008
1.8542e-008
1.85486e-008
1.85536e-008
1.85541e-008
1.85544e-008
1.85562e-008
1.85585e-008
1.85612e-008
1.85682e-008
1.8578e-008
1.85863e-008
1.85887e-008
1.85892e-008
1.85898e-008
1.85968e-008
1.86044e-008
1.86128e-008
1.86137e-008
1.86155e-008
1.86153e-008
1.8612e-008
1.86109e-008
1.86167e-008
1.86244e-008
1.86353e-008
1.86393e-008
1.86416e-008
1.86461e-008
1.86502e-008
1.8654e-008
1.86577e-008
1.86612e-008
1.86646e-008
1.86677e-008
1.86705e-008
1.86732e-008
1.86764e-008
1.86801e-008
1.8684e-008
1.86878e-008
1.86917e-008
1.86953e-008
1.8699e-008
1.87026e-008
1.87062e-008
1.87097e-008
1.87131e-008
1.87166e-008
1.87199e-008
1.87231e-008
1.87263e-008
1.87294e-008
1.87326e-008
1.87356e-008
1.87387e-008
1.87418e-008
1.87447e-008
1.87478e-008
1.87506e-008
1.87535e-008
1.87564e-008
1.87592e-008
1.87619e-008
1.87647e-008
1.87681e-008
1.87702e-008
1.87742e-008
1.87755e-008
1.87784e-008
1.87795e-008
1.87818e-008
1.8784e-008
1.87862e-008
1.87896e-008
1.87906e-008
1.87933e-008
1.87956e-008
1.87984e-008
1.87986e-008
1.88007e-008
1.88038e-008
1.88042e-008
1.88065e-008
1.88088e-008
1.88105e-008
1.88119e-008
1.88136e-008
1.88151e-008
1.88168e-008
1.88174e-008
1.8819e-008
1.88195e-008
1.88204e-008
1.8821e-008
1.88215e-008
1.88217e-008
1.88217e-008
1.88217e-008
1.88211e-008
1.8821e-008
1.88195e-008
1.88188e-008
1.88169e-008
1.88154e-008
1.88126e-008
1.88107e-008
1.88079e-008
1.88058e-008
1.8803e-008
1.88002e-008
1.87971e-008
1.87942e-008
1.87912e-008
1.87879e-008
1.87842e-008
1.87805e-008
1.87766e-008
1.87723e-008
1.87675e-008
1.87657e-008
1.87539e-008
1.87274e-008
1.87873e-008
1.86513e-008
1.87563e-008
1.89691e-008
1.66893e-008
1.71446e-008
8.23729e-008
6.97353e-006
0.000706901
0.0166541
4.68364e-009
4.68514e-009
4.68585e-009
4.68623e-009
4.687e-009
4.68923e-009
4.69159e-009
4.69303e-009
4.69278e-009
4.69266e-009
4.69399e-009
4.69672e-009
4.6984e-009
4.69888e-009
4.69926e-009
4.7007e-009
4.70388e-009
4.70602e-009
4.70742e-009
4.70886e-009
4.71095e-009
4.71282e-009
4.71454e-009
4.71584e-009
4.71735e-009
4.71808e-009
4.71832e-009
4.71905e-009
4.72098e-009
4.72224e-009
4.72395e-009
4.72601e-009
4.72691e-009
4.72879e-009
4.73052e-009
4.73214e-009
4.7337e-009
4.73526e-009
4.73678e-009
4.73829e-009
4.73973e-009
4.74114e-009
4.74256e-009
4.74403e-009
4.74553e-009
4.74708e-009
4.74862e-009
4.75017e-009
4.75164e-009
4.75314e-009
4.7546e-009
4.75607e-009
4.7575e-009
4.75892e-009
4.76034e-009
4.76174e-009
4.76308e-009
4.76447e-009
4.76579e-009
4.76715e-009
4.76847e-009
4.76978e-009
4.77112e-009
4.77236e-009
4.77367e-009
4.77488e-009
4.77616e-009
4.77726e-009
4.77859e-009
4.77966e-009
4.78076e-009
4.78222e-009
4.78306e-009
4.78458e-009
4.78504e-009
4.78638e-009
4.78665e-009
4.78767e-009
4.78868e-009
4.78988e-009
4.79114e-009