/*--------------------------------*- C++ -*----------------------------------*\
| =========                 |                                                 |
| \\      /  F ield         | OpenFOAM: The Open Source CFD Toolbox           |
|  \\    /   O peration     | Version:  5.x                                   |
|   \\  /    A nd           | Web:      www.OpenFOAM.org                      |
|    \\/     M anipulation  |                                                 |
\*---------------------------------------------------------------------------*/
/*   Windows 32 and 64 bit porting by blueCAPE: http://www.bluecape.com.pt   *\
|  Based on Windows porting (2.0.x v4) by Symscape: http://www.symscape.com   |
\*---------------------------------------------------------------------------*/
FoamFile
{
    version     2.0;
    format      ascii;
    class       volScalarField;
    location    "310";
    object      k;
}
// * * * * * * * * * * * * * * * * * * * * * * * * * * * * * * * * * * * * * //

dimensions      [0 2 -2 0 0 0 0];

internalField   nonuniform List<scalar> 
43900
(
0.000985518
0.000989436
0.000990249
0.000990178
0.000990128
0.000990116
0.000990121
0.000990121
0.000990122
0.000990125
0.000990123
0.000990127
0.00099013
0.000990132
0.000990134
0.000990132
0.000990133
0.000990137
0.000990136
0.000990137
0.000990137
0.000990136
0.000990139
0.000990139
0.000990139
0.00099014
0.00099014
0.000990139
0.000990141
0.00164914
5.60087e-005
3.89326e-005
3.81759e-005
4.08116e-005
4.09677e-005
4.09895e-005
4.09573e-005
4.09567e-005
4.09614e-005
4.09598e-005
4.09651e-005
4.09703e-005
4.0974e-005
4.09766e-005
4.09748e-005
4.09773e-005
4.09828e-005
4.0982e-005
4.09833e-005
4.09833e-005
4.09826e-005
4.09866e-005
4.09873e-005
4.09868e-005
4.09892e-005
4.09883e-005
4.09877e-005
4.09907e-005
0.294389
0.0539902
0.00409945
0.000117739
5.00286e-006
3.08376e-006
2.97856e-006
3.34486e-006
3.3811e-006
3.37561e-006
3.37015e-006
3.37028e-006
3.37208e-006
3.37357e-006
3.37397e-006
3.37441e-006
3.37568e-006
3.37631e-006
3.37651e-006
3.37711e-006
3.37728e-006
3.37778e-006
3.37853e-006
3.37863e-006
3.37897e-006
3.3793e-006
3.37918e-006
3.37957e-006
3.38005e-006
0.87977
0.376429
0.119898
0.0237789
0.00207199
8.22958e-005
3.99674e-006
5.90084e-007
4.57756e-007
4.98864e-007
5.33689e-007
5.3622e-007
5.31372e-007
5.30194e-007
5.31078e-007
5.31432e-007
5.31359e-007
5.31446e-007
5.31668e-007
5.318e-007
5.31877e-007
5.32034e-007
5.3215e-007
5.32185e-007
5.3229e-007
5.3238e-007
5.32463e-007
5.32581e-007
5.32624e-007
1.28974
0.739122
0.39478
0.176496
0.0560827
0.0102987
0.000822171
3.74991e-005
1.7017e-006
2.30038e-007
1.28821e-007
1.26584e-007
1.44843e-007
1.48096e-007
1.45305e-007
1.45012e-007
1.45989e-007
1.4597e-007
1.45752e-007
1.45787e-007
1.45808e-007
1.45815e-007
1.45857e-007
1.45913e-007
1.45952e-007
1.45969e-007
1.45981e-007
1.46007e-007
1.46033e-007
1.54658
0.983907
0.616646
0.369801
0.198696
0.0831708
0.0231431
0.00327705
0.000212287
1.03567e-005
5.52272e-007
9.7517e-008
5.39847e-008
5.49327e-008
6.18026e-008
6.16214e-008
5.95131e-008
5.99038e-008
6.04925e-008
6.04379e-008
6.04967e-008
6.05849e-008
6.05558e-008
6.05324e-008
6.05495e-008
6.05677e-008
6.0587e-008
6.06063e-008
6.06141e-008
1.71233
1.15111
0.774331
0.514805
0.331341
0.198706
0.100518
0.0350473
0.00707237
0.000652508
3.66901e-005
1.96642e-006
1.3825e-007
3.98602e-008
2.8924e-008
3.15787e-008
3.49309e-008
3.35588e-008
3.28822e-008
3.31483e-008
3.3061e-008
3.30168e-008
3.31117e-008
3.31655e-008
3.31424e-008
3.31267e-008
3.31347e-008
3.31409e-008
3.31439e-008
1.81063
1.25804
0.879884
0.615077
0.425205
0.285892
0.181482
0.102294
0.043144
0.0112626
0.00143769
9.71033e-005
5.62832e-006
3.48914e-007
4.24501e-008
2.13666e-008
1.89289e-008
2.15903e-008
2.19475e-008
2.12799e-008
2.14924e-008
2.15496e-008
2.14415e-008
2.14571e-008
2.15336e-008
2.15479e-008
2.15432e-008
2.15478e-008
2.15514e-008
1.87653
1.33522
0.95898
0.691922
0.49822
0.354716
0.246218
0.162708
0.0976069
0.046694
0.0140607
0.00219642
0.000175217
1.12047e-005
7.2542e-007
6.21223e-008
1.96483e-008
1.44757e-008
1.51478e-008
1.63663e-008
1.57845e-008
1.56869e-008
1.57347e-008
1.56774e-008
1.56033e-008
1.56473e-008
1.56798e-008
1.56794e-008
1.56803e-008
1.90297
1.37692
1.0077
0.743243
0.54986
0.405549
0.29569
0.210446
0.143158
0.0893569
0.0463271
0.0152282
0.00269795
0.000245447
1.72886e-005
1.20785e-006
9.75089e-008
1.86926e-008
1.20485e-008
1.13201e-008
1.24331e-008
1.23839e-008
1.23474e-008
1.2431e-008
1.23984e-008
1.23063e-008
1.23037e-008
1.23336e-008
1.23417e-008
1.90287
1.39351
1.03328
0.773676
0.582855
0.439838
0.330557
0.245447
0.17794
0.123526
0.0791798
0.0431359
0.0149222
0.00284532
0.000285679
2.21295e-005
1.68714e-006
1.39319e-007
2.03897e-008
1.10726e-008
9.35393e-009
9.94434e-009
1.0108e-008
1.00722e-008
1.01647e-008
1.02474e-008
1.01844e-008
1.01273e-008
1.01374e-008
1.89385
1.4009
1.04976
0.79508
0.606922
0.465346
0.356863
0.272209
0.204953
0.150601
0.106028
0.0691406
0.0387365
0.0138849
0.00277432
0.000301898
2.56809e-005
2.14197e-006
1.8773e-007
2.43601e-008
1.00012e-008
8.15411e-009
8.31744e-009
8.5117e-009
8.3773e-009
8.43558e-009
8.58947e-009
8.60853e-009
8.57147e-009
1.87185
1.39676
1.05595
0.807481
0.623033
0.483685
0.376572
0.292797
0.226133
0.172182
0.127827
0.0908814
0.059875
0.0339491
0.0123783
0.00253059
0.000293453
2.72588e-005
2.47946e-006
2.33655e-007
2.8732e-008
9.49023e-009
7.37198e-009
7.118e-009
7.3641e-009
7.28321e-009
7.21032e-009
7.27806e-009
7.35526e-009
1.8392
1.38308
1.05372
0.812298
0.632379
0.495978
0.390803
0.308345
0.24261
0.189335
0.145468
0.108822
0.0778516
0.0515175
0.0292266
0.0104569
0.00212289
0.000258251
2.61536e-005
2.60242e-006
2.65882e-007
3.29164e-008
9.38632e-009
6.91087e-009
6.35264e-009
6.57652e-009
6.5223e-009
6.39943e-009
6.41726e-009
1.79827
1.36127
1.04459
0.811048
0.636276
0.503361
0.400605
0.319842
0.255334
0.202973
0.159799
0.123666
0.0930232
0.0667724
0.0441828
0.0248956
0.00858774
0.00171648
0.000219806
2.43785e-005
2.66358e-006
2.96653e-007
3.81265e-008
9.76091e-009
6.5191e-009
5.92582e-009
6.07549e-009
6.05779e-009
5.9815e-009
1.75074
1.33331
1.02944
0.804846
0.63575
0.506779
0.406789
0.328037
0.265007
0.213762
0.171448
0.135981
0.105839
0.0799146
0.0574256
0.0378666
0.0210169
0.00700226
0.00138436
0.000187344
2.26525e-005
2.70228e-006
3.27441e-007
4.42852e-008
1.04705e-008
6.27461e-009
5.60091e-009
5.68007e-009
5.76772e-009
1.69811
1.30055
1.00991
0.794263
0.631691
0.506877
0.409951
0.333427
0.272074
0.22211
0.180795
0.146119
0.116599
0.0911447
0.0689613
0.0494925
0.0323925
0.0175295
0.00563509
0.0011079
0.000158623
2.08136e-005
2.70254e-006
3.55203e-007
5.09733e-008
1.14044e-008
6.12841e-009
5.29819e-009
5.33546e-009
1.6416
1.26406
0.986929
0.780561
0.624457
0.504552
0.410831
0.336709
0.277143
0.228549
0.188307
0.154488
0.12566
0.10076
0.0789978
0.0598008
0.0427733
0.0276821
0.014471
0.00449318
0.000887398
0.000135417
1.93062e-005
2.72378e-006
3.87497e-007
5.90163e-008
1.27106e-008
6.06481e-009
5.06921e-009
1.58205
1.2246
0.961188
0.764334
0.614933
0.499821
0.409752
0.338214
0.280603
0.233508
0.194429
0.16153
0.133442
0.109139
0.0878548
0.069017
0.0522126
0.0371634
0.0237213
0.0118844
0.00358253
0.000720151
0.00011755
1.81516e-005
2.76968e-006
4.24614e-007
6.85066e-008
1.44052e-008
6.12569e-009
1.52014
1.18278
0.933199
0.746026
0.603502
0.493348
0.406952
0.338083
0.282533
0.237025
0.199203
0.16731
0.140038
0.116402
0.0956602
0.0772543
0.0607692
0.045908
0.0324789
0.0203974
0.00971407
0.00286635
0.000591629
0.00010329
1.72313e-005
2.84495e-006
4.70937e-007
8.08862e-008
1.66765e-008
1.45646
1.1391
0.903389
0.726003
0.590487
0.48543
0.402799
0.336872
0.283416
0.239548
0.203011
0.172146
0.14571
0.122763
0.102593
0.0846585
0.0685496
0.0539642
0.0406901
0.0286004
0.0176642
0.00793432
0.00231038
0.000494656
9.26326e-005
1.66941e-005
2.97469e-006
5.30234e-007
9.50759e-008
1.39149
1.09394
0.872084
0.704533
0.576105
0.476228
0.397434
0.33438
0.283159
0.241021
0.205849
0.176082
0.150539
0.128329
0.108773
0.0913489
0.0756617
0.0614112
0.0483781
0.0364143
0.0254452
0.0155025
0.0065291
0.00188474
0.000420936
8.44883e-005
1.63772e-005
3.13197e-006
5.84107e-007
1.32569
1.04769
0.83958
0.68186
0.560562
0.46593
0.391054
0.330974
0.282096
0.241694
0.207914
0.179264
0.154633
0.13318
0.114257
0.0973696
0.0821342
0.0682586
0.0555225
0.0437674
0.0328931
0.0228626
0.0137369
0.00548067
0.00158618
0.000370804
7.9323e-005
1.64474e-005
3.28862e-006
1.25946
1.00066
0.806151
0.658202
0.544031
0.454669
0.383741
0.326655
0.280066
0.241501
0.209177
0.181698
0.158028
0.137371
0.119117
0.102795
0.0880401
0.074571
0.0621715
0.0506802
0.0399843
0.030018
0.0207712
0.0122995
0.00480404
0.00140489
0.000342428
7.74333e-005
1.66445e-005
1.19322
0.953194
0.772054
0.633771
0.526687
0.442595
0.37564
0.321595
0.277374
0.240705
0.209828
0.18353
0.160829
0.140979
0.123406
0.107665
0.0934102
0.0803702
0.068336
0.0571473
0.0466863
0.0368733
0.0276678
0.0190722
0.0111094
0.00431583
0.00128704
0.000327351
7.62094e-005
1.12735
0.90559
0.737537
0.608764
0.508689
0.429835
0.366845
0.315841
0.273979
0.239152
0.209768
0.184702
0.16301
0.144002
0.12714
0.112005
0.0982717
0.0856825
0.0740372
0.0631798
0.0529923
0.043389
0.034315
0.0257467
0.0176883
0.0101646
0.00395879
0.00121143
0.000314434
1.0622
0.858139
0.702835
0.583373
0.490195
0.416519
0.35747
0.309506
0.270025
0.237093
0.209267
0.185413
0.164726
0.14656
0.13041
0.115887
0.102682
0.0905544
0.0793117
0.0688042
0.0589157
0.0495586
0.0406715
0.0322175
0.0241838
0.0165785
0.00942867
0.0037052
0.00113996
0.998101
0.811111
0.668166
0.557775
0.471348
0.402765
0.34761
0.302662
0.265546
0.234493
0.208172
0.185541
0.165894
0.148598
0.133188
0.119299
0.106643
0.0949941
0.084171
0.074031
0.0644622
0.055378
0.0467144
0.0384282
0.0304959
0.0229126
0.015689
0.00887248
0.00345506
0.93536
0.764748
0.633727
0.532133
0.452285
0.388689
0.337364
0.295397
0.260632
0.231457
0.206657
0.185304
0.166683
0.150252
0.13558
0.122327
0.110224
0.0990597
0.0886632
0.0788998
0.0696622
0.0608666
0.0524488
0.0443625
0.0365783
0.0290822
0.0218744
0.0150167
0.00828548
0.874228
0.719261
0.599694
0.50659
0.433124
0.374388
0.326816
0.287782
0.255342
0.228034
0.204755
0.184665
0.167078
0.151523
0.137599
0.124991
0.113451
0.102781
0.0928204
0.0834431
0.0745472
0.0660522
0.0578954
0.0500298
0.0424229
0.0350555
0.0279222
0.0210445
0.0144294
0.814928
0.674834
0.566217
0.481272
0.413969
0.359951
0.316038
0.279881
0.249729
0.224266
0.202489
0.183629
0.16708
0.152425
0.139266
0.12732
0.116355
0.10619
0.0966764
0.0876952
0.0791508
0.0709669
0.0630831
0.0554531
0.0480432
0.0408315
0.0338079
0.0269779
0.0203771
0.757638
0.631619
0.533423
0.456284
0.394908
0.345452
0.305096
0.271749
0.243846
0.220207
0.199929
0.182321
0.166847
0.153067
0.140666
0.129379
0.118994
0.109339
0.100279
0.0917012
0.0835162
0.0756517
0.0680501
0.0606666
0.0534674
0.0464293
0.0395393
0.0327961
0.0262148
0.702505
0.58974
0.501417
0.431713
0.376012
0.330949
0.294038
0.263428
0.237729
0.215886
0.197093
0.180726
0.166302
0.15342
0.141794
0.131182
0.121389
0.112258
0.103663
0.0954991
0.0876835
0.0801478
0.0728376
0.0657098
0.0587318
0.05188
0.0451397
0.038506
0.0319826
0.649643
0.549297
0.470283
0.407628
0.357341
0.316492
0.282905
0.254952
0.231405
0.211327
0.194
0.178863
0.165478
0.153493
0.142661
0.132742
0.12356
0.11497
0.106856
0.0991211
0.0916884
0.0844938
0.0774861
0.0706245
0.0638774
0.0572219
0.0506428
0.044133
0.0376923
0.59914
0.510372
0.440091
0.38409
0.338943
0.302118
0.271726
0.246344
0.224894
0.206549
0.190671
0.176762
0.164431
0.153368
0.143327
0.134106
0.125545
0.117509
0.109891
0.102602
0.0955678
0.0887292
0.0820376
0.0754541
0.0689488
0.0624993
0.0560906
0.0497148
0.0433703
0.551064
0.473031
0.4109
0.361147
0.320856
0.287859
0.260527
0.237623
0.218208
0.201558
0.187109
0.174422
0.163149
0.153015
0.143778
0.135274
0.127353
0.119893
0.112793
0.10597
0.0993549
0.0928917
0.086534
0.0802444
0.0739942
0.0677618
0.0615325
0.0552986
0.0490582
0.505468
0.43733
0.382764
0.338845
0.303119
0.273744
0.249326
0.228801
0.211354
0.196356
0.183311
0.171833
0.161612
0.152399
0.143988
0.136228
0.128977
0.122121
0.115569
0.109242
0.103075
0.0970142
0.0910151
0.0850415
0.079065
0.0730646
0.067026
0.0609418
0.0548106
0.462396
0.403321
0.355732
0.31723
0.285769
0.259801
0.238144
0.21989
0.204337
0.190941
0.179272
0.168989
0.159818
0.151537
0.143959
0.136967
0.130412
0.124193
0.118223
0.112428
0.106746
0.101124
0.0955176
0.089891
0.0842151
0.0784685
0.0726368
0.0667126
0.0606957
0.421883
0.371055
0.329858
0.29635
0.268847
0.246064
0.227006
0.210905
0.197163
0.185313
0.174982
0.165875
0.15775
0.150415
0.143709
0.137486
0.131648
0.126096
0.120746
0.115526
0.110375
0.105239
0.100072
0.0948357
0.0894996
0.0840398
0.0784402
0.0726929
0.0667981
0.383962
0.340581
0.305197
0.276259
0.252403
0.232573
0.215943
0.201869
0.189846
0.179475
0.170438
0.162477
0.155384
0.148988
0.143146
0.137718
0.132635
0.127791
0.123107
0.118514
0.113949
0.109359
0.104693
0.0999081
0.0949689
0.0898462
0.0845197
0.0789785
0.0732219
0.34866
0.311951
0.28181
0.257021
0.236497
0.219383
0.205002
0.192819
0.182412
0.173444
0.165644
0.158792
0.152705
0.147234
0.142251
0.137638
0.133332
0.129229
0.125255
0.121343
0.11743
0.113457
0.109369
0.105117
0.100655
0.095944
0.090956
0.0856721
0.080087
0.316001
0.285215
0.259764
0.238708
0.221202
0.206565
0.194248
0.183814
0.174912
0.16726
0.16063
0.154834
0.149716
0.145148
0.14102
0.13724
0.133697
0.130354
0.127125
0.123945
0.120747
0.11747
0.11405
0.110429
0.106548
0.102355
0.0978032
0.0928605
0.0875099
0.285998
0.260425
0.23913
0.221405
0.20661
0.194212
0.183775
0.174942
0.167427
0.160996
0.155457
0.150654
0.146453
0.142746
0.139438
0.136446
0.133674
0.131108
0.128648
0.126236
0.123808
0.121298
0.118639
0.115758
0.112582
0.109037
0.105055
0.100577
0.0955647
0.258662
0.237632
0.219989
0.20521
0.192831
0.182443
0.173703
0.166326
0.160079
0.154767
0.150234
0.146348
0.142998
0.140094
0.137556
0.135317
0.13332
0.131476
0.129773
0.128138
0.126509
0.12482
0.122997
0.120959
0.118616
0.115868
0.112616
0.108765
0.104238
0.233992
0.216885
0.202424
0.190234
0.179995
0.171403
0.16419
0.158129
0.153032
0.148739
0.145121
0.142067
0.139489
0.137313
0.135474
0.133921
0.132605
0.13146
0.130483
0.129602
0.128766
0.127914
0.126973
0.125855
0.124455
0.122648
0.120296
0.117259
0.113401
0.211983
0.198231
0.186522
0.176595
0.168247
0.161257
0.155417
0.150546
0.146491
0.14312
0.140324
0.138015
0.136121
0.134583
0.133356
0.1324
0.131682
0.131177
0.130827
0.13063
0.130537
0.130494
0.130429
0.130265
0.129888
0.129132
0.127834
0.125806
0.122823
0.192613
0.181707
0.172366
0.164413
0.157738
0.152182
0.147583
0.143794
0.140686
0.138149
0.13609
0.134437
0.133133
0.132137
0.131417
0.130951
0.130718
0.13072
0.130899
0.131289
0.131847
0.132533
0.133296
0.134061
0.134712
0.135067
0.134929
0.134121
0.132223
0.175843
0.167331
0.160019
0.153792
0.148606
0.144346
0.140883
0.13809
0.135855
0.134079
0.132683
0.131604
0.130801
0.130246
0.129926
0.129832
0.129958
0.130317
0.130914
0.13174
0.132806
0.134093
0.135568
0.137176
0.138817
0.140326
0.141468
0.141856
0.141186
0.161598
0.155085
0.149512
0.1448
0.140955
0.137888
0.135485
0.133633
0.132223
0.131162
0.130377
0.129811
0.129434
0.129231
0.129207
0.129354
0.129709
0.130295
0.131117
0.132221
0.133627
0.135344
0.137367
0.139669
0.142186
0.144776
0.147212
0.149041
0.149635
0.14976
0.144907
0.140825
0.13746
0.134844
0.1329
0.13152
0.130591
0.129997
0.129646
0.129461
0.129383
0.12939
0.129459
0.12962
0.1299
0.130342
0.130993
0.131906
0.13313
0.134687
0.136632
0.138992
0.14178
0.14498
0.148495
0.152158
0.155459
0.157722
0.140161
0.136677
0.133884
0.131735
0.130274
0.129424
0.129073
0.1291
0.129368
0.129776
0.130209
0.130627
0.131008
0.131354
0.131688
0.132051
0.132504
0.133116
0.133964
0.135124
0.136652
0.138604
0.141053
0.144064
0.147675
0.151858
0.156571
0.16127
0.165498
0.132582
0.130229
0.128562
0.127537
0.127195
0.127455
0.12819
0.129258
0.130483
0.131761
0.132991
0.134088
0.135008
0.135747
0.13633
0.136807
0.137257
0.13777
0.138446
0.139391
0.140698
0.142454
0.144756
0.147695
0.151376
0.155857
0.161296
0.167128
0.173546
0.126775
0.125356
0.124692
0.124736
0.125513
0.126947
0.128871
0.131124
0.133555
0.135998
0.138314
0.140391
0.142158
0.14359
0.144701
0.145539
0.146182
0.14673
0.147303
0.148039
0.14906
0.150491
0.152453
0.155094
0.158549
0.162961
0.168635
0.17507
0.183747
0.122474
0.121836
0.122086
0.123168
0.125117
0.127813
0.131105
0.13482
0.138759
0.142731
0.146565
0.150113
0.153269
0.155972
0.158209
0.16001
0.161443
0.162609
0.163631
0.164626
0.165751
0.167177
0.169016
0.171482
0.174637
0.178841
0.184314
0.191149
0.201396
0.11942
0.11944
0.120544
0.122678
0.125855
0.129966
0.134852
0.140317
0.146153
0.152146
0.158093
0.163814
0.169163
0.174042
0.178405
0.18226
0.185661
0.188705
0.191518
0.194238
0.197014
0.199981
0.203275
0.207211
0.21155
0.217207
0.222941
0.2325
0.240487
0.11737
0.117953
0.119883
0.123085
0.127583
0.133268
0.139983
0.147536
0.155716
0.1643
0.17307
0.181824
0.19039
0.198645
0.206526
0.214031
0.22122
0.228213
0.235177
0.242316
0.249858
0.258083
0.267218
0.2776
0.288847
0.303239
0.315708
0.34236
0.340478
0.116105
0.117177
0.119919
0.124218
0.130129
0.137546
0.146331
0.156311
0.167291
0.179062
0.191409
0.204135
0.217069
0.230093
0.243158
0.25629
0.269603
0.283295
0.297653
0.313047
0.32994
0.348904
0.37064
0.396154
0.425912
0.4642
0.503232
0.579822
0.574576
0.115443
0.116939
0.120489
0.125916
0.13332
0.142611
0.153684
0.166402
0.180607
0.196126
0.212784
0.23042
0.248908
0.268178
0.288245
0.309225
0.331351
0.354988
0.380648
0.409011
0.440981
0.477695
0.520779
0.572271
0.635158
0.715394
0.814716
0.969646
1.01132
0.115264
0.117122
0.121492
0.128062
0.137028
0.148313
0.161858
0.177579
0.195378
0.215151
0.2368
0.260247
0.285461
0.312487
0.341477
0.372717
0.406659
0.443951
0.485482
0.532429
0.586407
0.649456
0.72477
0.815973
0.930698
1.07606
1.27558
1.53213
1.72088
0.000990141
0.000990142
0.000990146
0.000990147
0.000990142
0.000990137
0.000990142
0.000990151
0.000990155
0.000990148
0.00099014
0.000990141
0.000990154
0.00099016
0.000990153
0.00099014
0.000990135
0.00099014
0.000990141
0.000990136
0.000990128
0.000990127
0.000990134
0.00099014
0.000990142
0.000990144
0.000990145
0.000990138
0.000990131
0.00099013
0.000990133
0.000990144
0.000990146
0.000990145
0.000990145
0.000990145
0.000990144
0.000990144
0.000990144
0.000990144
0.000990145
0.000990145
0.000990145
0.000990146
0.000990146
0.000990146
0.000990146
0.000990146
0.000990147
0.000990147
0.000990147
0.000990147
0.000990147
0.000990148
0.000990148
0.000990148
0.000990149
0.000990149
0.000990149
0.00099015
0.00099015
0.00099015
0.000990151
0.000990151
0.000990152
0.000990152
0.000990153
0.000990153
0.000990153
0.000990153
0.000990154
0.000990155
0.000990154
0.000990155
0.000990155
0.000990156
0.000990154
0.000990154
0.000990155
0.000990153
0.000990155
0.000990154
0.000990155
0.000990157
0.000990158
0.000990157
0.000990154
0.000990155
0.000990156
0.000990157
0.000990159
0.000990159
0.000990159
0.000990159
0.000990159
0.000990159
0.000990159
0.000990159
0.000990159
0.000990159
0.000990159
0.000990159
0.000990159
0.000990159
0.000990158
0.000990159
0.000990158
0.000990158
0.000990158
0.000990158
0.000990158
0.000990158
0.000990158
0.000990158
0.000990157
0.000990157
0.000990157
0.000990157
0.000990157
0.000990157
0.000990157
0.000990157
0.000990157
0.000990157
0.000990158
0.000990158
0.000990158
0.000990159
0.000990159
0.00099016
0.00099016
0.000990162
0.000990162
0.000990166
0.000990164
0.000990169
0.000990166
0.000990177
0.00100815
4.09905e-005
4.09918e-005
4.09979e-005
4.09992e-005
4.09908e-005
4.09859e-005
4.09941e-005
4.1007e-005
4.10103e-005
4.09995e-005
4.09886e-005
4.09927e-005
4.10106e-005
4.10181e-005
4.10068e-005
4.0989e-005
4.09835e-005
4.09909e-005
4.0992e-005
4.09843e-005
4.09744e-005
4.09747e-005
4.09845e-005
4.09921e-005
4.09946e-005
4.09976e-005
4.09986e-005
4.09891e-005
4.09794e-005
4.09778e-005
4.09825e-005
4.0998e-005
4.1e-005
4.09993e-005
4.0999e-005
4.09988e-005
4.09987e-005
4.09987e-005
4.09987e-005
4.09988e-005
4.09991e-005
4.09997e-005
4.10003e-005
4.10007e-005
4.1001e-005
4.10015e-005
4.10018e-005
4.10021e-005
4.10024e-005
4.10027e-005
4.1003e-005
4.10033e-005
4.10037e-005
4.10041e-005
4.10046e-005
4.10052e-005
4.10057e-005
4.10064e-005
4.1007e-005
4.10076e-005
4.10083e-005
4.10087e-005
4.10096e-005
4.10099e-005
4.10107e-005
4.1011e-005
4.1012e-005
4.10121e-005
4.10133e-005
4.10133e-005
4.10135e-005
4.10151e-005
4.10142e-005
4.10153e-005
4.10151e-005
4.10164e-005
4.10148e-005
4.10147e-005
4.10152e-005
4.10123e-005
4.10153e-005
4.10143e-005
4.10157e-005
4.1019e-005
4.10202e-005
4.10184e-005
4.10147e-005
4.10166e-005
4.10169e-005
4.10193e-005
4.10214e-005
4.10219e-005
4.10219e-005
4.10218e-005
4.10217e-005
4.10217e-005
4.10217e-005
4.10216e-005
4.10216e-005
4.10216e-005
4.10215e-005
4.10215e-005
4.10214e-005
4.10214e-005
4.10212e-005
4.10212e-005
4.1021e-005
4.1021e-005
4.10208e-005
4.10206e-005
4.10204e-005
4.10202e-005
4.10198e-005
4.10194e-005
4.1019e-005
4.10185e-005
4.10181e-005
4.10178e-005
4.10179e-005
4.10179e-005
4.10182e-005
4.10182e-005
4.10184e-005
4.10187e-005
4.1019e-005
4.10191e-005
4.10197e-005
4.10201e-005
4.10204e-005
4.10219e-005
4.10226e-005
4.1025e-005
4.10247e-005
4.10317e-005
4.10275e-005
4.10347e-005
4.10422e-005
4.10639e-005
4.4285e-005
3.3801e-006
3.38069e-006
3.38111e-006
3.38037e-006
3.37966e-006
3.38071e-006
3.3825e-006
3.38289e-006
3.38159e-006
3.37998e-006
3.38043e-006
3.38243e-006
3.38371e-006
3.38254e-006
3.38061e-006
3.38033e-006
3.38146e-006
3.38262e-006
3.38239e-006
3.38219e-006
3.38285e-006
3.38366e-006
3.38429e-006
3.384e-006
3.38403e-006
3.38424e-006
3.38426e-006
3.3837e-006
3.38355e-006
3.38387e-006
3.38483e-006
3.38545e-006
3.38503e-006
3.38513e-006
3.38534e-006
3.38547e-006
3.38558e-006
3.38569e-006
3.38581e-006
3.38596e-006
3.38612e-006
3.38625e-006
3.38628e-006
3.38627e-006
3.38631e-006
3.38645e-006
3.38659e-006
3.38679e-006
3.38691e-006
3.38708e-006
3.3872e-006
3.38734e-006
3.38748e-006
3.38761e-006
3.38775e-006
3.38792e-006
3.38801e-006
3.38818e-006
3.38828e-006
3.38844e-006
3.38857e-006
3.38868e-006
3.38886e-006
3.38892e-006
3.38909e-006
3.38917e-006
3.38934e-006
3.38935e-006
3.38956e-006
3.38957e-006
3.38964e-006
3.38989e-006
3.38965e-006
3.38995e-006
3.38985e-006
3.39e-006
3.38995e-006
3.38983e-006
3.39e-006
3.38984e-006
3.39004e-006
3.38986e-006
3.39013e-006
3.39046e-006
3.3906e-006
3.39061e-006
3.39059e-006
3.39084e-006
3.39078e-006
3.39103e-006
3.3912e-006
3.39142e-006
3.39154e-006
3.39159e-006
3.3916e-006
3.39165e-006
3.39158e-006
3.39165e-006
3.39161e-006
3.39161e-006
3.3916e-006
3.39158e-006
3.39155e-006
3.39151e-006
3.39149e-006
3.39143e-006
3.3914e-006
3.39132e-006
3.39127e-006
3.39118e-006
3.39111e-006
3.39099e-006
3.39092e-006
3.39076e-006
3.39066e-006
3.39048e-006
3.39037e-006
3.39023e-006
3.39019e-006
3.39011e-006
3.39007e-006
3.38998e-006
3.38991e-006
3.38987e-006
3.38978e-006
3.38968e-006
3.38969e-006
3.38944e-006
3.38943e-006
3.38974e-006
3.38917e-006
3.38981e-006
3.3897e-006
3.38998e-006
3.38931e-006
3.40322e-006
3.26615e-006
3.08547e-006
8.73924e-006
5.32694e-007
5.32819e-007
5.32839e-007
5.32831e-007
5.32985e-007
5.33236e-007
5.33289e-007
5.33121e-007
5.33014e-007
5.33143e-007
5.3345e-007
5.33584e-007
5.3347e-007
5.33298e-007
5.33229e-007
5.33387e-007
5.33637e-007
5.33826e-007
5.33975e-007
5.34053e-007
5.34069e-007
5.34037e-007
5.34036e-007
5.34183e-007
5.34321e-007
5.34382e-007
5.34391e-007
5.34346e-007
5.3428e-007
5.34262e-007
5.34352e-007
5.34458e-007
5.34639e-007
5.34701e-007
5.34761e-007
5.34809e-007
5.34856e-007
5.34903e-007
5.3495e-007
5.34997e-007
5.35039e-007
5.35067e-007
5.35083e-007
5.35109e-007
5.35156e-007
5.35217e-007
5.35279e-007
5.35348e-007
5.35404e-007
5.35463e-007
5.35516e-007
5.3557e-007
5.35621e-007
5.35671e-007
5.35722e-007
5.35773e-007
5.35815e-007
5.35864e-007
5.35905e-007
5.35953e-007
5.35995e-007
5.36038e-007
5.36084e-007
5.36122e-007
5.36166e-007
5.36205e-007
5.36243e-007
5.36283e-007
5.36322e-007
5.36352e-007
5.3639e-007
5.36436e-007
5.36457e-007
5.36518e-007
5.36529e-007
5.36556e-007
5.36583e-007
5.36614e-007
5.36658e-007
5.36665e-007
5.36743e-007
5.36753e-007
5.36804e-007
5.36827e-007
5.36858e-007
5.36886e-007
5.36901e-007
5.36942e-007
5.36966e-007
5.37e-007
5.37038e-007
5.37077e-007
5.37116e-007
5.37143e-007
5.37162e-007
5.37193e-007
5.37189e-007
5.37221e-007
5.37223e-007
5.37234e-007
5.37241e-007
5.37243e-007
5.37244e-007
5.37238e-007
5.37237e-007
5.37222e-007
5.37222e-007
5.37195e-007
5.37183e-007
5.37153e-007
5.37131e-007
5.37086e-007
5.37064e-007
5.37018e-007
5.36992e-007
5.36944e-007
5.36905e-007
5.36857e-007
5.36819e-007
5.36778e-007
5.36733e-007
5.36678e-007
5.36626e-007
5.36575e-007
5.36513e-007
5.36436e-007
5.36381e-007
5.36318e-007
5.36246e-007
5.36041e-007
5.36551e-007
5.35875e-007
5.35442e-007
5.45291e-007
5.39049e-007
4.61252e-007
1.2383e-006
0.0001456
0.0137104
1.46079e-007
1.46116e-007
1.46135e-007
1.46162e-007
1.46187e-007
1.46204e-007
1.46216e-007
1.46245e-007
1.46292e-007
1.46325e-007
1.46327e-007
1.46332e-007
1.46345e-007
1.46363e-007
1.46391e-007
1.46443e-007
1.4652e-007
1.46576e-007
1.4659e-007
1.46598e-007
1.4661e-007
1.46662e-007
1.46717e-007
1.4677e-007
1.46779e-007
1.4679e-007
1.46783e-007
1.4676e-007
1.46764e-007
1.46806e-007
1.46858e-007
1.46933e-007
1.46956e-007
1.46977e-007
1.47011e-007
1.47042e-007
1.4707e-007
1.47097e-007
1.47123e-007
1.47148e-007
1.47171e-007
1.47191e-007
1.47212e-007
1.47237e-007
1.47266e-007
1.47294e-007
1.47322e-007
1.4735e-007
1.47377e-007
1.47404e-007
1.47431e-007
1.47457e-007
1.47483e-007
1.47508e-007
1.47533e-007
1.47558e-007
1.47581e-007
1.47605e-007
1.47628e-007
1.47651e-007
1.47674e-007
1.47697e-007
1.47719e-007
1.47741e-007
1.47764e-007
1.47785e-007
1.47807e-007
1.47828e-007
1.4785e-007
1.4787e-007
1.4789e-007
1.47916e-007
1.47932e-007
1.47963e-007
1.47971e-007
1.47994e-007
1.48002e-007
1.48019e-007
1.48037e-007
1.48055e-007
1.48078e-007
1.48086e-007
1.48106e-007
1.48122e-007
1.48145e-007
1.48146e-007
1.48162e-007
1.48183e-007
1.48186e-007
1.48202e-007
1.48217e-007
1.48229e-007
1.48238e-007
1.48251e-007
1.48262e-007
1.48274e-007
1.48279e-007
1.4829e-007
1.48294e-007
1.48301e-007
1.48305e-007
1.48308e-007
1.4831e-007
1.4831e-007
1.4831e-007
1.48306e-007
1.48304e-007
1.48294e-007
1.48288e-007
1.48275e-007
1.48264e-007
1.48244e-007
1.4823e-007
1.4821e-007
1.48194e-007
1.48174e-007
1.48153e-007
1.4813e-007
1.48108e-007
1.48086e-007
1.48061e-007
1.48034e-007
1.48006e-007
1.47978e-007
1.47945e-007
1.47912e-007
1.47926e-007
1.47784e-007
1.47466e-007
1.48393e-007
1.46376e-007
1.48054e-007
1.50659e-007
1.1882e-007
1.35581e-007
1.1199e-006
0.000124259
0.00888448
0.129253
6.06244e-008
6.06439e-008
6.06511e-008
6.06552e-008
6.06681e-008
6.06968e-008
6.07217e-008
6.07319e-008
6.07272e-008
6.07293e-008
6.07505e-008
6.07803e-008
6.07946e-008
6.07972e-008
6.08021e-008
6.08214e-008
6.08592e-008
6.08839e-008
6.0902e-008
6.092e-008
6.09464e-008
6.09649e-008
6.09839e-008
6.09958e-008
6.10117e-008
6.10187e-008
6.10225e-008
6.10353e-008
6.10568e-008
6.10684e-008
6.10891e-008
6.11095e-008
6.11212e-008
6.11418e-008
6.1161e-008
6.11794e-008
6.11973e-008
6.12151e-008
6.12326e-008
6.125e-008
6.12666e-008
6.1283e-008
6.12998e-008
6.13166e-008
6.13335e-008
6.13512e-008
6.13691e-008
6.13869e-008
6.14037e-008
6.14207e-008
6.14374e-008
6.14541e-008
6.14704e-008
6.14867e-008
6.15028e-008
6.15189e-008
6.15342e-008
6.155e-008
6.15651e-008
6.15807e-008
6.15959e-008
6.16108e-008
6.16263e-008
6.16405e-008
6.16555e-008
6.16693e-008
6.16843e-008
6.16964e-008
6.1712e-008
6.1724e-008
6.17364e-008
6.17532e-008
6.17629e-008
6.17798e-008
6.17853e-008
6.17996e-008
6.18037e-008
6.18147e-008
6.18255e-008
6.18394e-008
6.18539e-008
6.18586e-008
6.18707e-008
6.188e-008
6.18968e-008
6.18987e-008
6.19073e-008
6.19174e-008
6.19248e-008
6.19327e-008
6.19365e-008
6.19475e-008
6.19582e-008
6.19672e-008
6.19728e-008
6.19774e-008
6.19809e-008
6.19851e-008
6.19881e-008
6.19912e-008
6.19935e-008
6.19954e-008
6.19965e-008
6.19971e-008
6.19971e-008
6.19961e-008
6.19953e-008
6.19923e-008
6.19897e-008
6.1985e-008
6.19805e-008
6.19736e-008
6.19668e-008
6.19582e-008
6.19497e-008
6.19393e-008
6.1928e-008
6.1915e-008
6.19023e-008
6.18888e-008
6.1874e-008
6.18574e-008
6.18399e-008
6.18203e-008
6.17996e-008
6.17537e-008
6.15864e-008
6.1812e-008
6.21873e-008
6.03078e-008
6.36433e-008
6.13818e-008
5.41574e-008
1.31295e-007
3.54621e-006
0.000241507
0.00930218
0.10332
0.469866
3.31588e-008
3.31714e-008
3.31731e-008
3.31812e-008
3.3197e-008
3.32106e-008
3.32151e-008
3.32157e-008
3.32207e-008
3.32352e-008
3.3254e-008
3.32622e-008
3.32622e-008
3.32642e-008
3.32762e-008
3.32977e-008
3.33124e-008
3.33249e-008
3.33426e-008
3.33628e-008
3.33832e-008
3.33917e-008
3.33936e-008
3.34e-008
3.34107e-008
3.3421e-008
3.34344e-008
3.34513e-008
3.34627e-008
3.34712e-008
3.34824e-008
3.34904e-008
3.35059e-008
3.35215e-008
3.35358e-008
3.35495e-008
3.35624e-008
3.35752e-008
3.35879e-008
3.36007e-008
3.36134e-008
3.36261e-008
3.36384e-008
3.36508e-008
3.36638e-008
3.36764e-008
3.3688e-008
3.37004e-008
3.37136e-008
3.37269e-008
3.37396e-008
3.37521e-008
3.37643e-008
3.37763e-008
3.37883e-008
3.38003e-008
3.38118e-008
3.38235e-008
3.38347e-008
3.38462e-008
3.38573e-008
3.38683e-008
3.38793e-008
3.38898e-008
3.39004e-008
3.39107e-008
3.39207e-008
3.39306e-008
3.39404e-008
3.39498e-008
3.39588e-008
3.39695e-008
3.39785e-008
3.39891e-008
3.39955e-008
3.40043e-008
3.40107e-008
3.40183e-008
3.40263e-008
3.40346e-008
3.40444e-008
3.40517e-008
3.40582e-008
3.40656e-008
3.40734e-008
3.40784e-008
3.40847e-008
3.40908e-008
3.40968e-008
3.41019e-008
3.41084e-008
3.41179e-008
3.41241e-008
3.41278e-008
3.41306e-008
3.41348e-008
3.41381e-008
3.41418e-008
3.41442e-008
3.41466e-008
3.41483e-008
3.41496e-008
3.41504e-008
3.41507e-008
3.41507e-008
3.41499e-008
3.41495e-008
3.41482e-008
3.41468e-008
3.41446e-008
3.41424e-008
3.41391e-008
3.41355e-008
3.41304e-008
3.41254e-008
3.41189e-008