/*--------------------------------*- C++ -*----------------------------------*\
| =========                 |                                                 |
| \\      /  F ield         | OpenFOAM: The Open Source CFD Toolbox           |
|  \\    /   O peration     | Version:  5.x                                   |
|   \\  /    A nd           | Web:      www.OpenFOAM.org                      |
|    \\/     M anipulation  |                                                 |
\*---------------------------------------------------------------------------*/
/*   Windows 32 and 64 bit porting by blueCAPE: http://www.bluecape.com.pt   *\
|  Based on Windows porting (2.0.x v4) by Symscape: http://www.symscape.com   |
\*---------------------------------------------------------------------------*/
FoamFile
{
    version     2.0;
    format      ascii;
    class       volScalarField;
    location    "310";
    object      nut;
}
// * * * * * * * * * * * * * * * * * * * * * * * * * * * * * * * * * * * * * //

dimensions      [0 2 -1 0 0 0 0];

internalField   nonuniform List<scalar> 
43900
(
5.71599e-005
5.80008e-005
5.80695e-005
5.80643e-005
5.80596e-005
5.80586e-005
5.8059e-005
5.8059e-005
5.8059e-005
5.80593e-005
5.80592e-005
5.80594e-005
5.80597e-005
5.80598e-005
5.806e-005
5.80599e-005
5.80599e-005
5.80602e-005
5.80602e-005
5.80602e-005
5.80602e-005
5.80602e-005
5.80604e-005
5.80604e-005
5.80604e-005
5.80605e-005
5.80604e-005
5.80604e-005
5.80605e-005
0.000591446
7.39272e-006
4.30795e-006
4.16123e-006
4.57992e-006
4.6061e-006
4.60921e-006
4.60401e-006
4.60387e-006
4.6044e-006
4.60426e-006
4.60484e-006
4.60543e-006
4.60587e-006
4.60616e-006
4.60597e-006
4.6063e-006
4.60691e-006
4.60682e-006
4.60698e-006
4.60698e-006
4.60692e-006
4.60737e-006
4.60745e-006
4.60741e-006
4.60768e-006
4.60756e-006
4.60751e-006
4.60786e-006
0.15345
0.0456174
0.0052239
0.000108668
1.3165e-006
6.44571e-007
6.01807e-007
7.1422e-007
7.25164e-007
7.23458e-007
7.21718e-007
7.2169e-007
7.22143e-007
7.22485e-007
7.22559e-007
7.22658e-007
7.2293e-007
7.23054e-007
7.23104e-007
7.23233e-007
7.23269e-007
7.2338e-007
7.23535e-007
7.23551e-007
7.23626e-007
7.23695e-007
7.23677e-007
7.23765e-007
7.23863e-007
0.475799
0.291693
0.133959
0.0386557
0.00464109
0.000179302
4.21558e-006
2.55997e-007
1.74058e-007
1.93789e-007
2.13855e-007
2.15372e-007
2.12493e-007
2.11763e-007
2.12253e-007
2.12425e-007
2.12343e-007
2.12373e-007
2.12476e-007
2.12526e-007
2.12557e-007
2.12619e-007
2.12661e-007
2.12677e-007
2.12721e-007
2.12755e-007
2.12786e-007
2.12829e-007
2.12844e-007
0.757017
0.581667
0.414171
0.249166
0.10692
0.0267579
0.0027146
0.000131466
3.09773e-006
2.14093e-007
9.05372e-008
8.41361e-008
1.02445e-007
1.06022e-007
1.03081e-007
1.02759e-007
1.03764e-007
1.03728e-007
1.03487e-007
1.03513e-007
1.03524e-007
1.03518e-007
1.03549e-007
1.03593e-007
1.03618e-007
1.03626e-007
1.03634e-007
1.03654e-007
1.03673e-007
0.966613
0.798556
0.642249
0.490462
0.338574
0.187843
0.0683509
0.0125215
0.000948687
4.76176e-005
1.43291e-006
1.54235e-007
6.39053e-008
6.11851e-008
7.2602e-008
7.24816e-008
6.8821e-008
6.9488e-008
7.04958e-008
7.03902e-008
7.04855e-008
7.06234e-008
7.05628e-008
7.05119e-008
7.05372e-008
7.0566e-008
7.05917e-008
7.06112e-008
7.06159e-008
1.12625
0.963928
0.815618
0.675061
0.537232
0.398141
0.25489
0.113282
0.0293627
0.00327061
0.000200521
1.04984e-005
3.93775e-007
8.24638e-008
4.93086e-008
5.36544e-008
6.26969e-008
5.91326e-008
5.72563e-008
5.79458e-008
5.77041e-008
5.75714e-008
5.78168e-008
5.79459e-008
5.78755e-008
5.78299e-008
5.78394e-008
5.78472e-008
5.78533e-008
1.24275
1.08498
0.942433
0.809562
0.681729
0.555148
0.427128
0.297495
0.162082
0.0531443
0.00826852
0.000617779
3.73512e-005
2.0253e-006
1.33647e-007
5.61218e-008
4.28092e-008
5.135e-008
5.33285e-008
5.09732e-008
5.17212e-008
5.19389e-008
5.15439e-008
5.15844e-008
5.18485e-008
5.18957e-008
5.18707e-008
5.188e-008
5.18889e-008
1.33898
1.18482
1.04647
0.918887
0.797873
0.679923
0.562219
0.442655
0.319327
0.192244
0.0720561
0.0137332
0.00122288
8.25133e-005
5.30473e-006
3.16856e-007
7.30869e-008
4.65573e-008
4.6128e-008
5.21487e-008
4.94319e-008
4.88637e-008
4.90945e-008
4.88445e-008
4.84825e-008
4.86807e-008
4.88265e-008
4.88104e-008
4.88082e-008
1.4022
1.25399
1.12113
0.999675
0.885679
0.775814
0.667305
0.557893
0.445796
0.329887
0.210385
0.08524
0.0183248
0.00186329
0.000138457
9.89597e-006
6.93678e-007
8.21398e-008
4.96757e-008
4.16282e-008
4.75706e-008
4.78282e-008
4.75098e-008
4.78928e-008
4.77303e-008
4.72166e-008
4.71835e-008
4.73449e-008
4.73837e-008
1.44617
1.30076
1.17285
1.05662
0.948688
0.845867
0.745448
0.645164
0.543194
0.438201
0.329465
0.217402
0.0918544
0.0210673
0.0023529
0.000191592
1.50623e-005
1.16793e-006
1.17581e-007
5.69391e-008
4.1707e-008
4.42415e-008
4.5983e-008
4.57984e-008
4.63615e-008
4.69235e-008
4.64911e-008
4.60762e-008
4.61397e-008
1.48483
1.34246
1.2171
1.10433
1.00038
0.902437
0.807902
0.714564
0.620585
0.52452
0.425361
0.322638
0.216834
0.0950057
0.0225642
0.00270734
0.000240816
2.06952e-005
1.77219e-006
1.79716e-007
5.72437e-008
4.47617e-008
4.29405e-008
4.45918e-008
4.35854e-008
4.3913e-008
4.50736e-008
4.523e-008
4.49254e-008
1.51234
1.37341
1.25086
1.14182
1.0417
0.948021
0.85842
0.770791
0.68335
0.594635
0.503523
0.40925
0.311448
0.210184
0.0938896
0.0225269
0.00284836
0.000275053
2.56963e-005
2.41053e-006
2.48392e-007
5.98683e-008
4.60775e-008
4.11867e-008
4.32888e-008
4.29159e-008
4.20836e-008
4.26059e-008
4.33246e-008
1.53078
1.39606
1.27673
1.1701
1.07417
0.984415
0.899194
0.816507
0.734638
0.652148
0.567877
0.480951
0.390768
0.296968
0.199294
0.0861658
0.020283
0.00265967
0.000278873
2.84571e-005
2.9189e-006
3.17089e-007
6.82558e-008
4.89107e-008
4.11133e-008
4.27828e-008
4.26978e-008
4.15556e-008
4.15452e-008
1.54201
1.41092
1.29593
1.19245
1.09883
1.01352
0.932297
0.854013
0.777029
0.699946
0.621608
0.541102
0.457739
0.371046
0.280739
0.186971
0.0764879
0.0174712
0.00238543
0.000273093
3.05674e-005
3.43258e-006
4.04186e-007
8.14494e-008
5.02339e-008
4.29968e-008
4.32624e-008
4.33783e-008
4.30904e-008
1.54752
1.42015
1.30858
1.20947
1.11888
1.03599
0.959136
0.88491
0.81234
0.740075
0.666986
0.592153
0.514861
0.434582
0.350962
0.26383
0.173318
0.0676421
0.0150208
0.00214426
0.000266663
3.25273e-005
3.98211e-006
5.08357e-007
9.83864e-008
5.11128e-008
4.53346e-008
4.4285e-008
4.50451e-008
1.54843
1.42485
1.31675
1.22091
1.13462
1.05438
0.980221
0.910118
0.841617
0.773752
0.705414
0.63569
0.563849
0.489336
0.411746
0.330814
0.246366
0.158087
0.0588401
0.0127802
0.00191266
0.00025726
3.40817e-005
4.5282e-006
6.2648e-007
1.17207e-007
5.31897e-008
4.61529e-008
4.50671e-008
1.54565
1.42593
1.32134
1.22879
1.14571
1.06985
0.998375
0.931303
0.866374
0.802364
0.738218
0.673035
0.606078
0.536766
0.464658
0.389436
0.310861
0.228676
0.142283
0.0504855
0.0108401
0.00171583
0.000249994
3.59078e-005
5.16617e-006
7.67701e-007
1.41312e-007
5.70367e-008
4.77034e-008
1.53982
1.42403
1.323
1.23377
1.15384
1.0811
1.01349
0.949377
0.888342
0.827861
0.767471
0.706309
0.643659
0.578946
0.511716
0.441628
0.368418
0.291858
0.211615
0.126753
0.0430577
0.00927445
0.00156049
0.000245597
3.80815e-005
5.90337e-006
9.35239e-007
1.73452e-007
6.27837e-008
1.53141
1.41963
1.32221
1.23631
1.15952
1.08981
1.02538
0.964108
0.905641
0.848953
0.792337
0.735136
0.676653
0.616321
0.553687
0.488399
0.420185
0.348823
0.274083
0.195559
0.112071
0.0367014
0.00801223
0.0014341
0.000243187
4.07257e-005
6.81037e-006
1.15513e-006
2.16553e-007
1.5208
1.41309
1.31934
1.23681
1.1632
1.09656
1.03519
0.977646
0.922098
0.868437
0.815012
0.761235
0.706422
0.650009
0.591537
0.53064
0.467034
0.400492
0.330814
0.257765
0.180861
0.0980651
0.0311779
0.00697908
0.00133384
0.000243814
4.39977e-005
7.9157e-006
1.40876e-006
1.50824
1.40467
1.31464
1.23549
1.16504
1.10138
1.04289
0.98811
0.935562
0.884608
0.834697
0.784359
0.733137
0.680489
0.625966
0.569209
0.50993
0.447902
0.382939
0.314868
0.243478
0.168385
0.0828463
0.0259701
0.00604371
0.00123849
0.000243696
4.72169e-005
8.8933e-006
1.49394
1.39457
1.3083
1.23257
1.16529
1.10465
1.04909
0.997273
0.94807
0.899954
0.852827
0.805481
0.75745
0.708202
0.657291
0.604356
0.549099
0.491286
0.430727
0.367263
0.300747
0.231012
0.158509
0.0709903
0.0221583
0.00538313
0.00117627
0.000247772
5.02083e-005
1.47808
1.38297
1.30048
1.2282
1.16408
1.1064
1.05366
1.00453
0.957861
0.912573
0.868098
0.824031
0.779231
0.733324
0.685894
0.636594
0.585137
0.53129
0.474862
0.415699
0.353671
0.288668
0.220708
0.149945
0.0644938
0.0200789
0.00505608
0.00116546
0.000254191
1.46084
1.37002
1.29136
1.22253
1.16159
1.10687
1.05695
1.0106
0.96676
0.924572
0.882828
0.841459
0.79942
0.756471
0.712191
0.666229
0.618295
0.568148
0.51559
0.46046
0.402625
0.341977
0.278444
0.211941
0.141653
0.0599
0.0188409
0.00492816
0.00116676
1.44238
1.35588
1.28107
1.21571
1.15793
1.10615
1.05899
1.01526
0.973935
0.934098
0.894833
0.855958
0.816941
0.777059
0.735926
0.693219
0.648665
0.602036
0.553138
0.501809
0.447917
0.391346
0.331999
0.26976
0.204288
0.134745
0.0566082
0.0181459
0.0048272
1.42285
1.3407
1.26976
1.20787
1.15324
1.10438
1.05996
1.01886
0.980123
0.942934
0.906631
0.870326
0.834038
0.796648
0.758201
0.718369
0.67687
0.633466
0.587953
0.540161
0.489948
0.43719
0.38178
0.323601
0.262458
0.197943
0.129246
0.054384
0.0174454
1.40241
1.32462
1.25756
1.19913
1.14765
1.10167
1.05995
1.0214
0.985107
0.950288
0.916266
0.88218
0.848146
0.813594
0.778004
0.741089
0.702597
0.662309
0.620032
0.575601
0.528871
0.479716
0.428023
0.373681
0.316551
0.2564
0.192764
0.125153
0.0519447
1.3812
1.30777
1.24458
1.18961
1.14126
1.09815
1.05908
1.02305
0.989168
0.956707
0.925027
0.89357
0.861808
0.829776
0.796664
0.762349
0.726584
0.689152
0.649863
0.608549
0.565062
0.51927
0.471057
0.42031
0.366912
0.310701
0.251458
0.188999
0.11986
1.35932
1.29025
1.23093
1.17941
1.13417
1.0939
1.05746
1.0239
0.99239
0.962246
0.93289
0.903863
0.874429
0.844627
0.813885
0.782053
0.748879
0.714149
0.677673
0.639286
0.598838
0.556195
0.511237
0.463852
0.413928
0.361341
0.305956
0.247498
0.186159
1.33686
1.27215
1.21668
1.16859
1.12645
1.08899
1.05516
1.02403
0.99483
0.966906
0.939689
0.912666
0.885306
0.85768
0.829456
0.800134
0.769511
0.737397
0.703619
0.668018
0.63045
0.59078
0.548887
0.504657
0.457982
0.408755
0.356862
0.302146
0.24461
1.31388
1.2535
1.20186
1.1572
1.11813
1.08347
1.05221
1.0235
0.996594
0.970886
0.945857
0.921074
0.896194
0.870705
0.84461
0.817448
0.789114
0.759403
0.728133
0.695139
0.660272
0.623394
0.58438
0.543112
0.49948
0.45338
0.40471
0.353358
0.299148
1.2904
1.23432
1.1865
1.14523
1.10921
1.07734
1.04865
1.02233
0.997703
0.974189
0.951308
0.928661
0.905934
0.882631
0.858722
0.83376
0.807686
0.780306
0.751441
0.720932
0.688627
0.65439
0.618091
0.579609
0.538833
0.495656
0.449978
0.401697
0.350649
1.26641
1.21458
1.17055
1.13265
1.09968
1.07057
1.04443
1.02051
0.998145
0.976809
0.95604
0.935447
0.914675
0.89335
0.871509
0.848918
0.825188
0.800159
0.773678
0.745596
0.71577
0.684067
0.650358
0.61452
0.576439
0.536008
0.493123
0.447685
0.399563
1.24186
1.19424
1.15395
1.1194
1.08944
1.06309
1.0395
1.01797
0.99788
0.978735
0.960106
0.941629
0.922991
0.903919
0.884186
0.863666
0.842103
0.819316
0.795136
0.769408
0.741986
0.712732
0.681514
0.648207
0.612691
0.574855
0.534594
0.491806
0.446382
1.21667
1.1732
1.1366
1.10536
1.0784
1.05479
1.03375
1.01461
0.996814
0.979882
0.963424
0.947106
0.930653
0.913859
0.896279
0.877995
0.85855
0.837956
0.816033
0.792617
0.767552
0.740691
0.711897
0.681036
0.647984
0.612623
0.574842
0.534539
0.491614
1.19076
1.15136
1.1184
1.09042
1.06642
1.04554
1.02704
1.0103
0.994806
0.980111
0.965848
0.951704
0.937405
0.922703
0.907335
0.891291
0.874199
0.855945
0.836371
0.815322
0.792643
0.768185
0.741803
0.713356
0.682712
0.649744
0.614335
0.576379
0.53578
1.16403
1.12862
1.09923
1.07445
1.05337
1.03518
1.01921
1.00487
0.991688
0.979251
0.967217
0.955288
0.943199
0.930693
0.917474
0.903692
0.889076
0.873279
0.856165
0.837583
0.817379
0.795398
0.771483
0.745484
0.717254
0.686655
0.653559
0.61785
0.579437
1.13644
1.10491
1.07899
1.05734
1.03912
1.02358
1.0101
0.998151
0.987281
0.977118
0.967342
0.957679
0.947888
0.937759
0.927129
0.915642
0.90336
0.890018
0.875431
0.859423
0.841819
0.822444
0.801122
0.777682
0.751954
0.723778
0.693007
0.659512
0.623192
1.10797
1.08019
1.05764
1.03903
1.02359
1.01064
0.999612
0.990014
0.981439
0.973545
0.966037
0.958662
0.9512
0.943456
0.935269
0.926225
0.916726
0.905915
0.893975
0.880692
0.865865
0.849291
0.830768
0.81009
0.787055
0.761466
0.733143
0.701925
0.667692
1.07873
1.05455
1.03523
1.01955
1.0068
0.996367
0.987724
0.980427
0.974107
0.968448
0.963185
0.958085
0.952944
0.947571
0.941772
0.935261
0.928251
0.920349
0.911318
0.900993
0.889181
0.87567
0.860228
0.842614
0.82258
0.799876
0.774266
0.745538
0.713525
1.04894
1.02819
1.01196
0.999089
0.988928
0.980919
0.974583
0.969516
0.965379
0.961889
0.958802
0.955912
0.953034
0.950005
0.946675
0.942942
0.9382
0.933125
0.927053
0.919818
0.911219
0.901026
0.888979
0.874794
0.858166
0.838775
0.816304
0.790458
0.760991
1.01899
1.00149
0.988206
0.978017
0.970341
0.964662
0.960541
0.957606
0.955545
0.954099
0.953051
0.952217
0.95144
0.950584
0.949519
0.94811
0.945935
0.943742
0.940501
0.936356
0.93107
0.924387
0.916015
0.905627
0.892855
0.877295
0.858527
0.836135
0.80975
0.989479
0.975034
0.964546
0.956924
0.951628
0.948179
0.946159
0.945215
0.945055
0.945439
0.946173
0.947104
0.948108
0.949088
0.949956
0.950637
0.951089
0.950746
0.950341
0.949245
0.94727
0.944173
0.939657
0.933367
0.924877
0.913691
0.899264
0.881034
0.858457
0.961191
0.949604
0.941765
0.936593
0.933571
0.932224
0.932138
0.93296
0.934403
0.936241
0.938308
0.940487
0.942708
0.944928
0.947121
0.949264
0.951323
0.952963
0.954941
0.956557
0.957669
0.958042
0.957384
0.955354
0.951484
0.945161
0.935711
0.922429
0.904534
0.935053
0.926121
0.920781
0.917931
0.917036
0.917596
0.919162
0.921359
0.92389
0.926543
0.929189
0.931775
0.934304
0.936831
0.939406
0.942091
0.944925
0.948083
0.951711
0.955487
0.959256
0.962752
0.965714
0.967931
0.968927
0.967837
0.96387
0.956369
0.944178
0.912035
0.905542
0.902524
0.901811
0.902808
0.904931
0.907661
0.91057
0.913341
0.915792
0.917857
0.919588
0.921096
0.92261
0.924246
0.926216
0.92898
0.933173
0.93733
0.942427
0.948261
0.954262
0.960508
0.966705
0.972396
0.977011
0.978559
0.977833
0.972703
0.892993
0.888689
0.887746
0.88888
0.891363
0.894474
0.897573
0.900163
0.901904
0.902694
0.902561
0.901748
0.900469
0.89935
0.899093
0.89995
0.90161
0.904625
0.908492
0.913559
0.920161
0.927986
0.936897
0.946651
0.956846
0.966886
0.97564
0.982026
0.983467
0.878482
0.876061
0.876838
0.879358
0.882693
0.885918
0.888238
0.889095
0.888118
0.88542
0.881111
0.875938
0.870989
0.866549
0.862654
0.859713
0.858313
0.858734
0.86061
0.86474
0.871216
0.879879
0.890585
0.903166
0.917329
0.932597
0.948064
0.962872
0.973638
0.868599
0.867684
0.869691
0.872949
0.87626
0.878452
0.878543
0.87603
0.870381
0.862512
0.853133
0.842488
0.831262
0.820349
0.810495
0.802239
0.79615
0.792591
0.791876
0.794239
0.799465
0.807737
0.81897
0.83315
0.85016
0.869783
0.891397
0.914106
0.937679
0.862922
0.863073
0.865706
0.868906
0.871159
0.871046
0.867349
0.859996
0.84872
0.834364
0.816963
0.798022
0.778741
0.760351
0.743679
0.729391
0.718005
0.709853
0.705213
0.704276
0.706952
0.713136
0.722976
0.736728
0.754484
0.776443
0.802529
0.832094
0.868278
0.860598
0.86135
0.863963
0.866274
0.866449
0.862925
0.85443
0.841232
0.822452
0.799505
0.773782
0.746787
0.719846
0.694146
0.670601
0.649883
0.632491
0.618746
0.608859
0.603023
0.601175
0.603235
0.609276
0.619615
0.634685
0.655191
0.68215
0.714517
0.761283
0.860554
0.861478
0.863492
0.864209
0.861646
0.853878
0.840104
0.819624
0.793475
0.763101
0.730046
0.695938
0.66224
0.630162
0.600577
0.574068
0.550986
0.53154
0.515875
0.504174
0.496253
0.491962
0.491586
0.495565
0.504321
0.518579
0.540445
0.566955
0.617357
0.861756
0.862518
0.863531
0.862321
0.856496
0.844436
0.824909
0.798437
0.766067
0.729518
0.690663
0.651249
0.612733
0.576215
0.542437
0.511837
0.484623
0.46087
0.440566
0.423597
0.40988
0.399332
0.391901
0.388071
0.387928
0.392187
0.404334
0.417462
0.461365
0.863398
0.863799
0.863699
0.8604
0.851568
0.835349
0.811344
0.780104
0.743145
0.702442
0.66001
0.617607
0.576607
0.537968
0.502279
0.46983
0.440705
0.414854
0.392148
0.3724
0.355531
0.341065
0.328779
0.319242
0.311609
0.306932
0.307506
0.305495
0.329072
0.86498
0.864983
0.863839
0.85874
0.84734
0.828154
0.800932
0.766623
0.727022
0.68426
0.640385
0.597099
0.55566
0.516893
0.481264
0.448961
0.41999
0.39424
0.371533
0.351657
0.334399
0.319766
0.307126
0.296565
0.286547
0.279746
0.273243
0.267676
0.264587
0.866273
0.865958
0.864052
0.857699
0.844699
0.823731
0.794807
0.759127
0.718644
0.675544
0.63184
0.589148
0.548622
0.51099
0.47664
0.445713
0.418187
0.393944
0.372811
0.354602
0.339106
0.326258
0.315737
0.3081
0.301134
0.299627
0.293038
0.300373
0.274421
0.867238
0.866769
0.864558
0.857692
0.844117
0.822639
0.793425
0.757797
0.717758
0.675476
0.632907
0.591593
0.552621
0.516667
0.484091
0.455024
0.429453
0.40728
0.388364
0.372562
0.359711
0.349791
0.342514
0.338607
0.336119
0.341143
0.340543
0.362231
0.328035
0.867961
0.867551
0.865571
0.858996
0.845879
0.825051
0.796709
0.762175
0.723427
0.68259
0.641577
0.601896
0.564615
0.530409
0.499644
0.472474
0.44891
0.428888
0.412305
0.399064
0.389063
0.382347
0.37873
0.379087
0.381597
0.392978
0.400078
0.430842
0.399957
5.80605e-005
5.80606e-005
5.80609e-005
5.8061e-005
5.80606e-005
5.80603e-005
5.80606e-005
5.80613e-005
5.80616e-005
5.80611e-005
5.80604e-005
5.80606e-005
5.80615e-005
5.8062e-005
5.80615e-005
5.80605e-005
5.80601e-005
5.80605e-005
5.80605e-005
5.80601e-005
5.80595e-005
5.80595e-005
5.806e-005
5.80605e-005
5.80606e-005
5.80608e-005
5.80608e-005
5.80603e-005
5.80598e-005
5.80597e-005
5.80599e-005
5.80607e-005
5.80609e-005
5.80608e-005
5.80608e-005
5.80608e-005
5.80608e-005
5.80608e-005
5.80608e-005
5.80608e-005
5.80608e-005
5.80608e-005
5.80609e-005
5.80609e-005
5.80609e-005
5.80609e-005
5.80609e-005
5.8061e-005
5.8061e-005
5.8061e-005
5.8061e-005
5.8061e-005
5.8061e-005
5.8061e-005
5.80611e-005
5.80611e-005
5.80611e-005
5.80611e-005
5.80612e-005
5.80612e-005
5.80612e-005
5.80613e-005
5.80613e-005
5.80613e-005
5.80614e-005
5.80614e-005
5.80614e-005
5.80614e-005
5.80615e-005
5.80615e-005
5.80615e-005
5.80616e-005
5.80615e-005
5.80616e-005
5.80616e-005
5.80616e-005
5.80616e-005
5.80616e-005
5.80616e-005
5.80614e-005
5.80616e-005
5.80616e-005
5.80616e-005
5.80618e-005
5.80618e-005
5.80617e-005
5.80615e-005
5.80616e-005
5.80617e-005
5.80618e-005
5.80619e-005
5.80619e-005
5.80619e-005
5.80619e-005
5.80619e-005
5.80619e-005
5.80619e-005
5.80619e-005
5.80619e-005
5.80619e-005
5.80619e-005
5.80619e-005
5.80619e-005
5.80619e-005
5.80619e-005
5.80619e-005
5.80619e-005
5.80619e-005
5.80619e-005
5.80619e-005
5.80618e-005
5.80618e-005
5.80618e-005
5.80618e-005
5.80618e-005
5.80618e-005
5.80617e-005
5.80617e-005
5.80617e-005
5.80617e-005
5.80618e-005
5.80618e-005
5.80618e-005
5.80618e-005
5.80618e-005
5.80618e-005
5.80618e-005
5.80619e-005
5.80619e-005
5.8062e-005
5.8062e-005
5.80621e-005
5.80621e-005
5.80624e-005
5.80623e-005
5.80627e-005
5.80624e-005
5.80633e-005
5.93223e-005
4.60783e-006
4.608e-006
4.60867e-006
4.60876e-006
4.6078e-006
4.60734e-006
4.60831e-006
4.60973e-006
4.61e-006
4.60875e-006
4.60759e-006
4.60815e-006
4.61014e-006
4.61088e-006
4.60955e-006
4.60763e-006
4.6071e-006
4.60795e-006
4.60803e-006
4.60719e-006
4.60616e-006
4.60625e-006
4.60733e-006
4.60811e-006
4.60837e-006
4.6087e-006
4.6088e-006
4.60775e-006
4.60671e-006
4.60657e-006
4.60712e-006
4.6088e-006
4.60898e-006
4.60891e-006
4.60888e-006
4.60887e-006
4.60886e-006
4.60886e-006
4.60886e-006
4.60888e-006
4.60891e-006
4.60898e-006
4.60905e-006
4.60909e-006
4.60912e-006
4.60917e-006
4.6092e-006
4.60925e-006
4.60928e-006
4.60932e-006
4.60935e-006
4.60939e-006
4.60944e-006
4.60949e-006
4.60954e-006
4.60961e-006
4.60967e-006
4.60975e-006
4.60981e-006
4.60989e-006
4.60996e-006
4.61002e-006
4.61011e-006
4.61015e-006
4.61024e-006
4.61027e-006
4.61039e-006
4.61039e-006
4.61054e-006
4.61054e-006
4.61055e-006
4.61074e-006
4.61062e-006
4.61076e-006
4.61073e-006
4.61088e-006
4.6107e-006
4.61067e-006
4.61073e-006
4.61041e-006
4.61074e-006
4.61062e-006
4.61079e-006
4.61116e-006
4.61129e-006
4.6111e-006
4.61069e-006
4.61091e-006
4.61093e-006
4.61121e-006
4.61144e-006
4.6115e-006
4.6115e-006
4.6115e-006
4.61149e-006
4.61148e-006
4.61148e-006
4.61147e-006
4.61147e-006
4.61147e-006
4.61146e-006
4.61145e-006
4.61145e-006
4.61144e-006
4.61143e-006
4.61142e-006
4.61139e-006
4.61139e-006
4.61137e-006
4.61135e-006
4.61132e-006
4.61129e-006
4.61125e-006
4.61121e-006
4.61116e-006
4.6111e-006
4.61106e-006
4.61102e-006
4.61103e-006
4.61103e-006
4.61105e-006
4.61105e-006
4.61108e-006
4.61111e-006
4.61114e-006
4.61115e-006
4.61122e-006
4.61126e-006
4.61129e-006
4.61146e-006
4.61153e-006
4.6118e-006
4.61177e-006
4.61258e-006
4.61208e-006
4.61286e-006
4.61428e-006
4.61742e-006
5.04299e-006
7.23873e-007
7.24e-007
7.24075e-007
7.23916e-007
7.23797e-007
7.24041e-007
7.24406e-007
7.24442e-007
7.24154e-007
7.23847e-007
7.23987e-007
7.2441e-007
7.2463e-007
7.24361e-007
7.23965e-007
7.23944e-007
7.24202e-007
7.24442e-007
7.24409e-007
7.24385e-007
7.24534e-007
7.24692e-007
7.24796e-007
7.24736e-007
7.24753e-007
7.24798e-007
7.24799e-007
7.24693e-007
7.24668e-007
7.24728e-007
7.24922e-007
7.25027e-007
7.24961e-007
7.24985e-007
7.2503e-007
7.25058e-007
7.25082e-007
7.25106e-007
7.25133e-007
7.25165e-007
7.25197e-007
7.25223e-007
7.25227e-007
7.25221e-007
7.25231e-007
7.25262e-007
7.25293e-007
7.25339e-007
7.25367e-007
7.25403e-007
7.2543e-007
7.25462e-007
7.25491e-007
7.25519e-007
7.2555e-007
7.25586e-007
7.25605e-007
7.25642e-007
7.25662e-007
7.25697e-007
7.25722e-007
7.25746e-007
7.25783e-007
7.25797e-007
7.25833e-007
7.25848e-007
7.25884e-007
7.25885e-007
7.2593e-007
7.25932e-007
7.25947e-007
7.25998e-007
7.25948e-007
7.26012e-007
7.2599e-007
7.2602e-007
7.26015e-007
7.25991e-007
7.2603e-007
7.25998e-007
7.26042e-007
7.26006e-007
7.26063e-007
7.26127e-007
7.26155e-007
7.26163e-007
7.26162e-007
7.26213e-007
7.26202e-007
7.26251e-007
7.26283e-007
7.2633e-007
7.26359e-007
7.2637e-007
7.26372e-007
7.26386e-007
7.2637e-007
7.26387e-007
7.26379e-007
7.2638e-007
7.26377e-007
7.26372e-007
7.26367e-007
7.26358e-007
7.26353e-007
7.2634e-007
7.26335e-007
7.26317e-007
7.26306e-007
7.26286e-007
7.26272e-007
7.26245e-007
7.26229e-007
7.26195e-007
7.26175e-007
7.26136e-007
7.26112e-007
7.26081e-007
7.26072e-007
7.26056e-007
7.26045e-007
7.26025e-007
7.26011e-007
7.26001e-007
7.25982e-007
7.25959e-007
7.25961e-007
7.25906e-007
7.25897e-007
7.25969e-007
7.25836e-007
7.25982e-007
7.2597e-007
7.25872e-007
7.25846e-007
7.29955e-007
6.874e-007
6.42777e-007
2.51404e-006
2.12876e-007
2.12925e-007
2.12929e-007
2.12931e-007
2.12998e-007
2.13088e-007
2.13095e-007
2.13027e-007
2.13e-007
2.13064e-007
2.13179e-007
2.13217e-007
2.13158e-007
2.13098e-007
2.13086e-007
2.13158e-007
2.13263e-007
2.13333e-007
2.13388e-007
2.13419e-007
2.13421e-007
2.13416e-007
2.13415e-007
2.13477e-007
2.13524e-007
2.13546e-007
2.13545e-007
2.13524e-007
2.13498e-007
2.13498e-007
2.13534e-007
2.13578e-007
2.13647e-007
2.1367e-007
2.13694e-007
2.13713e-007
2.13732e-007
2.1375e-007
2.13768e-007
2.13786e-007
2.13801e-007
2.13811e-007
2.13816e-007
2.13827e-007
2.13846e-007
2.1387e-007
2.13895e-007
2.13922e-007
2.13944e-007
2.13967e-007
2.13988e-007
2.14009e-007
2.14029e-007
2.14048e-007
2.14068e-007
2.14088e-007
2.14104e-007
2.14123e-007
2.14139e-007
2.14157e-007
2.14173e-007
2.1419e-007
2.14207e-007
2.14222e-007
2.14239e-007
2.14254e-007
2.14268e-007
2.14284e-007
2.14299e-007
2.14311e-007
2.14326e-007
2.14344e-007
2.14353e-007
2.14377e-007
2.14382e-007
2.14393e-007
2.14404e-007
2.14418e-007
2.14434e-007
2.14439e-007
2.14468e-007
2.14473e-007
2.14493e-007
2.14502e-007
2.14513e-007
2.14524e-007
2.14532e-007
2.14548e-007
2.14557e-007
2.14569e-007
2.14583e-007
2.14596e-007
2.1461e-007
2.14621e-007
2.14629e-007
2.14641e-007
2.1464e-007
2.14653e-007
2.14653e-007
2.14658e-007
2.14661e-007
2.14662e-007
2.14663e-007
2.1466e-007
2.1466e-007
2.14654e-007
2.14654e-007
2.14643e-007
2.14638e-007
2.14625e-007
2.14617e-007
2.14598e-007
2.1459e-007
2.14572e-007
2.14561e-007
2.14542e-007
2.14526e-007
2.14507e-007
2.14492e-007
2.14476e-007
2.14459e-007
2.14437e-007
2.14417e-007
2.14398e-007
2.14374e-007
2.14345e-007
2.1432e-007
2.14302e-007
2.14292e-007
2.14152e-007
2.14484e-007
2.14085e-007
2.13811e-007
2.19527e-007
2.15827e-007
1.74977e-007
7.37819e-007
0.00015298
0.00956639
1.03701e-007
1.03724e-007
1.03736e-007
1.03752e-007
1.03769e-007
1.0378e-007
1.03791e-007
1.03813e-007
1.03842e-007
1.03861e-007
1.0386e-007
1.03866e-007
1.03875e-007
1.03888e-007
1.03912e-007
1.03947e-007
1.04001e-007
1.04034e-007
1.04041e-007
1.04049e-007
1.04062e-007
1.04097e-007
1.04134e-007
1.04161e-007
1.04169e-007
1.04174e-007
1.04166e-007
1.04152e-007
1.04163e-007
1.0419e-007
1.04222e-007
1.04267e-007
1.04276e-007
1.04293e-007
1.04317e-007
1.04337e-007
1.04356e-007
1.04374e-007
1.04391e-007
1.04408e-007
1.04423e-007
1.04436e-007
1.04451e-007
1.04468e-007
1.04488e-007
1.04507e-007
1.04525e-007
1.04543e-007
1.04561e-007
1.04579e-007
1.04596e-007
1.04613e-007
1.0463e-007
1.04647e-007
1.04664e-007
1.0468e-007
1.04695e-007
1.04711e-007
1.04726e-007
1.04741e-007
1.04756e-007
1.04772e-007
1.04787e-007
1.04801e-007
1.04816e-007
1.04831e-007
1.04845e-007
1.04859e-007
1.04874e-007
1.04888e-007
1.04901e-007
1.04919e-007
1.04929e-007
1.04951e-007
1.04956e-007
1.04972e-007
1.04977e-007
1.04989e-007
1.05002e-007
1.05015e-007
1.05029e-007
1.05034e-007
1.05047e-007
1.05057e-007
1.05074e-007
1.05074e-007
1.05085e-007
1.05098e-007
1.05099e-007
1.0511e-007
1.05119e-007
1.05125e-007
1.05131e-007
1.0514e-007
1.05147e-007
1.05154e-007
1.05158e-007
1.05164e-007
1.05168e-007
1.05172e-007
1.05175e-007
1.05177e-007
1.05178e-007
1.05178e-007
1.05178e-007
1.05175e-007
1.05174e-007
1.05168e-007
1.05164e-007
1.05155e-007
1.05148e-007
1.05136e-007
1.05126e-007
1.05114e-007
1.05103e-007
1.05089e-007
1.05075e-007
1.0506e-007
1.05045e-007
1.0503e-007
1.05014e-007
1.04996e-007
1.04978e-007
1.04959e-007
1.04936e-007
1.04917e-007
1.04946e-007
1.04812e-007
1.04508e-007
1.05488e-007
1.03389e-007
1.05181e-007
1.07693e-007
7.61355e-008
9.64964e-008
1.3703e-006
0.00019927
0.0100496
0.090282
7.06242e-008
7.0647e-008
7.06532e-008
7.06569e-008
7.06753e-008
7.07087e-008
7.07311e-008
7.07332e-008
7.07259e-008
7.07327e-008
7.07619e-008
7.07903e-008
7.07981e-008
7.0797e-008
7.08028e-008
7.08261e-008
7.08662e-008
7.08914e-008
7.09124e-008
7.09327e-008
7.09627e-008
7.09775e-008
7.09959e-008
7.10041e-008
7.10185e-008
7.10236e-008
7.10289e-008
7.10476e-008
7.10687e-008
7.10768e-008
7.10992e-008
7.11157e-008
7.11294e-008
7.11491e-008
7.11677e-008
7.11861e-008
7.12043e-008
7.12224e-008
7.12402e-008
7.12579e-008
7.12749e-008
7.1292e-008
7.13095e-008
7.13266e-008
7.13433e-008
7.13612e-008
7.13795e-008
7.13977e-008
7.14146e-008
7.14317e-008
7.14486e-008
7.14654e-008
7.1482e-008
7.14983e-008
7.15146e-008
7.15309e-008
7.15463e-008
7.15624e-008
7.15776e-008
7.15935e-008
7.1609e-008
7.1624e-008
7.16399e-008
7.16541e-008
7.16695e-008
7.16833e-008
7.16988e-008
7.17105e-008
7.1727e-008
7.17386e-008
7.17511e-008
7.17681e-008
7.17782e-008
7.17946e-008
7.18005e-008
7.18136e-008
7.18191e-008
7.18293e-008
7.18393e-008
7.18535e-008
7.18683e-008
7.18744e-008
7.18862e-008
7.18966e-008
7.19123e-008
7.19159e-008
7.19243e-008
7.19352e-008
7.19447e-008
7.19516e-008
7.1955e-008
7.19675e-008
7.19791e-008
7.19872e-008
7.19915e-008
7.19952e-008
7.19983e-008
7.20018e-008
7.20045e-008
7.20071e-008
7.2009e-008
7.20104e-008
7.20111e-008
7.20113e-008
7.20108e-008
7.20095e-008
7.20082e-008
7.20052e-008
7.20023e-008
7.19978e-008
7.1993e-008
7.19867e-008
7.19794e-008
7.19706e-008
7.19614e-008
7.19505e-008
7.19385e-008
7.19246e-008
7.19112e-008
7.1897e-008
7.18816e-008
7.18645e-008
7.18467e-008
7.18266e-008
7.18059e-008
7.17428e-008
7.147e-008
7.18876e-008
7.25618e-008
6.93292e-008
7.51362e-008
7.10279e-008
6.31682e-008
2.17604e-007
8.56326e-006
0.000523183
0.0151544
0.111151
0.327241
5.78799e-008
5.78952e-008
5.78967e-008
5.79123e-008
5.79378e-008
5.79522e-008
5.79538e-008
5.79554e-008
5.79685e-008
5.79926e-008
5.80173e-008
5.80227e-008
5.80198e-008
5.80237e-008
5.80483e-008
5.80841e-008
5.81002e-008
5.81153e-008
5.81402e-008
5.81746e-008
5.82055e-008
5.82142e-008
5.82103e-008
5.82152e-008
5.82293e-008
5.82453e-008
5.8267e-008
5.82934e-008
5.83085e-008
5.83211e-008
5.83323e-008
5.83382e-008
5.83605e-008
5.83831e-008
5.84043e-008
5.84239e-008
5.84424e-008
5.84606e-008
5.84787e-008
5.84966e-008
5.85148e-008
5.85327e-008
5.85498e-008
5.85674e-008
5.85862e-008
5.86038e-008
5.8619e-008
5.86356e-008
5.8654e-008
5.86731e-008
5.86912e-008
5.87088e-008
5.8726e-008
5.8743e-008
5.87598e-008
5.87766e-008
5.87927e-008
5.88091e-008
5.88249e-008
5.8841e-008
5.88564e-008
5.8872e-008
5.88871e-008
5.8902e-008
5.89165e-008
5.89311e-008
5.89447e-008
5.89591e-008
5.89722e-008
5.89855e-008
5.89987e-008
5.90122e-008
5.90269e-008
5.90407e-008
5.90514e-008
5.90629e-008
5.9074e-008
5.90854e-008
5.90976e-008
5.9109e-008
5.91216e-008
5.91341e-008
5.91424e-008
5.91512e-008
5.91604e-008
5.91692e-008
5.91792e-008
5.91858e-008
5.9193e-008
5.91998e-008
5.92101e-008
5.92224e-008
5.92292e-008
5.92328e-008
5.92368e-008
5.92431e-008
5.92478e-008
5.92532e-008
5.92566e-008
5.92597e-008
5.92619e-008
5.92634e-008
5.92643e-008
5.92642e-008
5.92639e-008
5.92623e-008
5.92613e-008
5.92592e-008
5.92568e-008
5.92533e-008
5.92497e-008
5.92447e-008
5.92391e-008
5.92312e-008
5.92234e-008
5.92134e-008
5.92028e-008
5.91902e-008
5.91779e-008
5.9165e-008
5.91513e-008
5.91356e-008
5.91203e-008
5.91015e-008
5.90862e-008
5.92284e-008
5.98658e-008
5.87891e-008
5.73813e-008
6.42056e-008
5.43443e-008
5.98919e-008
3.45266e-007
2.17525e-005
0.0011016
0.0241579
0.143344
0.381421
0.638607
5.18963e-008
5.19095e-008
5.19325e-008