/*--------------------------------*- C++ -*----------------------------------*\
| =========                 |                                                 |
| \\      /  F ield         | OpenFOAM: The Open Source CFD Toolbox           |
|  \\    /   O peration     | Version:  5.x                                   |
|   \\  /    A nd           | Web:      www.OpenFOAM.org                      |
|    \\/     M anipulation  |                                                 |
\*---------------------------------------------------------------------------*/
/*   Windows 32 and 64 bit porting by blueCAPE: http://www.bluecape.com.pt   *\
|  Based on Windows porting (2.0.x v4) by Symscape: http://www.symscape.com   |
\*---------------------------------------------------------------------------*/
FoamFile
{
    version     2.0;
    format      ascii;
    class       volScalarField;
    location    "310";
    object      p;
}
// * * * * * * * * * * * * * * * * * * * * * * * * * * * * * * * * * * * * * //

dimensions      [0 2 -2 0 0 0 0];

internalField   nonuniform List<scalar> 
43900
(
0.340505
0.340157
0.340116
0.339988
0.339787
0.339561
0.339358
0.339022
0.33878
0.338455
0.338131
0.337801
0.337454
0.337093
0.336723
0.336344
0.335954
0.335556
0.335149
0.334735
0.334314
0.333885
0.33345
0.333009
0.332563
0.332112
0.331655
0.331194
0.330728
0.338485
0.346567
0.340428
0.343718
0.341204
0.341956
0.341045
0.340868
0.340417
0.339984
0.33958
0.339145
0.33871
0.338281
0.337848
0.337409
0.336968
0.336523
0.336076
0.335624
0.335167
0.334708
0.334244
0.333775
0.333304
0.332826
0.332345
0.331861
0.33137
0.331663
0.353448
0.342357
0.348603
0.343519
0.34609
0.343699
0.344037
0.342948
0.342533
0.341944
0.34138
0.340843
0.340309
0.339781
0.33926
0.338743
0.338232
0.337723
0.337213
0.336709
0.336206
0.3357
0.335197
0.33469
0.334183
0.333677
0.333164
0.332652
0.326912
0.354567
0.34784
0.34764
0.347286
0.346866
0.345779
0.345738
0.344945
0.34457
0.344005
0.343488
0.342966
0.342443
0.341916
0.341391
0.340866
0.340339
0.339809
0.339282
0.338753
0.33822
0.33769
0.337156
0.33662
0.336086
0.335546
0.335007
0.334468
0.329499
0.353325
0.348318
0.347708
0.347685
0.347255
0.34706
0.346826
0.346296
0.345987
0.345552
0.345127
0.344699
0.344252
0.343795
0.343327
0.342848
0.342358
0.341864
0.341355
0.340837
0.340318
0.339785
0.339243
0.338699
0.338145
0.337588
0.337024
0.336449
0.334504
0.352601
0.34956
0.349252
0.349178
0.348768
0.348494
0.348243
0.348022
0.347749
0.347379
0.347032
0.346659
0.346268
0.345864
0.345446
0.345012
0.344567
0.344105
0.343632
0.343152
0.34265
0.342139
0.341624
0.34109
0.340544
0.339992
0.339425
0.338857
0.34077
0.354697
0.352886
0.352353
0.352306
0.352163
0.35183
0.351376
0.351055
0.350821
0.350489
0.35013
0.349763
0.349377
0.348973
0.348554
0.348123
0.347677
0.347217
0.346745
0.346252
0.345753
0.345244
0.344705
0.344155
0.343604
0.343036
0.342454
0.341854
0.347626
0.358857
0.357706
0.357094
0.356916
0.356776
0.356561
0.356209
0.355746
0.355301
0.354956
0.354586
0.35417
0.35374
0.353296
0.352841
0.352361
0.351865
0.351356
0.350828
0.350294
0.349737
0.349153
0.348585
0.348001
0.347372
0.346735
0.346086
0.345425
0.355493
0.364521
0.363817
0.363182
0.362903
0.362692
0.36244
0.36213
0.361734
0.361214
0.36069
0.360267
0.359824
0.359338
0.358837
0.358325
0.357792
0.357237
0.356668
0.356083
0.355471
0.354846
0.354214
0.353544
0.352853
0.35216
0.351475
0.350768
0.350026
0.36474
0.371592
0.371192
0.370551
0.370188
0.369907
0.369596
0.369241
0.368841
0.368371
0.367793
0.367174
0.366641
0.366106
0.36554
0.364955
0.364348
0.363721
0.363076
0.362401
0.361706
0.361003
0.360268
0.359506
0.358744
0.357957
0.35713
0.356289
0.355447
0.374159
0.3801
0.379807
0.379138
0.378709
0.378363
0.377991
0.377574
0.377112
0.376603
0.376027
0.375357
0.374625
0.373969
0.373314
0.372637
0.371944
0.371216
0.370469
0.369699
0.368896
0.368072
0.367222
0.366359
0.365468
0.364543
0.363619
0.362679
0.361688
0.384289
0.389722
0.389479
0.388776
0.38829
0.387887
0.387456
0.386977
0.386449
0.385869
0.385233
0.384528
0.383738
0.382882
0.382075
0.381282
0.380471
0.379645
0.378777
0.377875
0.376971
0.376019
0.375034
0.374032
0.373012
0.371965
0.370885
0.369769
0.368657
0.395579
0.400313
0.400101
0.399376
0.398837
0.398377
0.397889
0.397351
0.396758
0.396108
0.395396
0.394618
0.393763
0.392817
0.391801
0.390821
0.389868
0.388893
0.387895
0.386861
0.385795
0.384706
0.383589
0.382444
0.381264
0.38006
0.378847
0.377591
0.376291
0.40767
0.41187
0.411661
0.41091
0.41032
0.409803
0.409257
0.408656
0.407996
0.407273
0.40648
0.405614
0.40467
0.403637
0.402502
0.401298
0.400133
0.398982
0.397806
0.396602
0.395354
0.394085
0.392779
0.39144
0.390079
0.388663
0.387211
0.38575
0.384268
0.420449
0.424273
0.424051
0.423266
0.422623
0.422047
0.421438
0.42077
0.420037
0.419233
0.418352
0.417387
0.416336
0.415192
0.413947
0.412589
0.411167
0.409768
0.408369
0.406947
0.405506
0.404004
0.402471
0.400924
0.399317
0.39767
0.396042
0.39437
0.39263
0.433856
0.437429
0.437183
0.43636
0.435664
0.435028
0.434357
0.43362
0.432811
0.431926
0.430955
0.429891
0.428731
0.427469
0.426104
0.424624
0.423026
0.421364
0.419721
0.418082
0.416416
0.414737
0.413012
0.411221
0.409424
0.407582
0.405676
0.403763
0.401831
0.447824
0.451237
0.450966
0.450103
0.449355
0.448664
0.447932
0.44713
0.446251
0.445286
0.444228
0.44307
0.441805
0.440431
0.438943
0.437339
0.43561
0.433761
0.431855
0.42996
0.428052
0.426126
0.424137
0.422124
0.420047
0.41791
0.415773
0.413523
0.411244
0.462223
0.465555
0.465256
0.464348
0.463548
0.462801
0.462007
0.461135
0.460179
0.45913
0.457978
0.456715
0.455334
0.453831
0.452201
0.450442
0.44855
0.446517
0.444356
0.442134
0.439903
0.437642
0.435361
0.433012
0.430633
0.428234
0.425711
0.423213
0.420676
0.476963
0.480274
0.479949
0.478993
0.47814
0.477335
0.476477
0.475534
0.474498
0.473358
0.472106
0.470731
0.469226
0.467586
0.465805
0.46388
0.461808
0.459585
0.457203
0.454686
0.452099
0.449517
0.446886
0.444253
0.441595
0.438821
0.436032
0.433167
0.430267
0.49195
0.495286
0.494937
0.493933
0.493029
0.492169
0.491248
0.490235
0.489119
0.487893
0.486544
0.485062
0.483438
0.481666
0.479741
0.477657
0.475414
0.473008
0.470434
0.467689
0.464804
0.461848
0.458874
0.455863
0.452802
0.449658
0.44645
0.443217
0.439906
0.507054
0.510454
0.510081
0.509027
0.508072
0.507157
0.506176
0.505094
0.5039
0.502584
0.501133
0.499539
0.49779
0.49588
0.493803
0.491553
0.489127
0.486523
0.48374
0.480771
0.477613
0.474295
0.470915
0.467472
0.463982
0.46046
0.456883
0.453241
0.449554
0.522177
0.525668
0.525275
0.524171
0.523165
0.522195
0.521152
0.519997
0.51872
0.517312
0.51576
0.514051
0.512176
0.510125
0.507892
0.505471
0.502859
0.500053
0.497053
0.493857
0.490458
0.486845
0.483081
0.479254
0.475341
0.471392
0.467404
0.463347
0.459231
0.537204
0.540812
0.5404
0.539246
0.538189
0.537166
0.536061
0.534837
0.53348
0.531979
0.53032
0.528492
0.526484
0.524287
0.521895
0.5193
0.516498
0.513487
0.510265
0.506833
0.503191
0.499333
0.495252
0.491013
0.486676
0.482244
0.477748
0.473185
0.468517
0.552033
0.55578
0.555351
0.554148
0.553041
0.551964
0.550796
0.549496
0.548051
0.54645
0.544681
0.54273
0.540584
0.538234
0.535672
0.53289
0.529885
0.526652
0.52319
0.519498
0.515578
0.511431
0.50705
0.502436
0.497643
0.492715
0.487711
0.482664
0.477552
0.566569
0.570477
0.570033
0.568781
0.567625
0.566494
0.565261
0.563886
0.562355
0.560655
0.558771
0.556687
0.554394
0.551879
0.549136
0.546157
0.542937
0.539471
0.535757
0.531795
0.527586
0.523132
0.518435
0.51349
0.508308
0.502926
0.497429
0.491822
0.486112
0.580731
0.584821
0.584363
0.583063
0.58186
0.580675
0.579377
0.577923
0.5763
0.574492
0.572484
0.570262
0.567816
0.565132
0.562201
0.559014
0.555567
0.551854
0.547875
0.543628
0.539114
0.534336
0.529299
0.524004
0.518451
0.512648
0.506641
0.500461
0.494126
0.594443
0.598737
0.598267
0.59692
0.595669
0.59443
0.593065
0.59153
0.589812
0.587895
0.585763
0.583399
0.580789
0.577921
0.574786
0.571376
0.567685
0.563708
0.559443
0.55489
0.550049
0.544923
0.539517
0.533837
0.527887
0.521671
0.5152
0.508502
0.501605
0.607648
0.612165
0.611685
0.610292
0.608996
0.607704
0.606273
0.604657
0.602841
0.600809
0.598542
0.596024
0.59324
0.590179
0.58683
0.583183
0.579232
0.574972
0.5704
0.565517
0.560323
0.554823
0.549021
0.542925
0.536544
0.529886
0.522958
0.515773
0.508355
0.620292
0.625052
0.624563
0.623125
0.621785
0.620441
0.618942
0.617242
0.615325
0.613173
0.610768
0.608091
0.605127
0.601863
0.598286
0.594386
0.590156
0.585591
0.580689
0.575448
0.569872
0.563964
0.55773
0.55118
0.544324
0.537174
0.529743
0.52203
0.514089
0.632339
0.637356
0.636859
0.635378
0.633998
0.632603
0.631037
0.629253
0.627233
0.624959
0.622412
0.619569
0.616415
0.612934
0.609113
0.604943
0.600415
0.595523
0.590265
0.584638
0.578646
0.572294
0.565588
0.55854
0.551163
0.543471
0.535483
0.52721
0.518664
0.643758
0.649044
0.648539
0.647019
0.645601
0.644158
0.642526
0.640658
0.638535
0.636137
0.633442
0.630427
0.627073
0.623367
0.619294
0.61484
0.609995
0.604753
0.59911
0.593066
0.586623
0.579786
0.572565
0.564972
0.557023
0.548735
0.540132
0.531235
0.522052
0.654527
0.660091
0.659577
0.658021
0.656569
0.65508
0.653384
0.651432
0.649205
0.646681
0.643835
0.640645
0.637089
0.63315
0.62881
0.624056
0.618875
0.61326
0.607206
0.600713
0.593782
0.58642
0.578636
0.570446
0.561866
0.552921
0.543635
0.534038
0.524151
0.664636
0.670478
0.669955
0.668366
0.666885
0.665354
0.663598
0.661565
0.659235
0.656586
0.65359
0.650221
0.646457
0.642275
0.637657
0.632587
0.627052
0.621043
0.614552
0.607576
0.600119
0.592187
0.58379
0.574945
0.565674
0.556003
0.545962
0.535589
0.524919
0.674079
0.680195
0.679661
0.678045
0.676541
0.674972
0.673158
0.671047
0.668618
0.665845
0.662699
0.659152
0.655175
0.650745
0.645841
0.640446
0.634541
0.628115
0.621158
0.613667
0.605643
0.597093
0.588029
0.578469
0.568438
0.557967
0.547093
0.535859
0.524314
0.682858
0.689238
0.688691
0.687054
0.685532
0.683929
0.682061
0.679876
0.677351
0.674457
0.671162
0.667434
0.663243
0.658564
0.65337
0.647638
0.641349
0.634486
0.627037
0.618997
0.610366
0.60115
0.591361
0.58102
0.570156
0.558805
0.547011
0.534825
0.522306
0.690984
0.697612
0.697048
0.695395
0.693862
0.692232
0.690315
0.68806
0.685443
0.682431
0.67899
0.675084
0.670681
0.665748
0.660256
0.654178
0.64749
0.640171
0.632206
0.623586
0.614307
0.604374
0.593801
0.58261
0.570833
0.558513
0.545703
0.532463
0.518864
0.698469
0.705325
0.704741
0.703081
0.701544
0.69989
0.697929
0.69561
0.692906
0.689783
0.6862
0.68212
0.677505
0.672319
0.666526
0.660094
0.652995
0.645203
0.636697
0.627463
0.617494
0.606792
0.59537
0.583252
0.570475
0.557088
0.543154
0.528748
0.513954
0.705332
0.712394
0.711787
0.710127
0.708592
0.706922
0.704922
0.702545
0.699759
0.696528
0.692809
0.688559
0.683735
0.678296
0.672201
0.665412
0.657895
0.649614
0.640543
0.630663
0.61996
0.608433
0.596093
0.582966
0.569092
0.554529
0.539352
0.523651
0.507532
0.711594
0.718843
0.718208
0.716555
0.715032
0.713349
0.711317
0.708886
0.706025
0.702693
0.698842
0.694425
0.689396
0.683706
0.677311
0.670162
0.662218
0.653436
0.643781
0.633223
0.621744
0.609335
0.596005
0.581778
0.566699
0.550835
0.534277
0.517136
0.499542
0.717277
0.724697
0.72403
0.722394
0.720888
0.7192
0.71714
0.714662
0.711732
0.708304
0.704328
0.699752
0.694524
0.68859
0.681895
0.674386
0.66601
0.656716
0.646457
0.635193
0.622895
0.609546
0.595147
0.57972
0.563314
0.546007
0.527908
0.509155
0.489912
0.722401
0.729991
0.729286
0.727674
0.726193
0.724503
0.722422
0.719903
0.716911
0.713394
0.7093
0.704572
0.699152
0.69298
0.685993
0.678128
0.669322
0.65951
0.648634
0.636639
0.623482
0.609131
0.593579
0.576842
0.558971
0.540056
0.520226
0.499655
0.478555
0.726986
0.734758
0.734008
0.732427
0.730976
0.729291
0.727192
0.724639
0.72159
0.717993
0.713788
0.708916
0.703314
0.696914
0.689646
0.681436
0.672206
0.66188
0.650382
0.637639
0.623587
0.608178
0.591387
0.573222
0.55373
0.533012
0.511226
0.488589
0.465374
0.73105
0.739035
0.738228
0.736684
0.735269
0.733591
0.731481
0.728899
0.725801
0.72213
0.717824
0.71282
0.707048
0.700435
0.692902
0.684362
0.674727
0.663902
0.651788
0.638291
0.623322
0.606807
0.588696
0.568979
0.547695
0.524953
0.50094
0.475931
0.450285
0.734608
0.742859
0.741978
0.740472
0.739097
0.737431
0.735314
0.732709
0.729569
0.725833
0.721438
0.716315
0.710393
0.703589
0.695817
0.686977
0.676966
0.665669
0.652962
0.638726
0.622836
0.605182
0.585681
0.564291
0.541036
0.516021
0.489463
0.461709
0.433232
0.737681
0.746261
0.745281
0.743817
0.742485
0.740833
0.738714
0.736093
0.73292
0.729132
0.724663
0.719443
0.713396
0.706434
0.698461
0.689366
0.679024
0.667304
0.654053
0.639113
0.622321
0.603522
0.582583
0.559417
0.534009
0.506452
0.476983
0.446029
0.414221
0.740294
0.749265
0.748158
0.74674
0.745453
0.743818
0.741704
0.739077
0.735884
0.732061
0.727543
0.722257
0.716124
0.709051
0.700932
0.691643
0.68104
0.668967
0.655243
0.639663
0.622023
0.602109
0.579721
0.554703
0.526978
0.496597
0.463807
0.429107
0.393341
0.742481
0.751892
0.750625
0.749259
0.748021
0.74641
0.744311
0.741694
0.738501
0.734672
0.730141
0.724834
0.71867
0.71155
0.703356
0.693951
0.683176
0.670847
0.656748
0.640633
0.622242
0.601289
0.57749
0.550593
0.520423
0.486934
0.450373
0.411294
0.3708
0.744288
0.754155
0.752697
0.751398
0.750216
0.748638
0.746572
0.743987
0.740827
0.737033
0.73254
0.727272
0.721144
0.714052
0.705871
0.696451
0.685616
0.673154
0.658815
0.642312
0.623315
0.601457
0.576352
0.547614
0.51493
0.478091
0.437287
0.393033
0.346883
0.745766
0.756067
0.754398
0.753189
0.752071
0.750542
0.748533
0.746014
0.74293
0.739222
0.734826
0.729667
0.723658
0.716692
0.708635
0.699324
0.688566
0.676122
0.661707
0.64499
0.625578
0.603007
0.576774
0.546326
0.511163
0.47081
0.425327
0.374942
0.321985
0.74697
0.75765
0.755758
0.754669
0.753628
0.752169
0.750249
0.747834
0.744873
0.741309
0.737082
0.732118
0.726327
0.719597
0.711785
0.702716
0.692177
0.679908
0.665593
0.648859
0.629254
0.606221
0.57913
0.547219
0.509765
0.465867
0.415402
0.357862
0.296678
0.747952
0.758933
0.75682
0.755886
0.754933
0.753569
0.751768
0.749497
0.746707
0.743348
0.73936
0.734669
0.729181
0.722777
0.715305
0.706582
0.696382
0.68443
0.670388
0.653849
0.634306
0.611117
0.58353
0.550544
0.511194
0.46395
0.408471
0.342755
0.271737
0.748755
0.759958
0.757632
0.756885
0.756029
0.75478
0.753125
0.751029
0.748448
0.745333
0.741623
0.73724
0.732087
0.726042
0.718951
0.710627
0.700841
0.689309
0.675683
0.659526
0.640296
0.617273
0.589606
0.55604
0.515392
0.465296
0.4052
0.330541
0.248038
0.749418
0.760776
0.758247
0.757713
0.756955
0.755835
0.754338
0.752431
0.750066
0.747193
0.743749
0.739655
0.734814
0.729103
0.722371
0.714431
0.705057
0.693964
0.680801
0.66512
0.646355
0.623726
0.596321
0.562632
0.52133
0.469058
0.405076
0.321281
0.225661
0.749971
0.76144
0.758719
0.758411
0.757744
0.756755
0.755411
0.753677
0.751502
0.748835
0.74561
0.741748
0.737152
0.7317
0.725246
0.717605
0.708555
0.697815
0.685037
0.669765
0.651428
0.629199
0.602143
0.56851
0.526922
0.472957
0.405666
0.312942
0.202181
0.750373
0.76194
0.759037
0.758949
0.758357
0.757481
0.756264
0.754666
0.752635
0.750116
0.747043
0.743335
0.738894
0.733601
0.727311
0.719844
0.710979
0.700438
0.687871
0.672818
0.654699
0.632643
0.605704
0.571902
0.529878
0.474043
0.403239
0.300495
0.170717
0.750436
0.7621
0.759018
0.75912
0.758565
0.75776
0.756613
0.755088
0.75313
0.750685
0.747685
0.744048
0.739675
0.734446
0.728217
0.720806
0.711991
0.701492
0.688954
0.673901
0.65574
0.633543
0.606344
0.571901
0.528932
0.470414
0.395358
0.278173
0.123704
0.750231
0.761945
0.758692
0.758928
0.758367
0.757571
0.756422
0.754886
0.752914
0.750455
0.74744
0.743789
0.739401
0.734155
0.727902
0.720458
0.711596
0.701026
0.688383
0.673171
0.654776
0.632206
0.604454
0.568991
0.52464
0.462772
0.383234
0.24795
0.0609438
0.75175
0.763412
0.760127
0.760467
0.759967
0.759249
0.758164
0.756673
0.754718
0.752242
0.749181
0.745458
0.740978
0.735623
0.729249
0.721672
0.712662
0.701926
0.689088
0.673636
0.654935
0.631939
0.603595
0.567156
0.521411
0.456744
0.374073
0.22866
0.0147829
0.759744
0.771595
0.768662
0.769276
0.769297
0.769228
0.768888
0.768155
0.766895
0.764995
0.762363
0.758917
0.754576
0.749243
0.742797
0.735077
0.725874
0.71491
0.701823
0.686114
0.667143
0.643903
0.615223
0.578703
0.531896
0.467984
0.383304
0.263445
0.158907
0.330173
0.329529
0.328875
0.328215
0.327549
0.326876
0.326196
0.32551
0.324818
0.32412
0.323416
0.322708
0.321991
0.32127
0.320544
0.319812
0.319076
0.318336
0.31759
0.31684
0.316089
0.315334
0.314576
0.313816
0.313058
0.312309
0.311549
0.310781
0.310019
0.309256
0.308491
0.307728
0.306964
0.306198
0.305434
0.304672
0.30391
0.30315
0.302392
0.301635
0.300881
0.300128
0.299378
0.298632
0.29789
0.29715
0.296415
0.295683
0.294954
0.29423
0.29351
0.292794
0.292083
0.291377
0.290676
0.28998
0.28929
0.288605
0.287926
0.287254
0.286587
0.285927
0.285273
0.284627
0.283987
0.283354
0.282728
0.282111
0.2815
0.280897
0.280303
0.279716
0.279137
0.278568
0.278006
0.277453
0.276908
0.276373
0.275847
0.27533
0.274822
0.274323
0.273835
0.273356
0.272885
0.272426
0.271977
0.271537
0.271108
0.270689
0.270282
0.269885
0.269498
0.269123
0.268759
0.268406
0.268064
0.267733
0.267413
0.267105
0.266807
0.266521
0.266246
0.265982
0.265729
0.265487
0.265256
0.265036
0.264828
0.264629
0.264442
0.264265
0.264098
0.263942
0.263797
0.263662
0.263538
0.263423
0.263318
0.263221
0.263134
0.263056
0.262986
0.262924
0.26287
0.262824
0.262786
0.262756
0.26273
0.262714
0.262704
0.262699
0.262706
0.262711
0.262741
0.262758
0.262822
0.262835
0.262991
0.33079
0.330115
0.32943
0.328743
0.328046
0.327345
0.326637
0.325925
0.325208
0.324485
0.323759
0.323028
0.322294
0.321557
0.320816
0.320074
0.319329
0.31858
0.317832
0.317083
0.31633
0.315574
0.314813
0.314051
0.313277
0.312492
0.311711
0.310939
0.31016
0.309377
0.308592
0.307804
0.307023
0.30625
0.305478
0.304705
0.303933
0.30316
0.302389
0.30162
0.300854
0.30009
0.29933
0.29857
0.297809
0.297048
0.29629
0.295537
0.294789
0.294045
0.293305
0.292571
0.291841
0.291116
0.290396
0.289682
0.288973
0.288271
0.287574
0.286884
0.286201
0.285524
0.284854
0.284191
0.283535
0.282886
0.282245
0.281611
0.280984
0.280367
0.279756
0.279157
0.278565
0.277978
0.277399
0.276831
0.276265
0.275701
0.275145
0.274596
0.27406
0.273535
0.27302
0.272519
0.272034
0.271556
0.271082
0.27062
0.270171
0.269734
0.269314
0.268907
0.268511
0.268125
0.267751
0.267387
0.267035
0.266695
0.266366
0.26605
0.265745
0.265453
0.265172
0.264904
0.264648
0.264404
0.264173
0.263953
0.263746
0.263551
0.263367
0.263196
0.263036
0.262887
0.262749
0.262621
0.262504
0.262398
0.262302
0.262217
0.262141
0.262074
0.262017
0.261969
0.261929
0.261897
0.261872
0.261853
0.261845
0.261831
0.261836
0.261822
0.261841
0.261809
0.261851
0.261806
0.261849
0.261785
0.261742
0.332047
0.331341
0.330634
0.329922
0.329202
0.328478
0.32775
0.327015
0.326275
0.325532
0.324783
0.324028
0.323269
0.322504
0.321735
0.32096
0.32018
0.319396
0.318603
0.317805
0.316999
0.316214
0.315427
0.31462
0.313813
0.313006
0.312208
0.311401
0.310576
0.309756
0.308939
0.30812
0.30729
0.306463
0.305645
0.304831
0.304018
0.303207
0.302397
0.301586
0.300776
0.299965
0.299156
0.298352
0.297555
0.296764
0.295976
0.295189
0.294404
0.293621
0.292841
0.292065
0.291294
0.290526
0.289762
0.289004
0.28825
0.287501
0.286757
0.286018
0.285285
0.284556
0.283834
0.283118
0.282407
0.281703
0.281007
0.28032
0.279641
0.278972
0.278309
0.277658
0.277016
0.276385
0.275765
0.275154
0.274561
0.273984
0.273417
0.272866
0.272322
0.271787
0.271263
0.270746
0.270241
0.26975
0.269271
0.268801
0.26834
0.267891
0.267452
0.267026
0.266612
0.266211
0.265823
0.265448
0.265086
0.264737
0.2644
0.264077
0.263767
0.26347
0.263186
0.262915
0.262658
0.262414
0.262183
0.261966
0.261762
0.261571
0.261394
0.26123
0.26108
0.260944
0.26082
0.260709
0.26061
0.260525
0.260452
0.260393
0.260346
0.260312
0.26029
0.260281
0.260283
0.260297
0.260323
0.260358
0.260407
0.26047
0.260554
0.260609
0.2607
0.260806
0.260816
0.261029
0.260857
0.261379
0.260862
0.333823
0.333081
0.332335
0.331579
0.330819
0.330053
0.329277
0.328495
0.327706
0.326906
0.3261
0.325289
0.324471
0.323644
0.322815
0.32198
0.321138
0.320289
0.319439
0.31859
0.317739
0.316856
0.315972
0.315097
0.314237
0.3134
0.312565
0.311706
0.310836
0.309967
0.309085
0.308211
0.307342
0.306468
0.305592
0.304716
0.303837
0.302956
0.302075
0.301195
0.300315
0.299437
0.298558
0.297681
0.296809
0.295941
0.295078
0.294221
0.293368
0.29252
0.291677
0.290837
0.290003
0.289173
0.288349
0.28753
0.286717
0.285911
0.285111
0.284318
0.283531
0.282752
0.281981
0.281219
0.280467
0.279724
0.27899
0.278265
0.277551
0.276846
0.276152
0.275467
0.274793
0.274135
0.273489
0.272852
0.272228
0.271621
0.271029
0.27044
0.269855
0.269286
0.26873
0.268186
0.267646
0.267116
0.266609
0.266117
0.265638
0.265168
0.264706
0.264253
0.26382
0.263407
0.263007
0.26262
0.262246
0.261885
0.261538
0.261206
0.260887
0.260582
0.260292
0.260017
0.259756
0.259511
0.259279
0.259062
0.25886
0.258671
0.258496
0.258335
0.258188
0.258055
0.257938
0.25784
0.257761
0.257701
0.25766
0.257638
0.257637
0.257656
0.257695
0.257755
0.257836
0.25794
0.258057
0.258198
0.258367
0.258525
0.258689
0.259042
0.258956
0.259776
0.258955
0.260973
0.258814
0.262474
0.258186
0.335769
0.33498
0.334175
0.333366
0.332551
0.331723
0.330886
0.330041
0.329192
0.328339
0.327476
0.326607
0.325732
0.324853
0.323964
0.323065
0.322192
0.321316
0.320403
0.319477
0.318549
0.31762
0.316718
0.315809
0.314852
0.31387
0.312866
0.31188
0.310925
0.309973
0.309026
0.308072
0.307109
0.306145
0.305185
0.304224
0.303262
0.302303
0.301347
0.300395
0.299446
0.298501
0.297559
0.296619
0.29568
0.294741
0.293803
0.29287
0.291941
0.291019
0.290102
0.289192
0.288289
0.287394
0.286506
0.285625
0.284754
0.283891
0.283036
0.282191
0.281355
0.280532
0.279719
0.278917
0.278126
0.277346
0.276577
0.275818
0.275069
0.27433
0.273604
0.272885
0.272176
0.271475
0.270782
0.270102
0.269429
0.268761
0.268105
0.267462
0.266838
0.266226
0.265626
0.265035
0.264453
0.26389
0.263337
0.262795
0.262268
0.26176
0.261265
0.260787
0.260321
0.259864
0.259426
0.259009
0.258608
0.258223
0.257855
0.257502
0.257165
0.256843
0.256538
0.256248
0.255975
0.255717
0.255476
0.255252
0.255045
0.254856
0.254685
0.254535
0.254406
0.254299
0.254212
0.254145
0.254099
0.254072
0.254067
0.254084
0.254122
0.254182
0.254265
0.254372
0.254501
0.254659
0.254861
0.255069
0.25532
0.255754
0.255745
0.256832
0.255939
0.258866
0.255697
0.262063
0.254375
0.267236
0.24919
0.338179
0.337367
0.336545
0.335716
0.334861
0.333991
0.333123
0.33224
0.331333
0.330412
0.329485
0.328541
0.327585
0.326626
0.325659
0.324684
0.323666
0.322636
0.321633
0.320631
0.319625
0.318608
0.317547
0.31649
0.315465
0.314433
0.313393
0.312367
0.311339
0.310293
0.309244
0.308193
0.307143
0.306087
0.305016
0.303945
0.302885
0.301832
0.300783
0.299738
0.298697
0.297661
0.296629
0.295601
0.294576
0.293552
0.292532
0.291513
0.290502
0.289497
0.288499
0.287508
0.286526
0.285552
0.284587
0.283631
0.282684
0.281748
0.280822
0.279906
0.279001
0.278106
0.27722
0.276345
0.27548
0.274625
0.273781
0.272947
0.272123
0.271307
0.270501
0.269701
0.268909
0.268123
0.267343
0.266573
0.265815
0.265077
0.264348
0.263643
0.262966
0.262302
0.261657
0.261031
0.260432
0.259854
0.259283
0.258729
0.258198
0.257677
0.257171
0.256676
0.256193
0.255721
0.255261
0.254809
0.254369
0.253943
0.253532
0.253139
0.252762
0.252404
0.252064
0.251744
0.251442
0.251161
0.250901
0.250661
0.250443
0.250247
0.250072
0.24992
0.249789
0.249679
0.249591
0.249523
0.249477
0.249454
0.249454
0.249477
0.249526
0.249604
0.24971
0.249852
0.250028
0.250231
0.25048
0.250837
0.250934
0.251796
0.251316
0.253285
0.251556
0.255152
0.2516
0.257381
0.250106
0.263869
0.233201
0.341127
0.340278
0.33941
0.338503
0.33758
0.336652
0.335688
0.334697
0.33371
0.332708
0.331691
0.330664
0.329627
0.328565
0.327487
0.326407
0.325332
0.32425
0.323144
0.322026
0.320899
0.319769
0.318653
0.317525
0.316359
0.315211
0.314109
0.313005
0.311861
0.310679
0.309491
0.308309
0.307127
0.305952
0.304794
0.303651
0.302509
0.30136
0.300209
0.299058
0.297909
0.296763
0.295621
0.294485
0.293357
0.292235
0.291111
0.289981
0.288855
0.287744
0.286652
0.285572
0.284503
0.283441
0.282388
0.281343
0.280307
0.279279
0.278261
0.277251
0.276251
0.275259
0.274278
0.273307
0.272346
0.271397
0.27046
0.269534
0.268621
0.267722
0.266837
0.265973
0.265128
0.264303
0.263499
0.262715
0.261949
0.261194
0.260456
0.259721
0.25899
0.258278
0.257563
0.256858
0.256166
0.255483
0.254827
0.254188
0.253558
0.252948
0.252361
0.251788
0.251241
0.250719
0.250215
0.249734
0.249275
0.248838
0.248421
0.248021
0.247638
0.247271
0.246922
0.246589
0.246273
0.245974
0.245693
0.245431
0.245188
0.244965
0.244762
0.24458
0.244419
0.24428
0.244163
0.24407
0.244001
0.243958
0.243941
0.243952
0.243991
0.244058
0.244152
0.244274
0.244429
0.244607
0.244737
0.245113
0.245013
0.245755
0.245268
0.246431
0.245626
0.246951
0.246396
0.247146
0.246629
0.253513
0.221379
0.344643
0.343715
0.342738
0.341756
0.340769
0.339742
0.338694
0.337646
0.336579
0.335483
0.334363
0.333229
0.332069
0.330914
0.329789
0.328622
0.3274
0.326172
0.324928
0.323709
0.322485
0.32122
0.31994
0.318662
0.317393
0.316115
0.314798
0.31346
0.312147
0.310869
0.309592
0.308307
0.30702
0.305728
0.304445
0.303173
0.301897
0.300621
0.299349
0.29808
0.296813
0.295548
0.294285
0.293021
0.291757
0.290495
0.289235
0.287992
0.286762
0.285536
0.28434
0.283172
0.282006
0.280845
0.27969
0.278544
0.277407
0.276279
0.275162
0.274056
0.272963
0.271881
0.270813
0.269759
0.26872
0.267694
0.266686
0.265689
0.264706
0.263741
0.26279
0.261861
0.260947
0.260043
0.259151
0.258268
0.25739
0.256512
0.255654
0.25483
0.254033
0.253251
0.252494
0.251763
0.251047
0.250358
0.249685
0.249017
0.248372
0.247746
0.247123
0.246521
0.245937
0.245361
0.244804
0.244265
0.243744
0.243243
0.242758
0.242295
0.241853
0.241431
0.241032
0.240653
0.240296
0.239961
0.239646
0.239352
0.239079
0.238824
0.238591
0.238378
0.238187
0.238017
0.23787
0.237745
0.237642
0.237561
0.237501
0.237461
0.237441
0.237436
0.237447
0.237464
0.237495
0.237568
0.237528
0.237749
0.237597
0.237981
0.237744
0.238236
0.238023
0.238288
0.238942
0.238254
0.238317
0.245299
0.215866
0.349136
0.348079
0.347014
0.34593
0.344783
0.343637
0.342492
0.341292
0.340065
0.338812
0.337562
0.336309
0.335023
0.333701
0.332319
0.330938
0.329601
0.328263
0.3269
0.325488
0.324077
0.322683
0.321284
0.319876
0.318456
0.31702
0.315577
0.314154
0.312726
0.311264
0.309798
0.308348
0.306898
0.305446
0.304004
0.302568
0.301129
0.299696
0.29827
0.296848
0.295434
0.294029
0.292636
0.291257
0.289893
0.288539
0.287183
0.285832
0.284488
0.283154
0.281804
0.280454
0.279135
0.27784
0.276561
0.275297
0.274048
0.272815
0.271598
0.270396
0.269211
0.26804
0.266886
0.265744
0.264618
0.263504
0.262402
0.261316
0.260244
0.259188
0.258146
0.257109
0.256091
0.255094
0.254116
0.253161
0.252229
0.251338
0.250459
0.249577
0.248719
0.247885
0.247058
0.246235
0.245443
0.244672
0.243908
0.243181
0.242481
0.241787
0.241133
0.2405
0.239877
0.239281
0.238703
0.23814
0.237594
0.237064
0.236552
0.236057
0.23558
0.235123
0.234685
0.234265
0.233866
0.233485
0.233127
0.232787
0.232467
0.23217
0.231891
0.231634
0.231396
0.231179
0.230979
0.230799
0.230634
0.230486
0.23035
0.230228
0.230119
0.23002
0.229935
0.229858
0.229779
0.229762
0.229642
0.229727
0.229559
0.229756
0.229541
0.229817
0.229824
0.229526
0.229982
0.229048
0.227645
0.234536
0.208779
0.354447
0.353258
0.352008
0.350726
0.349445
0.348128
0.346753
0.345366
0.343994
0.342594
0.341137
0.33966
0.338171
0.336695
0.335252
0.333769
0.332219
0.330651
0.329088
0.327533
0.325984
0.324396
0.322774
0.321157
0.319544
0.317951
0.316374
0.314781
0.313177
0.311582
0.309995
0.308403
0.306823
0.305236
0.303615
0.301973
0.300351
0.298744
0.297146
0.29556
0.293984
0.292416
0.290853
0.289295
0.287736
0.286187
0.28468
0.283198
0.281724
0.280269
0.278815
0.277359
0.275927
0.274523
0.273127
0.271743
0.270377
0.269027
0.267694
0.266377
0.265075
0.26379
0.262517
0.261259
0.260013
0.258783
0.25757
0.256378
0.255204
0.254044
0.252905
0.251794
0.250703
0.249639
0.248603
0.247593
0.246611
0.245646
0.244696
0.243769
0.242871
0.241987
0.241119
0.240274
0.239433
0.238614
0.237826
0.237039
0.236269
0.235536
0.23481
0.234096
0.23341
0.232746
0.232099
0.231474
0.230876
0.230298
0.229743
0.229211
0.228701
0.228209
0.227737
0.227285
0.226849
0.226434
0.226034
0.225654
0.225293
0.224947
0.22462
0.224308
0.224014
0.223735
0.223471
0.223221
0.222986
0.222764
0.222557
0.22236
0.222179
0.22201
0.221856
0.221723
0.221574
0.221506
0.221332
0.221358
0.221154
0.22125
0.221094
0.221074
0.221391
0.220986
0.220967
0.220263
0.218921
0.224921
0.202511
0.360497
0.359108
0.357687
0.356243
0.354737
0.353218
0.351714
0.350155
0.348537
0.346915
0.345307
0.343721
0.342074
0.340357
0.338609
0.336834
0.335119
0.333426
0.331643
0.329834
0.328021
0.326236
0.324497
0.322713
0.32089
0.319061
0.317234
0.315423
0.313598
0.311752
0.309911
0.308077
0.306243
0.304434
0.302672
0.300931
0.29919
0.29744
0.295691
0.293949
0.292214
0.290491
0.288783
0.287076
0.28539
0.283704
0.282011
0.280332
0.278677
0.277042
0.275438
0.273868
0.272314
0.270776
0.269253
0.267748
0.266261
0.26479
0.263337
0.2619
0.260484
0.259088
0.257714
0.256365
0.25504
0.253738
0.252456
0.251197
0.249966
0.24876
0.247572
0.246401
0.245244
0.244106
0.242987
0.241883
0.240799
0.239753
0.238727
0.237705
0.23671
0.235767
0.234837
0.233915
0.233038
0.232193
0.23136
0.230543
0.229747
0.228975
0.228216
0.227474
0.226755
0.226041
0.225344
0.224675
0.224017
0.223382
0.222767
0.222172
0.221594
0.221045
0.220509
0.219997
0.219506
0.21903
0.21858
0.218143
0.217726
0.217326
0.216944
0.216574
0.216223
0.215884
0.215561
0.215251
0.214957
0.214674
0.214407
0.214155
0.213915
0.213692
0.213481
0.213311
0.21311
0.21301
0.212826
0.212789
0.212647
0.212643
0.21257
0.212436
0.212522
0.211957
0.21156
0.210971
0.209929
0.215055
0.195423
0.367372
0.365793
0.364155
0.362505
0.360828
0.359127
0.357367
0.355577
0.353799