/*--------------------------------*- C++ -*----------------------------------*\
| =========                 |                                                 |
| \\      /  F ield         | OpenFOAM: The Open Source CFD Toolbox           |
|  \\    /   O peration     | Version:  5.x                                   |
|   \\  /    A nd           | Web:      www.OpenFOAM.org                      |
|    \\/     M anipulation  |                                                 |
\*---------------------------------------------------------------------------*/
/*   Windows 32 and 64 bit porting by blueCAPE: http://www.bluecape.com.pt   *\
|  Based on Windows porting (2.0.x v4) by Symscape: http://www.symscape.com   |
\*---------------------------------------------------------------------------*/
FoamFile
{
    version     2.0;
    format      ascii;
    class       surfaceScalarField;
    location    "310";
    object      phi;
}
// * * * * * * * * * * * * * * * * * * * * * * * * * * * * * * * * * * * * * //

dimensions      [0 3 -1 0 0 0 0];

internalField   nonuniform List<scalar> 
87341
(
0.365279
39.5578
0.528658
39.7597
0.494781
39.9569
0.600011
39.8178
0.635106
39.8879
0.678477
39.8797
0.713757
39.8878
0.750111
39.8867
0.786049
39.8871
0.817415
39.8917
0.851072
39.8894
0.879341
39.8948
0.902891
39.8995
0.923659
39.9023
0.941812
39.9049
0.962182
39.9027
0.981171
39.904
0.994736
39.9095
1.00909
39.9087
1.0226
39.9095
1.03598
39.9097
1.0505
39.9085
1.06148
39.9121
1.07166
39.9129
1.08269
39.912
1.0913
39.9144
1.10044
39.9139
1.11069
39.9128
39.9155
1.1182
0.970692
38.5871
1.363
39.3673
1.47469
39.8452
1.61255
39.6799
1.65326
39.8472
1.8122
39.7207
1.91396
39.786
2.04479
39.7559
2.13949
39.7924
2.24245
39.7887
2.33682
39.795
2.43311
39.7985
2.52526
39.8073
2.60854
39.819
2.69086
39.8226
2.76475
39.8288
2.82691
39.8419
2.8903
39.8461
2.95122
39.8478
3.00713
39.8536
3.06127
39.8555
3.10809
39.8617
3.15236
39.8678
3.19627
39.8689
3.23486
39.8734
3.27416
39.8751
3.31501
39.873
3.35052
39.8773
39.8814
3.38468
2.03805
36.549
3.35737
38.048
4.13955
39.0631
4.22655
39.5929
4.38827
39.6855
4.32713
39.7819
4.36411
39.749
4.34434
39.7756
4.37163
39.7651
4.39402
39.7663
4.42081
39.7682
4.45364
39.7656
4.49428
39.7667
4.54275
39.7705
4.58861
39.7767
4.63194
39.7855
4.68671
39.7871
4.74547
39.7873
4.79613
39.7971
4.84819
39.8016
4.89837
39.8053
4.94771
39.8124
5.00142
39.8141
5.05721
39.8132
5.1148
39.8158
5.17037
39.8195
5.21413
39.8293
5.25475
39.8367
39.8351
5.30103
1.69928
34.8497
3.50272
36.2446
4.95625
37.6095
5.84578
38.7034
6.14847
39.3828
6.23762
39.6927
6.25423
39.7324
6.28659
39.7433
6.30526
39.7464
6.31646
39.7551
6.32323
39.7615
6.3226
39.7663
6.32223
39.7671
6.32653
39.7662
6.33861
39.7646
6.35749
39.7666
6.37547
39.7691
6.3902
39.7726
6.41773
39.7696
6.44989
39.7694
6.48335
39.7719
6.52578
39.7699
6.56878
39.7711
6.60036
39.7816
6.62665
39.7895
6.65481
39.7914
6.69517
39.7889
6.74954
39.7823
39.7841
6.80052
1.09077
33.759
2.46025
34.8751
4.03595
36.0338
5.50378
37.2356
6.57771
38.3089
7.16914
39.1013
7.38109
39.5204
7.42948
39.6949
7.47604
39.6999
7.52358
39.7076
7.56567
39.7194
7.6109
39.721
7.65561
39.7224
7.69409
39.7277
7.73206
39.7267
7.77323
39.7254
7.82249
39.7199
7.87336
39.7217
7.91436
39.7286
7.95568
39.7281
8.0024
39.7252
8.04165
39.7307
8.07727
39.7355
8.12022
39.7386
8.1794
39.7303
8.24668
39.7241
8.31084
39.7248
8.35557
39.7376
39.7451
8.39458
0.858797
32.9002
1.87619
33.8577
3.05074
34.8593
4.38675
35.8996
5.74737
36.9483
6.89119
37.9575
7.62497
38.7867
7.98516
39.3347
8.12191
39.5631
8.21225
39.6172
8.31029
39.6213
8.40317
39.6282
8.4874
39.6381
8.57525
39.6399
8.66285
39.639
8.74173
39.6465
8.82024
39.6414
8.90421
39.6377
8.99286
39.6399
9.07848
39.6425
9.15051
39.6531
9.22561
39.6556
9.31396
39.6471
9.40812
39.6445
9.48828
39.6502
9.5584
39.654
9.61497
39.6682
9.68156
39.671
39.6588
9.76785
0.753386
32.1468
1.60826
33.0028
2.56658
33.9009
3.63232
34.8338
4.79511
35.7855
6.01565
36.7369
7.13487
37.6674
7.97031
38.4993
8.43499
39.0985
8.64041
39.4118
8.76305
39.4987
8.89185
39.4994
9.02561
39.5044
9.1485
39.517
9.27031
39.5172
9.4005
39.5163
9.51453
39.5274
9.61935
39.5329
9.72853
39.5307
9.84088
39.5301
9.96426
39.5298
10.0887
39.5311
10.1958
39.54
10.2905
39.5498
10.375
39.5656
10.4707
39.5583
10.5836
39.5554
10.7019
39.5526
39.5596
10.8012
0.699458
31.4473
1.46852
32.2338
2.31064
33.0588
3.22812
33.9164
4.21841
34.7952
5.27267
35.6827
6.37597
36.5642
7.45637
37.4188
8.3363
38.2185
8.90054
38.8476
9.17326
39.226
9.32705
39.3456
9.4841
39.3473
9.64636
39.3547
9.79636
39.3672
9.9461
39.3666
10.1103
39.3632
10.2668
39.3764
10.408
39.3896
10.5491
39.3889
10.6877
39.3911
10.8212
39.3976
10.9596
39.4016
11.1072
39.4022
11.2668
39.406
11.4092
39.416
11.5507
39.4138
11.6835
39.4199
39.4238
11.8193
0.671593
30.7757
1.39371
31.5117
2.17083
32.2817
3.00499
33.0822
3.89571
33.9045
4.83951
34.7389
5.82891
35.5748
6.84789
36.3999
7.86697
37.1994
8.76073
37.9538
9.39476
38.5919
9.72734
39.013
9.91422
39.1604
10.0974
39.1715
10.2849
39.1798
10.4624
39.1891
10.6282
39.1973
10.8053
39.1993
10.9962
39.1987
11.1746
39.2105
11.3403
39.2254
11.5132
39.2247
11.6879
39.2269
11.855
39.2352
12.0183
39.2427
12.1824
39.2519
12.335
39.2612
12.4749
39.28
39.2899
12.6088
0.654855
30.1209
1.35252
30.814
2.09235
31.5419
2.87604
32.2985
3.7038
33.0767
4.5741
33.8686
5.48311
34.6657
6.42376
35.4592
7.38421
36.239
8.34527
36.9928
9.23469
37.7025
9.91407
38.3336
10.3026
38.7719
10.5226
38.9516
10.73
38.9723
10.936
38.9832
11.1436
38.9897
11.3427
39.0001
11.533
39.0085
11.738
39.0056
11.9554
39.008
12.1544
39.0256
12.3382
39.0432
12.5232
39.0502
12.7071
39.0588
12.8887
39.0702
13.073
39.0769
13.2694
39.0836
39.0971
13.4622
0.651939
29.4689
1.33798
30.1279
2.05888
30.821
2.81528
31.5421
3.60705
32.2849
4.43305
33.0426
5.29092
33.8079
6.17671
34.5734
7.08421
35.3315
8.00379
36.0732
8.91869
36.7876
9.79365
37.4587
10.4928
38.0727
10.9203
38.5241
11.1723
38.7203
11.4041
38.7514
11.6346
38.7593
11.8767
38.758
12.0981
38.787
12.3111
38.7926
12.5161
38.8031
12.7293
38.8124
12.9519
38.8205
13.168
38.8341
13.3833
38.8435
13.5887
38.8648
13.7827
38.8829
13.9528
38.9135
38.9147
14.1351
0.656523
28.8124
1.34155
29.4429
2.05666
30.1059
2.80207
30.7967
3.57742
31.5096
4.3816
32.2384
5.21267
32.9768
6.06777
33.7183
6.94274
34.4565
7.83152
35.1844
8.72477
35.8944
9.60637
36.5771
10.4592
37.2199
11.1722
37.811
11.6303
38.2623
11.919
38.4627
12.185
38.4933
12.4361
38.5069
12.7084
38.5148
12.9493
38.5517
13.1916
38.5608
13.4345
38.5695
13.6845
38.5705
13.9281
38.5904
14.1617
38.6099
14.3967
38.6298
14.6436
38.6361
14.9028
38.6542
38.6839
15.1336
0.663302
28.1491
1.35317
28.7531
2.06973
29.3893
2.81291
30.0535
3.58226
30.7402
4.37688
31.4438
5.19511
32.1586
6.03467
32.8788
6.89244
33.5987
7.76423
34.3126
8.64423
35.0144
9.52408
35.6972
10.391
36.3529
11.2317
36.9703
11.9549
37.5391
12.4318
37.9857
12.746
38.1791
13.0412
38.2116
13.3191
38.2369
13.6268
38.244
13.9259
38.2617
14.2085
38.2869
14.474
38.305
14.7359
38.3285
15.0033
38.3426
15.2422
38.3909
15.4568
38.4215
15.6706
38.4404
38.4497
15.9049
0.672887
27.4762
1.36996
28.056
2.09144
28.6678
2.83716
29.3078
3.60631
29.9711
4.39795
30.6521
5.21074
31.3458
6.04271
32.0468
6.89135
32.7501
7.75346
33.4505
8.62495
34.1429
9.50038
34.8218
10.3722
35.4811
11.2293
36.1133
12.0601
36.7082
12.7872
37.2587
13.2681
37.6981
13.5975
37.8822
13.9164
37.9181
14.2174
37.943
14.5209
37.9583
14.8249
37.9829
15.1114
38.0186
15.3879
38.052
15.6547
38.0757
15.9464
38.0992
16.2594
38.1084
16.5482
38.1517
38.2124
16.7854
0.686093
26.7901
1.39463
27.3474
2.12568
27.9368
2.87926
28.5542
3.65468
29.1956
4.45075
29.8561
5.26621
30.5303
6.09949
31.2135
6.9485
31.9011
7.81066
32.5883
8.68282
33.2707
9.561
33.9436
10.4401
34.602
11.3129
35.2405
12.1691
35.852
13.0002
36.4275
13.736
36.9624
14.2286
37.3896
14.5862
37.5605
14.9279
37.6012
15.2529
37.6333
15.5595
37.6763
15.8835
37.6947
16.2121
37.7233
16.527
37.7609
16.812
37.8142
17.0734
37.8469
17.3576
37.8676
37.8702
17.6998
0.701028
26.0891
1.42331
26.6252
2.16682
27.1932
2.93139
27.7897
3.71666
28.4104
4.52162
29.0511
5.34477
29.7072
6.18468
30.3736
7.03964
31.0461
7.90753
31.7205
8.7858
32.3924
9.67138
33.058
10.5604
33.713
11.4479
34.3529
12.3272
34.9728
13.1884
35.5663
14.025
36.1258
14.7661
36.6484
15.2674
37.0593
15.6408
37.2278
15.9882
37.2859
16.3406
37.3238
16.6695
37.3658
16.9964
37.3964
17.3281
37.4291
17.6799
37.4624
18.0137
37.5131
18.2933
37.5881
37.6337
18.5298
0.715064
25.3741
1.45061
25.8896
2.20642
26.4374
2.98212
27.014
3.7772
27.6153
4.591
28.2373
5.4222
28.876
6.26912
29.5267
7.13009
30.1852
8.00316
30.8474
8.88605
31.5096
9.77612
32.1679
10.6702
32.8189
11.5645
33.4587
12.454
34.0833
13.3321
34.6882
14.1896
35.2682
15.0209
35.8172
15.7485
36.3316
16.2465
36.7298
16.6301
36.9023
17.0046
36.9494
17.3889
36.9815
17.7512
37.0342
18.091
37.0893
18.4005
37.1529
18.7252
37.1884
19.1067
37.2066
37.2739
19.4664
0.729365
24.6447
1.47856
25.1404
2.24731
25.6687
3.03517
26.2261
3.84143
26.809
4.66532
27.4134
5.50587
28.0354
6.36157
28.671
7.23072
29.316
8.11154
29.9666
9.00189
30.6192
9.89938
31.2705
10.8013
31.917
11.7044
32.5555
12.605
33.1827
13.4984
33.7949
14.3784
34.3881
15.2378
34.9578
16.0702
35.4993
16.7912
36.0088
17.3088
36.3847
17.7202
36.5379
18.1021
36.5996
18.5039
36.6324
18.8862
36.7069
19.2765
36.7626
19.6257
36.8392
19.9022
36.9302
36.9537
20.2224
0.743807
23.9009
1.50699
24.3772
2.28927
24.8864
3.09015
25.4252
3.90895
25.9902
4.74475
26.5776
5.59656
27.1836
6.46311
27.8045
7.34274
28.4364
8.23379
29.0755
9.13445
29.7186
10.0426
30.3623
10.956
31.0036
11.8719
31.6396
12.7873
32.2673
13.6987
32.8836
14.6016
33.4852
15.4908
34.0685
16.3603
34.6298
17.2023
35.1668
17.9162
35.6708
18.4331
36.0211
18.8433
36.1893
19.2129
36.2628
19.5791
36.3407
19.9315
36.4103
20.3103
36.4604
20.7152
36.5252
36.6369
21.032
0.757284
23.1436
1.53367
23.6009
2.32879
24.0913
3.14211
24.6119
3.97293
25.1594
4.82034
25.7302
5.68327
26.3207
6.56058
26.9271
7.45074
27.5462
8.352
28.1743
9.26262
28.8079
10.1807
29.4442
11.1041
30.0802
12.0306
30.7132
12.9574
31.3404
13.8817
31.9593
14.7998
32.5671
15.7074
33.1609
16.5997
33.7376
17.4718
34.2946
18.3102
34.8324
18.9941
35.3373
19.4862
35.6971
19.911
35.8381
20.3212
35.9305
20.7209
36.0105
21.0805
36.1009
21.4555
36.1502
36.2541
21.8384
0.770072
22.3735
1.55896
22.812
2.36631
23.2839
3.19157
23.7867
4.03401
24.317
4.89272
24.8715
5.76661
25.4468
6.6545
26.0393
7.55505
26.6457
8.46662
27.2627
9.38746
27.8871
10.3158
28.5159
11.2497
29.1463
12.187
29.7759
13.1254
30.402
14.0624
31.0224
14.995
31.6345
15.92
32.2359
16.8336
32.824
17.7318
33.3964
18.6132
33.951
19.46
34.4904
20.1415
35.0157
20.6275
35.352
21.0546
35.5034
21.4678
35.5973
21.8927
35.676
22.282
35.7608
35.8664
22.6697
0.781577
21.5919
1.5818
22.0117
2.40028
22.4655
3.23644
22.9505
4.08958
23.4638
4.95877
24.0023
5.84294
24.5626
6.74088
25.1413
7.65128
25.7353
8.57262
26.3414
9.50318
26.9565
10.4412
27.5778
11.3849
28.2026
12.3324
28.8285
13.2814
29.453
14.2298
30.0739
15.1752
30.6891
16.1147
31.2963
17.0453
31.8934
17.9636
32.4781
18.8664
33.0482
19.7546
33.6023
20.6141
34.1562
21.2799
34.6862
21.7567
35.0266
22.183
35.171
22.5594
35.2996
22.933
35.3873
35.518
23.2814
0.791595
20.8004
1.60167
21.2017
2.42982
21.6373
3.27549
22.1048
4.13793
22.6014
5.01625
23.124
5.90936
23.6695
6.81604
24.2346
7.73495
24.8163
8.66467
25.4116
9.60354
26.0177
10.5498
26.6315
11.5017
27.2507
12.4573
27.8728
13.4147
28.4956
14.3717
29.1169
15.3262
29.7347
16.2755
30.347
17.2172
30.9517
18.1482
31.5471
19.0652
32.1312
19.9647
32.7027
20.8586
33.2623
21.72
33.8249
22.3761
34.3705
22.8536
34.6935
23.2919
34.8614
23.6838
34.9954
35.1389
24.0628
0.79998
20.0004
1.6183
20.3833
2.45454
20.8011
3.30815
21.2512
4.17842
21.7311
5.06443
22.238
5.96513
22.7688
6.87931
23.3205
7.8056
23.8901
8.74257
24.4747
9.68863
25.0716
10.642
25.6781
11.601
26.2917
12.5637
26.9101
13.5283
27.531
14.4927
28.1525
15.4548
28.7725
16.4126
29.3892
17.3636
30.0007
18.3053
30.6053
19.2353
31.2013
20.1508
31.7872
21.0508
32.3623
21.9484
32.9273
22.8153
33.5036
23.4515
34.0573
23.908
34.4048
24.3056
34.5978
34.7402
24.7043
0.806579
19.1938
1.63135
19.5586
2.4739
19.9585
3.33371
20.3914
4.21007
20.8548
5.10208
21.346
6.00871
21.8622
6.92872
22.4005
7.86077
22.958
8.80341
23.532
9.75509
24.1199
10.7141
24.7191
11.6786
25.3272
12.6469
25.9418
13.6171
26.5609
14.5872
27.1824
15.5553
27.8045
16.5192
28.4253
17.4767
29.0431
18.4258
29.6563
19.3639
30.2632
20.2887
30.8624
21.1982
31.4529
22.091
32.0344
22.9842
32.6104
23.8312
33.2103
24.4588
33.7772
24.8939
34.1628
34.3591
25.275
0.81126
18.3825
1.64056
18.7293
2.48752
19.1115
3.35161
19.5273
4.23217
19.9742
5.12833
20.4498
6.03906
20.9514
6.96317
21.4763
7.89932
22.0219
8.84604
22.5853
9.80181
23.1642
10.7649
23.7561
11.7335
24.3586
12.7058
24.9695
13.6799
25.5868
14.6538
26.2085
15.6257
26.8327
16.5934
27.4576
17.5548
28.0817
18.5079
28.7032
19.4504
29.3207
20.3801
29.9327
21.2949
30.5381
22.193
31.1363
23.0753
31.7281
23.9631
32.3225
24.7994
32.9409
25.4309
33.5313
33.9413
25.8486
0.814029
17.5685
1.64592
17.8974
2.49533
18.2621
3.36179
18.6608
4.24465
19.0914
5.1431
19.5514
6.05612
20.0384
6.98253
20.5499
7.92098
21.0834
8.87
21.6363
9.82801
22.2061
10.7933
22.7907
11.7642
23.3878
12.7387
23.995
13.715
24.6105
14.6912
25.2323
15.6652
25.8587
16.635
26.4878
17.5985
27.1181
18.5537
27.748
19.4984
28.3759
20.4306
29.0005
21.3482
29.6206
22.2493
30.2351
23.1334
30.844
24.0055
31.4504
24.8843
32.0622
25.7138
32.7018
33.3359
26.3192
0.814773
16.7537
1.64722
17.0649
2.49704
17.4123
3.3638
17.7941
4.24693
18.2082
5.14562
18.6527
6.05892
19.1251
6.98567
19.6232
7.92455
20.1445
8.87414
20.6867
9.83285
21.2474
10.799
21.8245
11.7709
22.4159
12.7464
23.0195
13.7236
23.6332
14.7006
24.2553
15.6753
24.8839
16.6457
25.5175
17.6096
26.1542
18.565
26.7926
19.5098
27.4312
20.4419
28.0685
21.3592
28.7032
22.26
29.3343
23.1429
29.9611
24.009
30.5842
24.8644
31.2068
25.7331
31.8331
32.532
26.537
0.813609
15.9401
1.64466
16.2339
2.49293
16.5641
3.35806
16.9289
4.23953
17.3268
5.13663
17.7556
6.04842
18.2133
6.97379
18.6978
7.91147
19.2068
8.86001
19.7382
9.8178
20.2896
10.7832
20.8592
11.7543
21.4448
12.7293
22.0445
13.706
22.6565
14.6826
23.2788
15.6567
23.9098
16.6265
24.5477
17.5896
25.1911
18.5438
25.8383
19.4872
26.4878
20.4174
27.1382
21.3326
27.7881
22.2307
28.4362
23.1102
29.0816
23.9707
29.7237
24.8143
30.3633
25.6479
30.9994
31.6683
26.5117
0.810502
15.1296
1.63819
15.4062
2.48291
15.7193
3.34441
16.0675
4.22225
16.4489
5.11579
16.862
6.02416
17.305
6.9463
17.7757
7.88098
18.2722
8.82677
18.7924
9.78209
19.3343
10.7452
19.896
11.7144
20.4757
12.6875
21.0714
13.6627
21.6813
14.6377
22.3037
15.6104
22.937
16.5786
23.5796
17.54
24.2297
18.4923
24.886
19.4333
25.5469
20.3606
26.2108
21.2723
26.8765
22.1661
27.5423
23.0404
28.2073
23.8939
28.8702
24.7265
29.5307
25.5378
30.1881
30.8494
26.3566
0.805503
14.3241
1.62789
14.5838
2.4671
14.8801
3.32301
15.2115
4.19528
15.5767
5.08334
15.974
5.98642
16.4019
6.90354
16.8586
7.83351
17.3422
8.77496
17.8509
9.72635
18.3829
10.686
18.9364
11.6521
19.5096
12.6226
20.1008
13.5954
20.7085
14.5683
21.3309
15.5388
21.9664
16.5048
22.6135
17.4639
23.2707
18.4136
23.9363
19.3515
24.609
20.2752
25.2871
21.1824
25.9693
22.0708
26.6539
22.9384
27.3397
23.7834
28.0253
24.6045
28.7096
25.4009
29.3917
30.0721
26.1782
0.798673
13.5254
1.61388
13.7686
2.4457
14.0483
3.29412
14.3631
4.15894
14.7118
5.03972
15.0932
5.93579
15.5058
6.84624
15.9481
7.76997
16.4185
8.70568
16.9152
9.65184
17.4368
10.6067
17.9815
11.5685
18.5478
12.5352
19.1341
13.5047
19.7391
14.4745
20.361
15.4425
20.9985
16.406
21.65
17.3625
22.3142
18.3094
22.9894
19.2442
23.6742
20.1641
24.3672
21.0666
25.0667
21.9493
25.7713
22.8097
26.4793
23.6457
27.1892
24.4556
27.8997
25.2379
28.6094
29.3173
25.9927
0.790039
12.7354
1.59622
12.9624
2.41876
13.2258
3.25782
13.5241
4.11333
13.8563
4.98499
14.2215
5.87224
14.6186
6.7743
15.046
7.69014
15.5026
8.61855
15.9868
9.55805
16.4973
10.507
17.0325
11.4635
17.5913
12.4255
18.1721
13.391
18.7737
14.3574
19.3946
15.3223
20.0335
16.2832
20.6892
17.2372
21.3602
18.1815
22.0451
19.1133
22.7424
20.0297
23.4508
20.9279
24.1686
21.805
24.8941
22.6584
25.6258
23.4856
26.362
24.2844
27.101
25.0528
27.841
28.5806
25.7895
0.779639
11.9558
1.57499
12.1671
2.38641
12.4144
3.21426
12.6962
4.05864
13.0119
4.91939
13.3608
5.79608
13.7419
6.68806
14.1541
7.59441
14.5962
8.51402
15.0672
9.44551
15.5658
10.3873
16.0908
11.3376
16.641
12.2943
17.2153
13.2553
17.8127
14.218
18.4319
15.1799
19.0717
16.138
19.731
17.0896
20.4086
18.0317
21.1031
18.961
21.8131
19.8744
22.5374
20.7687
23.2742
21.6409
24.022
22.4878
24.7789
23.3066
25.5432
24.0946
26.3129
24.8496
27.0861
27.8607
25.5695
0.767504
11.1883
1.55024
11.3843
2.34876
11.6158
3.16362
11.8814
3.99511
12.1804
4.84322
12.5127
5.70769
12.8774
6.588
13.2738
7.4834
13.7009
8.39286
14.1577
9.31512
14.6435
10.2487
15.1572
11.1917
15.6979
12.1423
16.2647
13.0981
16.8569
14.0567
17.4733
15.0153
18.1131
15.971
18.7754
16.9206
19.4589
17.8609
20.1628
18.7885
20.8856
19.6998
21.6261
20.5913
22.3827
21.4594
23.1539
22.3007
23.9377
23.1118
24.7321
23.8898
25.535
24.6317
26.3441
27.157
25.3353
0.753643
10.4346
1.52202
10.6159
2.30589
10.832
3.10601
11.0812
3.92288
11.3636
4.75666
11.6789
5.60725
12.0268
6.47431
12.4067
7.35723
12.8179
8.25513
13.2598
9.16687
13.7318
10.091
14.2331
11.0259
14.7631
11.9695
15.3212
12.9195
15.9068
13.8736
16.5193
14.8288
17.1579
15.7822
17.822
16.7304
18.5107
17.6698
19.2233
18.5967
19.9587
19.5071
20.7156
20.3971
21.4928
21.2625
22.2884
22.0994
23.1007
22.904
23.9275
23.6727
24.7663
24.4022
25.6146
26.4694
25.0899
0.73804
9.69658
1.49033
9.86366
2.2578
10.0645
3.04147
10.2976
3.84201
10.563
4.65979
10.8611
5.49488
11.1917
6.3471
11.5545
7.21601
11.949
8.10088
12.375
9.00071
12.8319
9.91422
13.3195
10.8398
13.8374
11.7757
14.3853
12.7195
14.9629
13.6688
15.5699
14.6208
16.2059
15.5722
16.8705
16.5196
17.5634
17.4591
18.2839
18.3865
19.0313
19.2975
19.8047
20.1875
20.6028
21.0519
21.424
21.8861
22.2665
22.6856
23.128
23.4461
24.0057
24.164
24.8967
25.7974
24.836
0.720658
8.97592
1.45511
9.12921
2.20447
9.31515
2.96999
9.53204
3.75255
9.78047
4.55268
10.061
5.37065
10.3737
6.20646
10.7187
7.05983
11.0956
7.93023
11.5046
8.81682
11.9454
9.71848
12.4179
10.6338
12.9221
11.561
13.4581
12.498
14.0259
13.4424
14.6256
14.3911
15.2572
15.3409
15.9207
16.2882
16.6161
17.2288
17.3433
18.1581
18.1019
19.0715
18.8913
19.9636
19.7106
20.8291
20.5585
21.6626
21.433
22.4589
22.3318
23.2129
23.2518
23.9201
24.1895
25.1408
24.5767
0.701447
8.27447
1.41631
8.41435
2.14585
8.58561
2.89154
8.78635
3.65445
9.01756
4.43528
9.28015
5.23451
9.57452
6.0523
9.90087
6.88858
10.2594
7.743
10.6502
8.61492
11.0734
9.50342
11.5294
10.4072
12.0183
11.3248
12.5406
12.2541
13.0965
13.1929
13.6868
14.1382
14.3118
15.0868
14.9721
16.0348
15.6681
16.9779
16.4002
17.9111
17.1687
18.829
17.9734
19.7258
18.8139
20.5952
19.6891
21.4308
20.5974
22.2264
21.5362
22.9758
22.5024
23.6736
23.4916
24.4991
24.3153
0.68036
7.59411
1.37388
7.72083
2.0819
7.87759
2.80607
8.06217
3.54763
8.276
4.30749
8.5203
5.08626
8.79575
5.88432
9.10281
6.70179
9.4419
7.53851
9.81343
8.39407
10.2179
9.26776
10.6557
10.1586
11.1275
11.0652
11.634
11.9858
12.1759
12.9183
12.7543
13.8599
13.3702
14.8074
14.0246
15.757
14.7185
16.704
15.4532
17.6432
16.2295
18.5685
17.0481
19.4732
17.9092
20.3501
18.8122
21.1915
19.7559
21.9898
20.7379
22.7376
21.7546
23.4281
22.8011
23.8714
24.0558
0.657394
6.93672
1.32784
7.05038
2.01262
7.19281
2.71355
7.36124
3.43203
7.55752
4.16911
7.78323
4.92558
8.03928
5.70201
8.32638
6.4987
8.6452
7.31573
8.99641
8.1529
9.38069
9.00978
9.79882
9.88565
10.2516
10.7795
10.7402
11.6898
11.2656
12.6149
11.8293
13.5521
12.433
14.4985
13.0782
15.4502
13.7669
16.4025
14.5009
17.3498
15.2822
18.2856
16.1124
19.2021
16.9926
20.0911
17.9233
20.9433
18.9037
21.7493
19.9319
22.4998
21.0041
23.1862
22.1146
23.2561
23.8016
0.632612
6.30411
1.27829
6.40471
1.93812
6.53298
2.61405
6.68532
3.30758
6.86398
4.01993
7.07088
4.75204
7.30717
5.50466
7.57376
6.27829
7.87157
7.07322
8.20148
7.88952
8.5644
8.72706
8.96128
9.58546
9.39324
10.4641
9.86155
11.3619
10.3678
12.2775
10.9137
13.2089
11.5016
14.1532
12.1339
15.107
12.8131
16.0655
13.5424
17.023
14.3247
17.9724
15.163
18.9052
16.0598
19.8116
17.0168
20.6808
18.0346
21.5009
19.1118
22.2603
20.2447
22.9478
21.4271
22.6497
23.5542
0.606167
5.69794
1.22544
5.78543
1.85859
5.89983
2.50764
6.03626
3.17424
6.19739
3.85969
6.38543
4.56511
6.60174
5.2914
6.84747
6.03925
7.12372
6.80917
7.43156
7.60153
7.77204
8.41653
8.14628
9.25422
8.55555
10.1144
9.00138
10.9966
9.48558
11.8999
10.0104
12.8229
10.5785
13.7633
11.1935
14.7179
11.8585
15.6826
12.5778
16.6514
13.3558
17.6171
14.1973
18.5703
15.1065
19.5
16.0872
20.3931
17.1414
21.2354
18.2695
22.0117
19.4685
22.7074
20.7314
22.047
23.3101
0.578284
5.11966
1.16958
5.19414
1.77425
5.29516
2.39447
5.41605
3.03195
5.55991
3.68812
5.72926
4.36423
5.92564
5.06131
6.15039
5.78023
6.4048
6.52177
6.69003
7.28657
7.00723
8.07524
7.35761
8.88828
7.74252
9.72603
8.16362
10.5886
8.623
11.4758
9.12324
12.3867
9.66758
13.3201
10.26
14.2734
10.9052
15.2427
11.6085
16.2226
12.3759
17.2058
13.2141
18.1826
14.1298
19.1405
15.1292
20.0646
16.2173
20.9375
17.3966
21.74
18.666
22.4529
20.0185
21.4408
23.0591
0.549224
4.57043
1.11099
4.63238
1.68535
4.72079
2.27468
4.82672
2.88076
4.95384
3.50509
5.10492
4.14903
5.2817
4.81376
5.48566
5.50033
5.71822
6.20977
5.98059
6.94308
6.27393
7.70126
6.59942
8.48531
6.95846
9.29618
7.35275
10.1346
7.78455
11.0011
8.25675
11.8957
8.77299
12.8179
9.33783
13.7659
9.95724
14.7366
10.6378
15.7254
11.3871
16.7254
12.2141
17.7267
13.1285
18.7163
14.1396
19.6772
15.2564
20.5889
16.485
21.4274
17.8275
22.1674
19.2785
20.8226
22.7855
0.519219
4.05121
1.04993
4.10166
1.59219
4.17853
2.1486
4.27031
2.72097
4.38146
3.31089
4.51501
3.91979
4.67279
4.54901
4.85645
5.1998
5.06743
5.87347
5.30692
6.57139
5.576
7.29502
5.8758
8.04585
6.20763
8.82541
6.57319
9.63514
6.97482
10.4763
7.41561
11.3496
7.89963
12.2554
8.43202
13.193
9.01972
14.1602
9.67051
15.1536
10.3937
16.1671
11.2006
17.1916
12.104
18.2138
13.1175
19.2152
14.2549
20.1721
15.528
21.0556
16.944
21.8325
18.5016
20.1837
22.4715
0.488425
3.56279
0.986676
3.60341
1.49519
3.67001
2.01686
3.74864
2.55347
3.84485
3.10664
3.96183
3.67793
4.10151
4.26882
4.26556
4.88082
4.45543
5.51555
4.67218
6.17477
4.91678
6.86037
5.1902
7.57436
5.49364
8.31879
5.82876
9.09568
6.19793
9.90687
6.60442
10.7538
7.05267
11.6375
7.54835
12.5585
8.09877
13.5161
8.71292
14.508
9.40178
15.5297
10.1789
16.5733
11.0604
17.6259
12.0649
18.6687
13.212
19.6752
14.5216
20.6111
16.0081
21.4339
17.6788
19.5157
22.1019
0.456936
3.10585
0.921577
3.13877
1.3951
3.19649
1.88067
3.26308
2.37996
3.34556
2.89465
3.44714
3.42642
3.56974
3.97694
3.71504
4.54799
3.88438
5.14154
4.07863
5.75975
4.29857
6.4049
4.54505
7.07941
4.81913
7.7857
5.12247
8.52613
5.4575
9.30296
5.82759
10.1184
6.23721
10.9744
6.69239
11.8725
7.20061
12.8137
7.77179
13.797
8.41842
14.8198
9.15615
15.8758
10.0044
16.9539
10.9868
18.036
12.1299
19.0935
13.4641
20.0876
15.0139
20.9637
16.8027
18.8105
21.6689
0.424864
2.68099
0.855236
2.7084
1.29317
2.75855
1.74199
2.81426
2.20321
2.88434
2.67858
2.97177
3.16989
3.07843
3.67907
3.20587
4.20818
3.35527
4.75951
3.5273
5.33553
3.72255
5.93884
3.94175
6.57199
4.18599
7.23763
4.45682
7.93858
4.75656
8.67762
5.08854
9.45752
5.45731
10.281
5.86893
11.1506
6.33101
12.0684
6.85401
13.0353
7.45148
14.0505
8.14091
15.1105
8.94443
16.2064
9.89091
17.3225
11.0138
18.4296
12.357
19.4862
13.9573
20.4225
15.8664
18.0602
21.1728
0.392464
2.28852
0.788601
2.31226
1.19116
2.35599
1.60345
2.40197
2.02682
2.46098
2.46309
2.5355
2.91419
2.62732
3.38225
2.73781
3.8696
2.86791
4.37874
3.01816
4.91227
3.18902
5.47298
3.38104
6.06376
3.59521
6.68753
3.83305
7.34729
4.0968
8.04619
4.38965
8.7874
4.7161
9.57425
5.08209
10.41
5.49528
11.2977
5.96626
12.2402
6.50899
13.2389
7.14228
14.293
7.89024
15.3972
8.78674
16.5398
9.8713
17.6922
11.2046
18.814
12.8355
19.817
14.8635
17.2552
20.622
0.360219
1.92831
0.722939
1.94954
1.09121
1.98772
1.46811
2.02507
1.85482
2.07427
2.25325
2.13707
2.66546
2.21511
3.09366
2.30961
3.54034
2.42123
4.00814
2.55037
4.49991
2.69725
5.01858
2.86236
5.56717
3.04663
6.1487
3.25152
6.76632
3.47917
7.42333
3.73265
8.12322
4.0162
8.86976
4.33555
9.66683
4.6982
10.5186
5.11453
11.4292
5.59836
12.4024
6.1691
13.4409
6.85173
14.5428
7.6848
15.7027
8.71146
16.8939
10.0133
18.0832
11.6462
19.1597
13.7869
16.3807
20.0342
0.328808
1.5995
0.659653
1.6187
0.995463
1.65191
1.33889
1.68164
1.69097
1.72219
2.05368
1.77436
2.42912
1.83967
2.81956
1.91917
3.22763
2.01317
3.65609
2.12191
4.10781
2.24553
4.58571
2.38446
5.0928
2.53953
5.63217
2.71214
6.20704
2.90431
6.82082
3.11887
7.47723
3.35979
8.18039
3.63239
8.93479
3.9438
9.74539
4.30394
10.6178
4.72595
11.5577
5.22921
12.5713
5.83808
13.6607
6.59541
14.8285
7.54369
16.0512
8.79059
17.3103
10.3871
18.4711
12.6261
15.4123
19.4395
0.29897
1.30053
0.600021
1.31765
0.905771
1.34616
1.21817
1.36924
1.53822
1.40214
1.8679
1.44467
2.20931
1.49826
2.56485
1.56364
2.93708
1.64093
3.32872
1.73027
3.74254
1.8317
4.1814
1.9456
4.64822
2.07271
5.14606
2.2143
5.67814
2.37223
6.24795
2.54906
6.85939
2.74835
7.51686
2.97492
8.22539
3.23527
8.99069
3.53864
9.81965
3.89699
10.7199
4.329
11.701
4.85694
12.769
5.52745
13.9362
6.37647
15.1841
7.54263
16.518
9.05329
17.7863
11.3578
14.305
18.8935
0.271319
1.02921
0.544962
1.04401
0.823357
1.06777
1.10744
1.08516
1.39834
1.11124
1.69801
1.145
2.00854
1.18774
2.33226
1.23991
2.67164
1.30155
3.02926
1.37265
3.40773
1.45323
3.80974
1.54359
4.23807
1.64438
4.69565
1.75672
5.18566
1.88222
5.7116
2.02312
6.27747
2.18248
6.8879
2.36449
7.54836
2.57481
8.26536
2.82165
9.04689
3.11545
9.90239
3.4735
10.8447
3.91468
11.8842
4.48794
13.0437
5.21689
14.3154
6.27096
15.7309
7.63776
17.1555
9.93326
12.9801
18.4805
0.24624
0.782967
0.494943
0.795304
0.748758
0.813952
1.00727
0.82665
1.27196
0.84655
1.54466
0.872297
1.82739
0.905008
2.12237
0.944931
2.43192
0.992004
2.75841
1.04616
3.10425
1.10739
3.4719
1.17594
3.86394
1.25234
4.28314
1.33752
4.73254
1.43282
5.21561
1.54006
5.73635
1.66174
6.29954
1.80129
6.91099
1.96337
7.57785
2.15478
8.30905
2.38425
9.11588
2.66668
10.0136
3.01695
11.0189
3.48261
12.1627
4.07315
13.4606
4.97307
14.9623
6.13605
16.6403
8.25528
11.3218
18.2985
0.22395
0.559017
0.450002
0.569252
0.68188
0.582074
0.917421
0.591109
1.15865
0.605324
1.4072
0.623742
1.665
0.647209
1.93412
0.675815
2.21667
0.709451
2.51481
0.74802
2.83069
0.791507
3.16654
0.840087
3.5247
0.894181
3.90773
0.954495
4.31851
1.02204
4.76036
1.09821
5.23724
1.18486
5.75394
1.2846
6.31639
1.40091
6.9322
1.53897
7.61101
1.70544
8.36562
1.91206
9.2128
2.16978
10.1766
2.51883
11.2911
2.95867
12.6076
3.65655
14.1869
4.55671
16.2345
6.20773
9.19048
18.3658
0.204566
0.354451
0.409787
0.364031
0.622138
0.369724
0.837024
0.376222
1.05724
0.385112
1.28414
0.396836
1.51955
0.411798
1.76536
0.430006
2.02347
0.451339
2.29579
0.475704
2.58422
0.503083
2.89071
0.533593
3.21737
0.567521
3.56652
0.605341
3.94084
0.64773
4.34344
0.695599
4.77812
0.750183
5.24955
0.813174
5.76358
0.886881
6.32786
0.974687
6.95228
1.08103
7.65059
1.21375
8.44036
1.38
9.35064
1.60855
10.416
1.89329
11.7133
2.35927
13.3336
2.93646
15.6976
3.84369
6.5515
18.3366
0.18782
0.166631
0.373614
0.178237
0.568666
0.174672
0.764824
0.180064
0.966104
0.183832
1.17348
0.189464
1.38867
0.196608
1.61338
0.205293
1.84929
0.215427
2.09804
0.226954
2.36127
0.239857
2.64066
0.254197
2.93807
0.270117
3.25555
0.287853
3.59555
0.307738
3.96093
0.330217
4.35522
0.355889
4.78283
0.385569
5.24932
0.420385
5.76207
0.461938
6.33065
0.512455
6.96878
0.575616
7.69391
0.654875
8.53698
0.765484
9.53034
0.899924
10.7584
1.13118
12.3058
1.38913
14.6765
1.47291
3.63289
17.5951
0.166631
0.344868
0.51954
0.699604
0.883436
1.0729
1.26951
1.4748
1.69023
1.91718
2.15704
2.41124
2.68135
2.9692
3.27694
3.60716
3.96305
4.34862
4.769
5.23094
5.74339
6.31901
6.97389
7.73937
8.63929
9.77047
11.1596
12.6325
16.2654
1.12864
54.1298
1.1381
54.1308
1.13911
54.1392
1.13638
54.143
1.1445
54.1321
1.16175
54.123
1.17056
54.1314
1.16106
54.1497
1.14385
54.1574
1.13896
54.1451
1.15106
54.1281
1.16106
54.1302
1.14706
54.1542
1.1193
54.168
1.10445
54.1551
1.11563
54.1291
1.13736
54.1185
1.14997
54.1276
1.15981
54.1304
1.18033
54.1197
1.21726
54.1033
1.25554
54.102
1.28038
54.1154
1.29245
54.1282
1.30047
54.1322
1.30447
54.1362
1.3068
54.1379
1.32189
54.1251
1.35167
54.1105
1.38471
54.1072
1.4126
54.1123
1.41811
54.1347
1.4193
54.139
1.4216
54.1379
1.42458
54.1373
1.42789
54.1369
1.43153
54.1366
1.43532
54.1364
1.43923
54.1363
1.44316
54.1363
1.44681
54.1366
1.44971
54.1373
1.45163
54.1383
1.4528
54.1391
1.45342
54.1396
1.45352
54.1401
1.45334
54.1404
1.4529
54.1407
1.45216
54.141
1.45119
54.1412
1.44997
54.1415
1.44846
54.1417
1.44647
54.1422
1.44393
54.1428
1.4409
54.1433
1.43716
54.144
1.43272
54.1447
1.42749
54.1455
1.42147
54.1463
1.41469
54.147
1.40711
54.1478
1.3989
54.1484
1.38975
54.1494
1.38009
54.1499
1.36953
54.1508
1.35853
54.1512
1.34624
54.1525
1.33379
54.1527
1.31982
54.1542
1.30574
54.1543
1.2915
54.1545
1.27534
54.1564
1.25987
54.1557
1.24333
54.1568
1.22667
54.1569
1.20835
54.1585
1.19223
54.1564
1.17589
54.1566
1.15912
54.157
1.14624
54.1531
1.12905
54.1574
1.11283
54.1565
1.09504
54.158
1.07296
54.1623
1.04936
54.1638
1.0283
54.1613
1.01274
54.1558
0.994764
54.1582
0.976012
54.159
0.95406
54.1622
0.929327
54.165
0.904269
54.1653
0.879434
54.1651
0.85472
54.1649
0.830093
54.1649
0.805629
54.1647
0.780959
54.1649
0.756559
54.1646
0.732041
54.1648
0.707546
54.1647
0.683124
54.1647
0.658673
54.1647
0.634286
54.1646
0.609873
54.1646
0.585618
54.1645
0.561359
54.1645
0.537403
54.1642
0.513355
54.1643
0.489542
54.164
0.465896
54.1639
0.442523
54.1636
0.41932
54.1634
0.396623
54.1629
0.374234
54.1626
0.352422
54.162
0.331063
54.1616
0.310046
54.1613
0.289331
54.161
0.268434
54.1611
0.247484
54.1612