/*--------------------------------*- C++ -*----------------------------------*\
| =========                 |                                                 |
| \\      /  F ield         | OpenFOAM: The Open Source CFD Toolbox           |
|  \\    /   O peration     | Version:  5.x                                   |
|   \\  /    A nd           | Web:      www.OpenFOAM.org                      |
|    \\/     M anipulation  |                                                 |
\*---------------------------------------------------------------------------*/
/*   Windows 32 and 64 bit porting by blueCAPE: http://www.bluecape.com.pt   *\
|  Based on Windows porting (2.0.x v4) by Symscape: http://www.symscape.com   |
\*---------------------------------------------------------------------------*/
FoamFile
{
    version     2.0;
    format      ascii;
    class       volVectorField;
    location    "310";
    object      U;
}
// * * * * * * * * * * * * * * * * * * * * * * * * * * * * * * * * * * * * * //

dimensions      [0 1 -1 0 0 0 0];

internalField   nonuniform List<vector> 
43900
(
(1.16163 -0.000737149 -1.62191e-027)
(1.16715 0.00217711 -4.34645e-027)
(1.16973 0.000361827 1.43529e-030)
(1.16838 0.0018233 2.8035e-030)
(1.16975 0.000796037 3.65126e-030)
(1.16992 0.00197683 3.66724e-030)
(1.17012 0.00118132 5.80263e-027)
(1.17052 0.0018517 -1.15852e-026)
(1.17042 0.00164091 9.68891e-030)
(1.17006 0.00177471 -1.15562e-026)
(1.16998 0.00190158 1.15783e-026)
(1.17014 0.00193412 1.15701e-029)
(1.1701 0.00198144 -1.15201e-026)
(1.17 0.00203064 2.50019e-029)
(1.17015 0.00210034 2.56183e-029)
(1.17015 0.00211306 2.62992e-029)
(1.16991 0.00217537 -2.29335e-026)
(1.16984 0.00220918 5.50513e-029)
(1.16988 0.00222691 2.2961e-026)
(1.16993 0.00228122 2.85654e-029)
(1.17007 0.00228523 2.90654e-029)
(1.17002 0.00233691 2.95116e-029)
(1.16992 0.00236133 2.99295e-029)
(1.16997 0.00237062 3.03391e-029)
(1.16995 0.00242258 3.06734e-029)
(1.16998 0.00241752 -2.26638e-026)
(1.17008 0.00244398 6.28055e-029)
(1.17001 0.00248593 6.33437e-029)
(1.16996 0.0024722 9.04654e-026)
(1.1587 0.0114629 0)
(1.16551 -0.0049764 0)
(1.17145 0.00906943 0)
(1.1666 -0.000173719 0)
(1.16847 0.00620488 0)
(1.16803 0.00276127 0)
(1.1684 0.0049211 0)
(1.16776 0.00467092 0)
(1.1682 0.00464832 0)
(1.1686 0.00537194 0)
(1.16858 0.00534855 0)
(1.16865 0.0055546 0)
(1.1689 0.00586937 0)
(1.1691 0.00609955 0)
(1.16906 0.00620634 0)
(1.16889 0.00645394 0)
(1.16918 0.00659493 0)
(1.16953 0.00672382 0)
(1.16942 0.00691929 0)
(1.1694 0.00699076 0)
(1.16925 0.0071695 0)
(1.16922 0.00727791 0)
(1.1695 0.00735347 0)
(1.16948 0.00751726 0)
(1.16944 0.00755075 0)
(1.16953 0.0076653 0)
(1.1694 0.0077964 0)
(1.16938 0.00781302 0)
(1.16957 0.0079575 0)
(1.102 0.0321351 0)
(1.14468 -0.0175706 0)
(1.16303 0.0288209 0)
(1.16316 -0.00367091 0)
(1.16628 0.0209131 0)
(1.16423 0.00403152 0)
(1.16571 0.0150631 0)
(1.16643 0.00842981 0)
(1.16658 0.0118948 0)
(1.16652 0.0106479 0)
(1.16671 0.0108041 0)
(1.16673 0.011139 0)
(1.16679 0.0111395 0)
(1.16705 0.0111755 0)
(1.16711 0.0113896 0)
(1.16741 0.0114673 0)
(1.16769 0.0115714 0)
(1.16744 0.0117747 0)
(1.16751 0.011823 0)
(1.16776 0.0120204 0)
(1.16783 0.0121422 0)
(1.16802 0.0122087 0)
(1.16797 0.0124127 0)
(1.16798 0.0124743 0)
(1.16819 0.012637 0)
(1.16813 0.0128428 0)
(1.16806 0.012855 0)
(1.16827 0.0130442 0)
(1.16831 0.0131347 1.59152e-027)
(1.04069 0.0199832 0)
(1.08656 -0.00671447 0)
(1.12948 0.0201114 0)
(1.15548 0.00819711 0)
(1.16319 0.0222575 0)
(1.16587 0.0107508 0)
(1.16463 0.0205919 0)
(1.16342 0.0136575 0)
(1.16449 0.0181502 0)
(1.16472 0.0157594 0)
(1.16485 0.0168533 0)
(1.16514 0.0165521 0)
(1.16529 0.0165486 0)
(1.16522 0.0166167 0)
(1.16549 0.0165707 0)
(1.16571 0.0166532 0)
(1.16552 0.0167216 0)
(1.16573 0.0166891 0)
(1.16612 0.0168214 0)
(1.16605 0.0169019 0)
(1.16614 0.016896 0)
(1.16626 0.0171128 0)
(1.1663 0.0171497 0)
(1.16616 0.0172715 0)
(1.16601 0.0173939 0)
(1.16617 0.0173545 0)
(1.1667 0.0175305 0)
(1.16684 0.0176366 0)
(1.16662 0.017743 1.6971e-027)
(1.00342 0.0101878 3.40067e-027)
(1.03892 -0.000903652 0)
(1.07578 0.0108253 0)
(1.11404 0.0129002 0)
(1.14437 0.0183166 0)
(1.15997 0.0173568 0)
(1.16326 0.0228438 0)
(1.16433 0.0185662 0)
(1.1634 0.0217012 0)
(1.16374 0.0203718 0)
(1.16395 0.0208297 0)
(1.16383 0.021174 0)
(1.16397 0.021091 0)
(1.16419 0.0211877 0)
(1.16394 0.0213695 0)
(1.16394 0.0214378 0)
(1.16439 0.0215293 0)
(1.16444 0.0217615 0)
(1.16405 0.0218501 0)
(1.16418 0.0218764 0)
(1.16425 0.0221597 0)
(1.16412 0.022173 0)
(1.16419 0.02227 0)
(1.16487 0.0224433 0)
(1.16552 0.0225032 0)
(1.16554 0.0227386 0)
(1.16489 0.0229419 0)
(1.16437 0.0230312 0)
(1.16468 0.0231782 -7.14432e-027)
(0.976096 0.00685075 -3.54909e-027)
(1.00598 0.000672968 0)
(1.03721 0.00760573 0)
(1.06961 0.0110521 0)
(1.10206 0.0149267 0)
(1.13239 0.0182357 0)
(1.15273 0.0221922 0)
(1.16099 0.0223186 0)
(1.16224 0.02461 0)
(1.16199 0.0230674 0)
(1.1622 0.0244733 0)
(1.1625 0.0243277 0)
(1.16233 0.0246447 0)
(1.1623 0.0249242 0)
(1.16256 0.0251233 0)
(1.16244 0.0254259 0)
(1.16199 0.0256725 0)
(1.16213 0.0258418 0)
(1.16281 0.0260851 0)
(1.16273 0.0265026 0)
(1.16265 0.0265474 0)
(1.16315 0.026784 0)
(1.16346 0.0271553 0)
(1.16294 0.0272639 0)
(1.16202 0.0276219 0)
(1.16187 0.0278483 0)
(1.16247 0.0279221 0)
(1.16382 0.0282156 0)
(1.16412 0.0284156 3.78202e-027)
(0.952936 0.00527132 0)
(0.979256 0.00142942 0)
(1.00683 0.00644511 0)
(1.03547 0.00966829 0)
(1.06458 0.0129998 0)
(1.0935 0.0166296 0)
(1.12155 0.0203927 0)
(1.14487 0.0232827 0)
(1.15643 0.0259624 0)
(1.15961 0.0264991 0)
(1.15944 0.0264565 0)
(1.1593 0.0274246 0)
(1.1597 0.0275146 0)
(1.15951 0.0280439 0)
(1.1593 0.0283863 0)
(1.15976 0.0287603 0)
(1.16001 0.0291796 0)
(1.15973 0.029473 0)
(1.15921 0.0299079 0)
(1.15948 0.0300225 0)
(1.16007 0.0305588 0)
(1.15974 0.0310122 0)
(1.15908 0.0311716 0)
(1.15927 0.0315601 0)
(1.16047 0.0318994 0)
(1.16113 0.0321272 0)
(1.16132 0.0324562 0)
(1.16024 0.0328127 0)
(1.15939 0.0330904 0)
(0.931811 0.00444179 0)
(0.955778 0.0018906 0)
(0.980903 0.0060118 0)
(1.00701 0.00906427 0)
(1.03373 0.01211 0)
(1.06062 0.0154061 0)
(1.08718 0.0189536 0)
(1.11262 0.0225227 0)
(1.13582 0.0258462 0)
(1.1505 0.0282437 0)
(1.15554 0.0300354 0)
(1.15562 0.0298037 0)
(1.15525 0.0306842 0)
(1.15573 0.0310403 0)
(1.15587 0.0317355 0)
(1.15539 0.0321056 0)
(1.15583 0.0326101 0)
(1.15633 0.0331954 0)
(1.15669 0.0335667 0)
(1.15648 0.0341979 0)
(1.15587 0.0346118 0)
(1.15613 0.0347879 0)
(1.15724 0.0355872 0)
(1.15772 0.0359728 0)
(1.15732 0.036297 0)
(1.15631 0.0368634 0)
(1.15599 0.0373815 0)
(1.15682 0.037732 0)
(1.15828 0.0383952 0)
(0.911908 0.00387164 0)
(0.934116 0.00230393 0)
(0.957397 0.00591867 0)
(0.981601 0.00890596 0)
(1.00645 0.0118513 0)
(1.03161 0.0149705 0)
(1.05675 0.0182976 0)
(1.08142 0.0217785 0)
(1.1051 0.0253181 0)
(1.12709 0.0285989 0)
(1.14374 0.0314175 0)
(1.15036 0.0334872 0)
(1.1508 0.0335154 0)
(1.15045 0.0344052 0)
(1.1508 0.0349846 0)
(1.15137 0.035674 0)
(1.15084 0.0362842 0)
(1.15106 0.0367184 0)
(1.15151 0.0376177 0)
(1.15171 0.0379302 0)
(1.15239 0.0386724 0)
(1.15259 0.0394234 0)
(1.15177 0.0397951 0)
(1.15126 0.0403321 0)
(1.15175 0.0410721 0)
(1.15348 0.0416685 0)
(1.15392 0.0421978 0)
(1.15351 0.0425671 0)
(1.15238 0.0430381 0)
(0.892535 0.00336601 0)
(0.913424 0.00271926 0)
(0.935317 0.00602648 0)
(0.958072 0.00900615 0)
(0.981462 0.0119349 0)
(1.00524 0.0149898 0)
(1.02913 0.0182139 0)
(1.05284 0.0215813 0)
(1.07603 0.0250559 0)
(1.09827 0.0285697 0)
(1.11892 0.0319156 0)
(1.13653 0.0348819 0)
(1.14438 0.0373424 0)
(1.14521 0.0376253 0)
(1.14502 0.0386208 0)
(1.14497 0.0393193 0)
(1.14601 0.0400375 0)
(1.14577 0.0408085 0)
(1.1454 0.0414206 0)
(1.14608 0.0423074 0)
(1.14638 0.0430307 0)
(1.14605 0.0436507 0)
(1.14692 0.0444311 0)
(1.14805 0.0452769 0)
(1.14794 0.0457112 0)
(1.14657 0.0463443 0)
(1.14665 0.047066 0)
(1.14803 0.0477553 0)
(1.14995 0.0486638 -9.98982e-027)
(0.873416 0.00320872 0)
(0.893225 0.00303022 0)
(0.914021 0.00628565 0)
(0.935644 0.00932612 0)
(0.957898 0.0123068 0)
(0.980567 0.0153851 0)
(1.00343 0.0186064 0)
(1.02625 0.0219528 0)
(1.04878 0.0253994 0)
(1.07071 0.0289201 0)
(1.09167 0.0324625 0)
(1.11103 0.0358684 0)
(1.12848 0.0389631 0)
(1.13776 0.0417164 0)
(1.13869 0.0421937 0)
(1.139 0.0434197 0)
(1.1386 0.0442035 0)
(1.13939 0.0449195 0)
(1.14014 0.0461433 0)
(1.13949 0.0465944 0)
(1.13945 0.0476492 0)
(1.14092 0.0484218 0)
(1.14108 0.0491819 0)
(1.14041 0.050026 0)
(1.14104 0.0508242 0)
(1.14313 0.0517548 0)
(1.1437 0.0526764 0)
(1.14289 0.0529723 0)
(1.14176 0.0537708 1.05383e-026)
(0.854323 0.00317229 0)
(0.873205 0.00334296 0)
(0.893054 0.0066564 0)
(0.913723 0.00981883 0)
(0.935033 0.0129164 0)
(0.956796 0.0160946 0)
(0.978812 0.0193995 0)
(1.00088 0.0228169 0)
(1.0228 0.0263255 0)
(1.04435 0.029905 0)
(1.06526 0.0335293 0)
(1.08521 0.0371472 0)
(1.10374 0.0406291 0)
(1.12059 0.0438616 0)
(1.13052 0.0467594 0)
(1.1314 0.047658 0)
(1.13222 0.0489955 0)
(1.13147 0.0498193 0)
(1.13223 0.0507776 0)
(1.13331 0.0521458 0)
(1.13414 0.0529038 0)
(1.1333 0.0538232 0)
(1.13366 0.0549077 0)
(1.1353 0.0560616 0)
(1.13515 0.0567597 0)
(1.13415 0.0577944 0)
(1.13471 0.0587319 0)
(1.13716 0.0595877 0)
(1.13892 0.0613351 1.15787e-026)
(0.834994 0.00309785 0)
(0.853073 0.00370425 0)
(0.872104 0.00710648 0)
(0.891949 0.0104234 0)
(0.912444 0.0136812 0)
(0.933421 0.0170101 0)
(0.954703 0.0204549 0)
(0.976114 0.0240044 0)
(0.997475 0.0276402 0)
(1.0186 0.0313456 0)
(1.03931 0.0351013 0)
(1.05936 0.0388813 0)
(1.07849 0.0426374 0)
(1.09628 0.0462582 0)
(1.11251 0.0496557 0)
(1.12271 0.0526956 0)
(1.12316 0.0540426 0)
(1.12447 0.0550893 0)
(1.12405 0.0565997 0)
(1.12514 0.0573654 0)
(1.12512 0.0591527 0)
(1.12668 0.0602334 0)
(1.1264 0.0612635 0)
(1.12611 0.0625702 0)
(1.12738 0.0634622 0)
(1.12968 0.0648532 0)
(1.1298 0.0658905 0)
(1.12837 0.0664464 0)
(1.12834 0.0674043 -1.22203e-026)
(0.815439 0.00307876 0)
(0.83278 0.00407784 0)
(0.851062 0.00761732 0)
(0.870169 0.0111185 0)
(0.889944 0.014568 0)
(0.910223 0.018082 0)
(0.930854 0.0217043 0)
(0.951674 0.0254256 0)
(0.972525 0.0292296 0)
(0.993248 0.0331018 0)
(1.01368 0.0370266 0)
(1.03365 0.0409845 0)
(1.05296 0.04495 0)
(1.07134 0.0488751 0)
(1.08843 0.0526423 0)
(1.10414 0.056215 0)
(1.11428 0.0595339 0)
(1.11435 0.0608333 0)
(1.116 0.0620996 0)
(1.11548 0.0639354 0)
(1.11662 0.0647551 0)
(1.11667 0.0664506 0)
(1.11812 0.0675698 0)
(1.11989 0.0692868 0)
(1.11935 0.070002 0)
(1.11946 0.0712552 0)
(1.12089 0.0727941 0)
(1.12354 0.0740966 0)
(1.12498 0.0758575 -1.34561e-026)
(0.795562 0.00311821 0)
(0.812225 0.0044783 0)
(0.829823 0.00821086 0)
(0.848246 0.0119345 0)
(0.867365 0.0156151 0)
(0.887021 0.0193581 0)
(0.907062 0.0232043 0)
(0.927346 0.0271471 0)
(0.947728 0.0311717 0)
(0.968067 0.0352652 0)
(0.98822 0.0394145 0)
(1.00804 0.0436032 0)
(1.02738 0.0478115 0)
(1.04603 0.0520131 0)
(1.06378 0.056159 0)
(1.0803 0.0601208 0)
(1.0956 0.0639696 0)
(1.10551 0.0674195 0)
(1.10554 0.0689738 0)
(1.10723 0.0704712 0)
(1.10721 0.07242 0)
(1.10888 0.0735753 0)
(1.10956 0.0749816 0)
(1.11001 0.0769044 0)
(1.11215 0.0779416 0)
(1.11363 0.0801047 0)
(1.11311 0.0810871 0)
(1.11301 0.0819172 0)
(1.11466 0.0837193 1.42333e-026)
(0.775241 0.00320532 0)
(0.791265 0.00490243 0)
(0.808226 0.00887313 0)
(0.826012 0.0128544 0)
(0.844505 0.0167971 0)
(0.863574 0.0208042 0)
(0.883066 0.0249139 0)
(0.902841 0.0291181 0)
(0.92277 0.0334046 0)
(0.942723 0.0377617 0)
(0.962573 0.0421779 0)
(0.982194 0.0466395 0)
(1.00145 0.0511295 0)
(1.02021 0.0556276 0)
(1.03829 0.0601065 0)
(1.05549 0.0645117 0)
(1.07155 0.0687292 0)
(1.08652 0.0728375 0)
(1.0958 0.0764919 0)
(1.09615 0.0782345 0)
(1.09785 0.079719 0)
(1.09902 0.0822323 0)
(1.09997 0.0830033 0)
(1.10125 0.0852811 0)
(1.10125 0.0868236 0)
(1.1027 0.0881661 0)
(1.10457 0.0900595 0)
(1.10699 0.0921537 0)
(1.10627 0.0932506 0)
(0.754492 0.00332492 0)
(0.769905 0.00533868 0)
(0.786259 0.0095751 0)
(0.803447 0.0138365 0)
(0.821352 0.0180609 0)
(0.839855 0.022349 0)
(0.858829 0.0267413 0)
(0.878132 0.0312282 0)
(0.897633 0.0357955 0)
(0.917215 0.040433 0)
(0.936762 0.0451292 0)
(0.95616 0.0498713 0)
(0.975297 0.054644 0)
(0.994054 0.0594293 0)
(1.0123 0.0642057 0)
(1.02989 0.0689428 0)
(1.04664 0.0735805 0)
(1.06234 0.0780137 0)
(1.07688 0.0823788 0)
(1.08533 0.0860809 0)
(1.08669 0.0880027 0)
(1.08758 0.0897044 0)
(1.08918 0.0920869 0)
(1.08986 0.0941141 0)
(1.09178 0.0952301 0)
(1.0925 0.0984236 0)
(1.09378 0.0988579 0)
(1.09551 0.100721 0)
(1.09832 0.103046 0)
(0.73334 0.00347943 0)
(0.748165 0.00579938 0)
(0.763936 0.0103332 0)
(0.780556 0.0149022 0)
(0.797912 0.0194365 0)
(0.815882 0.0240333 0)
(0.834354 0.0287338 0)
(0.853206 0.0335314 0)
(0.872309 0.0384108 0)
(0.891552 0.043361 0)
(0.910824 0.0483712 0)
(0.93002 0.053429 0)
(0.94904 0.0585199 0)
(0.96778 0.0636275 0)
(0.986137 0.0687329 0)
(1.00399 0.0738141 0)
(1.02121 0.0788387 0)
(1.03765 0.0837432 0)
(1.05316 0.0884515 0)
(1.06754 0.0931078 0)
(1.07519 0.0968374 0)
(1.07704 0.0992801 0)
(1.07747 0.101269 0)
(1.07956 0.103309 0)
(1.08099 0.106239 0)
(1.08359 0.106993 0)
(1.08479 0.110296 0)
(1.08584 0.112419 0)
(1.08732 0.112859 0)
(0.711757 0.00366536 4.09919e-026)
(0.726008 0.0062887 0)
(0.741214 0.0111514 0)
(0.757283 0.0160574 0)
(0.774109 0.0209305 0)
(0.791577 0.0258681 0)
(0.809574 0.030911 0)
(0.827988 0.0360529 0)
(0.8467 0.0412792 0)
(0.865599 0.0465778 0)
(0.884586 0.0519401 0)
(0.903566 0.0573537 0)
(0.922443 0.0628057 0)
(0.941128 0.0682813 0)
(0.959528 0.0737637 0)
(0.977547 0.0792341 0)
(0.995079 0.0846705 0)
(1.01201 0.0900389 0)
(1.02822 0.0952715 0)
(1.04366 0.10034 0)
(1.05777 0.105272 0)
(1.06413 0.109188 0)
(1.06726 0.111543 0)
(1.06776 0.114367 0)
(1.07079 0.115219 0)
(1.0718 0.119194 0)
(1.07463 0.119858 0)
(1.07747 0.122119 0)
(1.07827 0.125946 0)
(0.689762 0.00387508 1.34643e-027)
(0.703449 0.0068013 0)
(0.718101 0.0120177 0)
(0.73363 0.0172834 0)
(0.749936 0.0225171 0)
(0.766911 0.0278183 0)
(0.784444 0.0332269 0)
(0.802432 0.0387372 0)
(0.820769 0.0443357 0)
(0.839343 0.0500096 0)
(0.858055 0.0557474 0)
(0.876813 0.0615391 0)
(0.895533 0.0673717 0)
(0.91413 0.0732311 0)
(0.932523 0.0791018 0)
(0.950628 0.0849662 0)
(0.96836 0.0908049 0)
(0.985624 0.0965942 0)
(1.00232 0.102296 0)
(1.01838 0.107841 0)
(1.03383 0.113268 0)
(1.04761 0.118311 0)
(1.05373 0.12243 0)
(1.05717 0.124432 0)
(1.05868 0.127902 0)
(1.06171 0.129155 0)
(1.06265 0.132848 0)
(1.0648 0.134906 0)
(1.06982 0.136095 0)
(0.667383 0.00410873 -4.73137e-026)
(0.680515 0.00734173 0)
(0.694623 0.0129374 0)
(0.709624 0.0185872 0)
(0.725423 0.0242054 0)
(0.741919 0.0298941 0)
(0.759005 0.0356948 0)
(0.776578 0.0415996 0)
(0.794537 0.0475955 0)
(0.812785 0.0536706 0)
(0.831221 0.0598133 0)
(0.849762 0.0660125 0)
(0.868324 0.0722557 0)
(0.88683 0.0785291 0)
(0.905203 0.084818 0)
(0.92337 0.0911063 0)
(0.941256 0.097376 0)
(0.958784 0.103608 0)
(0.975872 0.109778 0)
(0.992447 0.11585 0)
(1.00847 0.121768 0)
(1.02414 0.127499 0)
(1.03861 0.133216 0)
(1.04365 0.136931 0)
(1.04764 0.139236 0)
(1.0494 0.143514 0)
(1.0529 0.14444 0)
(1.05374 0.148249 0)
(1.05618 0.151116 0)
(0.644643 0.00436159 0)
(0.657224 0.00790705 0)
(0.670795 0.0139049 0)
(0.685274 0.0199607 0)
(0.700573 0.025985 0)
(0.716594 0.0320838 0)
(0.733238 0.0382995 0)
(0.750404 0.0446236 0)
(0.767997 0.0510424 0)
(0.785926 0.0575446 0)
(0.804094 0.064118 0)
(0.822415 0.0707501 0)
(0.840811 0.0774295 0)
(0.859209 0.0841424 0)
(0.877538 0.0908744 0)
(0.895731 0.0976102 0)
(0.91372 0.104333 0)
(0.931438 0.111025 0)
(0.948817 0.117667 0)
(0.965788 0.124237 0)
(0.982291 0.130708 0)
(0.998288 0.136935 0)
(1.01467 0.143187 0)
(1.02899 0.149377 0)
(1.03378 0.152718 0)
(1.0376 0.155633 0)
(1.03987 0.159823 0)
(1.04395 0.160582 0)
(1.04618 0.163985 0)
(0.621586 0.00463234 -5.78095e-026)
(0.633623 0.00849603 0)
(0.646662 0.0149168 0)
(0.660626 0.0213985 0)
(0.675431 0.0278485 0)
(0.690985 0.0343772 0)
(0.707194 0.0410283 0)
(0.723961 0.0477931 0)
(0.741191 0.0546557 0)
(0.758798 0.0616049 0)
(0.776694 0.0686292 0)
(0.794795 0.0757156 0)
(0.813026 0.0828513 0)
(0.831314 0.0900223 0)
(0.849593 0.097214 0)
(0.867799 0.104411 0)
(0.885868 0.111597 0)
(0.903741 0.118755 0)
(0.921357 0.125865 0)
(0.938654 0.132909 0)
(0.955577 0.139865 0)
(0.972089 0.146693 0)
(0.988249 0.153276 0)
(1.00489 0.160038 0)
(1.01963 0.166355 0)
(1.02386 0.170008 0)
(1.02881 0.173183 0)
(1.03103 0.177089 0)
(1.0365 0.179038 5.45661e-026)
(0.598257 0.00491999 -1.64946e-027)
(0.609755 0.00910762 0)
(0.622266 0.0159715 0)
(0.635719 0.0228982 0)
(0.650034 0.0297929 0)
(0.665125 0.0367712 0)
(0.680901 0.0438783 0)
(0.697271 0.0511047 0)
(0.714145 0.0584339 0)
(0.731439 0.0658538 0)
(0.749071 0.0733529 0)
(0.766958 0.0809174 0)
(0.785025 0.0885326 0)
(0.803203 0.0961855 0)
(0.821429 0.103861 0)
(0.839641 0.111543 0)
(0.857781 0.119216 0)
(0.875791 0.126862 0)
(0.893617 0.134465 0)
(0.911205 0.142003 0)
(0.928503 0.14946 0)
(0.945471 0.156817 0)
(0.962103 0.164033 0)
(0.978455 0.171046 0)
(0.995671 0.178255 0)
(1.01032 0.184757 0)
(1.01588 0.188861 0)
(1.02058 0.191475 0)
(1.0239 0.195496 1.0739e-027)
(0.574707 0.00522367 6.65958e-026)
(0.58567 0.00973997 0)
(0.597657 0.0170655 0)
(0.610603 0.0244549 0)
(0.624432 0.0318117 0)
(0.639063 0.0392574 0)
(0.654411 0.046839 0)
(0.670389 0.0545463 0)
(0.686911 0.0623624 0)
(0.703893 0.070273 0)
(0.721258 0.0782666 0)
(0.738928 0.0863296 0)
(0.756831 0.0944466 0)
(0.774899 0.102604 0)
(0.793071 0.110784 0)
(0.811285 0.118972 0)
(0.829486 0.127151 0)
(0.84762 0.135305 0)
(0.865635 0.143414 0)
(0.88348 0.15146 0)
(0.901107 0.159425 0)
(0.918477 0.16729 0)
(0.93556 0.175035 0)
(0.952364 0.182615 0)
(0.969061 0.190031 0)
(0.987005 0.197568 0)
(1.00188 0.204357 0)
(1.00899 0.208338 0)
(1.01303 0.211035 -6.23734e-026)
(0.550991 0.00554236 0)
(0.561422 0.010391 0)
(0.57289 0.0181955 0)
(0.585332 0.0260636 0)
(0.598678 0.0338981 0)
(0.612851 0.0418279 0)
(0.62777 0.0499013 0)
(0.643355 0.0581076 0)
(0.659523 0.0664288 0)
(0.676195 0.0748502 0)
(0.693295 0.0833599 0)
(0.710753 0.0919433 0)
(0.728496 0.100584 0)
(0.746456 0.109266 0)
(0.764574 0.117972 0)
(0.782791 0.126686 0)
(0.801052 0.13539 0)
(0.819306 0.144066 0)
(0.837502 0.152696 0)
(0.855592 0.16126 0)
(0.873532 0.16974 0)
(0.891279 0.178115 0)
(0.908803 0.186369 0)
(0.926088 0.194477 0)
(0.943189 0.202413 0)
(0.960517 0.210202 0)
(0.979076 0.218213 0)
(0.994822 0.224998 0)
(1.00234 0.229627 0)
(0.527164 0.00587579 0)
(0.537069 0.0110595 0)
(0.548022 0.0193596 0)
(0.559963 0.0277215 0)
(0.572827 0.036049 0)
(0.586543 0.0444786 0)
(0.601036 0.0530607 0)
(0.61623 0.0617834 0)
(0.632047 0.0706281 0)
(0.64841 0.0795799 0)
(0.665247 0.0886239 0)
(0.682489 0.0977458 0)
(0.700068 0.106929 0)
(0.717918 0.116154 0)
(0.735983 0.125407 0)
(0.754205 0.134668 0)
(0.772529 0.143917 0)
(0.790905 0.153137 0)
(0.809283 0.162306 0)
(0.827618 0.171407 0)
(0.845865 0.180418 0)
(0.863983 0.18932 0)
(0.881938 0.198094 0)
(0.899708 0.20672 0)
(0.917301 0.215182 0)
(0.934865 0.223474 0)
(0.952762 0.231675 0)
(0.9722 0.240049 0)
(0.98844 0.247176 7.32737e-026)
(0.503285 0.00622223 0)
(0.512669 0.0117429 0)
(0.52311 0.0205534 0)
(0.534553 0.0294221 0)
(0.546937 0.0382554 0)
(0.560197 0.0471986 0)
(0.574263 0.0563039 0)
(0.589064 0.0655585 0)
(0.604526 0.0749432 0)
(0.620578 0.0844426 0)
(0.63715 0.0940407 0)
(0.654177 0.103723 0)
(0.671596 0.113473 0)
(0.689341 0.123269 0)
(0.707355 0.133091 0)
(0.725582 0.142922 0)
(0.74397 0.15274 0)
(0.76247 0.162525 0)
(0.781033 0.172256 0)
(0.799613 0.181911 0)
(0.818166 0.19147 0)
(0.836652 0.200911 0)
(0.855033 0.210214 0)
(0.873281 0.219359 0)
(0.891383 0.22833 0)
(0.909382 0.237119 0)
(0.927427 0.245732 0)
(0.945796 0.254296 0)
(0.966967 0.263173 9.54083e-028)
(0.479411 0.00658137 0)
(0.48828 0.012441 0)
(0.498215 0.0217764 0)
(0.509163 0.0311647 0)
(0.521068 0.0405168 0)
(0.533871 0.0499878 0)
(0.547508 0.0596317 0)
(0.561913 0.0694352 0)
(0.577018 0.0793782 0)
(0.592754 0.0894444 0)
(0.609057 0.0996178 0)
(0.625862 0.109881 0)
(0.643113 0.120217 0)
(0.660749 0.130604 0)
(0.67871 0.14102 0)
(0.696946 0.151445 0)
(0.715403 0.161856 0)
(0.734033 0.172232 0)
(0.752788 0.182547 0)
(0.771622 0.192781 0)
(0.790491 0.202909 0)
(0.809353 0.212909 0)
(0.828169 0.222757 0)
(0.846905 0.232434 0)
(0.865537 0.241919 0)
(0.884062 0.251201 0)
(0.902526 0.260293 0)
(0.92091 0.269121 0)
(0.940959 0.278221 -1.65937e-025)
(0.455599 0.00695099 0)
(0.463961 0.0131516 0)
(0.473394 0.0230248 0)
(0.483848 0.0329433 0)
(0.495274 0.0428252 0)
(0.507619 0.0528361 0)
(0.520824 0.0630321 0)
(0.534829 0.073399 0)
(0.54957 0.0839162 0)
(0.564986 0.094567 0)
(0.581016 0.105335 0)
(0.597598 0.116201 0)
(0.614678 0.127146 0)
(0.632199 0.138148 0)
(0.650106 0.149184 0)
(0.668346 0.160231 0)
(0.686872 0.171265 0)
(0.705633 0.182259 0)
(0.724585 0.193189 0)
(0.74368 0.20403 0)
(0.762875 0.214754 0)
(0.782127 0.225338 0)
(0.801393 0.235754 0)
(0.820637 0.245981 0)
(0.839825 0.255994 0)
(0.858934 0.265778 0)
(0.87796 0.275326 0)
(0.896896 0.284627 0)
(0.91612 0.293597 -6.7433e-028)
(0.431906 0.00732915 0)
(0.439768 0.0138733 0)
(0.448705 0.0242957 0)
(0.458668 0.0347537 0)
(0.469616 0.0451751 0)
(0.481499 0.0557369 0)
(0.494267 0.0664973 0)
(0.507865 0.0774415 0)
(0.522236 0.0885487 0)
(0.537321 0.099802 0)
(0.553065 0.111184 0)
(0.569413 0.122676 0)
(0.586312 0.134257 0)
(0.603712 0.145904 0)
(0.621558 0.157591 0)
(0.639802 0.169292 0)
(0.658394 0.18098 0)
(0.67729 0.192627 0)
(0.696443 0.204205 0)
(0.715809 0.215685 0)
(0.735342 0.227037 0)
(0.754999 0.238233 0)
(0.774737 0.249244 0)
(0.794515 0.260043 0)
(0.814292 0.270602 0)
(0.834036 0.280899 0)
(0.85372 0.290916 0)
(0.873328 0.300652 0)
(0.892913 0.310002 9.3331e-026)
(0.408386 0.00771342 0)
(0.415757 0.0146049 0)
(0.424204 0.0255866 0)
(0.43368 0.0365918 0)
(0.444147 0.0475611 0)
(0.455566 0.0586842 0)
(0.467891 0.0700213 0)
(0.481073 0.0815573 0)
(0.495061 0.0932712 0)
(0.509804 0.105146 0)
(0.525251 0.117165 0)
(0.541351 0.129306 0)
(0.558054 0.141548 0)
(0.575316 0.153866 0)
(0.59309 0.166233 0)
(0.611328 0.17862 0)
(0.629984 0.190998 0)
(0.649015 0.203336 0)
(0.668374 0.2156 0)
(0.688018 0.227759 0)
(0.707903 0.239779 0)
(0.727985 0.251626 0)
(0.748219 0.263267 0)
(0.768561 0.27467 0)
(0.788968 0.285804 0)
(0.809399 0.296638 0)
(0.829816 0.307149 0)
(0.850187 0.31732 0)
(0.870498 0.327136 9.92307e-026)
(0.385091 0.00810064 0)
(0.391984 0.0153442 0)
(0.399947 0.0268932 0)
(0.408938 0.0384508 0)
(0.418923 0.0499745 0)
(0.429872 0.0616672 0)
(0.441745 0.0735911 0)
(0.4545 0.0857306 0)
(0.468093 0.0980654 0)
(0.482477 0.110579 0)
(0.49761 0.123253 0)
(0.513445 0.136068 0)
(0.52994 0.148998 0)
(0.547052 0.162017 0)
(0.564738 0.175098 0)
(0.582954 0.188208 0)
(0.601662 0.201316 0)
(0.620818 0.214387 0)
(0.640381 0.227383 0)
(0.660308 0.240267 0)
(0.680556 0.253001 0)
(0.70108 0.265545 0)
(0.721836 0.277861 0)
(0.742777 0.28991 0)
(0.763856 0.301654 0)
(0.785027 0.313059 0)
(0.806243 0.324092 0)
(0.827461 0.334726 0)
(0.848646 0.344953 -1.04721e-025)
(0.362075 0.00848736 0)
(0.368501 0.016089 0)
(0.375989 0.0282108 0)
(0.384496 0.0403236 0)
(0.393999 0.0524063 0)
(0.404472 0.064675 0)
(0.415883 0.0771939 0)
(0.428198 0.0899476 0)
(0.441379 0.102916 0)
(0.455386 0.116084 0)
(0.470183 0.129434 0)
(0.485731 0.142944 0)
(0.501991 0.156591 0)
(0.518929 0.170346 0)
(0.536507 0.18418 0)
(0.554687 0.198056 0)
(0.57343 0.211939 0)
(0.592701 0.22579 0)
(0.612462 0.239568 0)
(0.632672 0.253229 0)
(0.65329 0.266729 0)
(0.674274 0.280024 0)
(0.695576 0.293066 0)
(0.71715 0.30581 0)
(0.738945 0.318212 0)
(0.76091 0.330228 0)
(0.782992 0.341818 0)
(0.805138 0.352945 0)
(0.827299 0.363586 1.10287e-025)
(0.339389 0.00886988 0)
(0.34536 0.0168363 0)
(0.352382 0.0295338 0)
(0.360409 0.0422021 0)
(0.369426 0.054846 0)
(0.379416 0.0676956 0)
(0.390355 0.0808166 0)
(0.402214 0.0941941 0)
(0.414964 0.10781 0)
(0.428573 0.121649 0)
(0.443009 0.135695 0)
(0.458242 0.149926 0)
(0.474239 0.164318 0)
(0.490972 0.178841 0)
(0.508413 0.193463 0)
(0.526529 0.208148 0)
(0.545289 0.222854 0)
(0.564659 0.237538 0)
(0.584607 0.252154 0)
(0.605097 0.266653 0)
(0.62609 0.280983 0)
(0.647545 0.29509 0)
(0.669417 0.308921 0)
(0.691659 0.322421 0)
(0.714216 0.335535 0)
(0.737032 0.348211 0)
(0.760049 0.3604 0)
(0.783204 0.372056 0)
(0.806437 0.383141 -2.32308e-025)
(0.317083 0.00924421 0)
(0.322615 0.0175821 0)
(0.329178 0.030855 0)
(0.336727 0.0440758 0)
(0.345256 0.0572805 0)
(0.354754 0.0707132 0)
(0.365208 0.0844408 0)
(0.376595 0.0984494 0)
(0.388892 0.112723 0)
(0.402076 0.127247 0)
(0.416124 0.142008 0)
(0.431011 0.156984 0)
(0.446715 0.17215 0)
(0.463212 0.187474 0)
(0.480482 0.202924 0)
(0.498501 0.218461 0)
(0.517245 0.23404 0)
(0.536688 0.249616 0)
(0.556804 0.265134 0)
(0.577561 0.280539 0)
(0.598926 0.295771 0)
(0.620862 0.310767 0)
(0.643326 0.325462 0)
(0.666269 0.339789 0)
(0.689636 0.353683 0)
(0.713366 0.367081 0)
(0.737393 0.37992 0)
(0.761644 0.392145 0)
(0.786048 0.403705 9.86989e-028)
(0.295207 0.00960621 0)
(0.300314 0.0183206 0)
(0.306428 0.0321648 0)
(0.313502 0.0459315 0)
(0.321538 0.0596933 0)
(0.330537 0.0737083 0)
(0.340491 0.0880442 0)
(0.351386 0.102688 0)
(0.363207 0.117627 0)
(0.375939 0.132849 0)
(0.389566 0.14834 0)
(0.404072 0.164082 0)
(0.419444 0.180048 0)
(0.435667 0.196209 0)
(0.452728 0.21253 0)
(0.470612 0.228969 0)
(0.489301 0.24548 0)
(0.508782 0.262011 0)
(0.529035 0.278502 0)
(0.550039 0.294891 0)
(0.571768 0.311108 0)
(0.594187 0.327078 0)
(0.61726 0.342724 0)
(0.640937 0.357965 0)
(0.665163 0.372722 0)
(0.689874 0.386914 0)
(0.714993 0.400466 0)
(0.740439 0.413307 0)
(0.766123 0.425374 1.41259e-027)
(0.273814 0.00995183 0)
(0.27851 0.0190445 0)
(0.284183 0.0334514 0)
(0.290783 0.0477528 0)
(0.298323 0.0620643 0)
(0.306812 0.0766572 0)
(0.316251 0.0915997 0)
(0.326634 0.106881 0)
(0.337955 0.12249 0)
(0.350204 0.138419 0)
(0.363375 0.154655 0)
(0.377462 0.171183 0)
(0.392458 0.187976 0)
(0.408358 0.205007 0)
(0.425159 0.222241 0)
(0.44286 0.239636 0)
(0.461451 0.257139 0)
(0.480927 0.274694 0)
(0.501281 0.292238 0)
(0.522503 0.309698 0)
(0.544575 0.326994 0)
(0.567473 0.34404 0)
(0.591165 0.360742 0)
(0.615608 0.377003 0)
(0.640745 0.392721 0)
(0.666508 0.407799 0)
(0.692813 0.42214 0)
(0.719564 0.435655 0)
(0.746655 0.448265 1.33872e-025)
(0.252956 0.0102774 0)
(0.257254 0.0197441 0)
(0.262493 0.0347002 0)
(0.26862 0.0495201 0)
(0.275658 0.0643691 0)
(0.283627 0.079531 0)
(0.292536 0.0950737 0)
(0.302386 0.110988 0)
(0.313179 0.127268 0)
(0.324914 0.143909 0)
(0.337593 0.160903 0)
(0.351217 0.178232 0)
(0.36579 0.195878 0)
(0.381317 0.213811 0)
(0.397803 0.231997 0)
(0.415261 0.250394 0)
(0.433695 0.268951 0)
(0.453112 0.287606 0)
(0.473518 0.30629 0)
(0.494915 0.324921 0)
(0.5173 0.34341 0)
(0.540661 0.361653 0)
(0.564978 0.379539 0)
(0.590213 0.396948 0)
(0.616313 0.413755 0)
(0.643207 0.429834 0)
(0.670802 0.445062 0)
(0.698987 0.459325 0)
(0.727634 0.472521 -1.36889e-025)
(0.232687 0.0105801 0)
(0.236596 0.0204077 0)
(0.241408 0.0358943 0)
(0.247062 0.0512104 0)
(0.253593 0.0665786 0)
(0.261031 0.0822943 0)
(0.269394 0.0984242 0)
(0.278689 0.114963 0)
(0.288927 0.131907 0)
(0.300114 0.149258 0)
(0.312262 0.16701 0)
(0.325378 0.185151 0)
(0.339478 0.203664 0)
(0.354575 0.222523 0)
(0.370687 0.241696 0)
(0.387837 0.261145 0)
(0.406044 0.280817 0)
(0.42533 0.300647 0)
(0.44572 0.320565 0)
(0.467233 0.340481 0)
(0.489884 0.360291 0)
(0.513678 0.379877 0)
(0.538611 0.399103 0)
(0.564658 0.417824 0)
(0.591773 0.435881 0)
(0.619885 0.453114 0)
(0.648891 0.469362 0)
(0.678662 0.484474 0)
(0.709041 0.498317 1.44454e-025)
(0.213063 0.0108587 0)
(0.216588 0.0210225 0)
(0.220979 0.0370153 0)
(0.226159 0.052798 0)
(0.232177 0.0686595 0)
(0.239075 0.0849052 0)
(0.246876 0.101601 0)
(0.255596 0.118743 0)
(0.265252 0.136335 0)
(0.27586 0.154382 0)
(0.287436 0.172884 0)
(0.299999 0.191832 0)
(0.31357 0.211215 0)
(0.328175 0.231013 0)
(0.343841 0.251198 0)
(0.360604 0.271736 0)
(0.378506 0.292578 0)
(0.397579 0.313661 0)
(0.417867 0.33491 0)
(0.439415 0.35623 0)
(0.462261 0.377506 0)
(0.486437 0.398602 0)
(0.511959 0.419358 0)
(0.538825 0.439595 0)
(0.567001 0.459114 0)
(0.596421 0.477704 0)
(0.626976 0.495155 0)
(0.658514 0.511263 0)
(0.690842 0.525847 0)
(0.194139 0.0111146 0)
(0.197282 0.0215751 0)
(0.201254 0.0380442 0)
(0.205961 0.054255 0)
(0.211464 0.0705736 0)
(0.217813 0.0873148 0)
(0.225039 0.104541 0)
(0.233166 0.122254 0)
(0.242216 0.140462 0)
(0.252213 0.159175 0)
(0.263181 0.178399 0)
(0.275144 0.198133 0)
(0.288132 0.218371 0)
(0.302178 0.239101 0)
(0.317323 0.260303 0)
(0.333613 0.281948 0)
(0.351108 0.303998 0)
(0.369864 0.326398 0)
(0.389945 0.349067 0)
(0.411423 0.371911 0)
(0.434367 0.394807 0)
(0.458841 0.417602 0)
(0.484898 0.440109 0)
(0.512564 0.46211 0)
(0.541832 0.483356 0)
(0.57265 0.503574 0)
(0.604906 0.522481 0)
(0.638425 0.539798 0)
(0.672967 0.555273 1.4849e-025)
(0.175966 0.0113511 0)
(0.178725 0.0220528 0)
(0.182285 0.0389619 0)
(0.186522 0.0555508 0)
(0.191509 0.072278 0)
(0.197305 0.0894652 0)
(0.203947 0.107172 0)
(0.211466 0.125403 0)
(0.219891 0.144175 0)
(0.229252 0.163503 0)
(0.239576 0.183398 0)
(0.250895 0.203869 0)
(0.263245 0.224919 0)
(0.276667 0.246546 0)
(0.29121 0.268742 0)
(0.306933 0.291488 0)
(0.32391 0.314761 0)
(0.342228 0.338511 0)
(0.361969 0.362669 0)
(0.38324 0.387144 0)
(0.406147 0.411808 0)
(0.4308 0.436496 0)
(0.457295 0.460996 0)
(0.485706 0.485047 0)
(0.516068 0.508342 0)
(0.548356 0.530529 0)
(0.582471 0.551228 0)
(0.618215 0.570054 0)
(0.655292 0.586648 -5.50076e-027)
(0.158589 0.0115732 0)
(0.160964 0.0224439 0)
(0.164123 0.0397485 0)
(0.167898 0.0566518 0)
(0.172373 0.0737231 0)
(0.177617 0.0912892 0)
(0.183672 0.109405 0)
(0.190576 0.128081 0)
(0.198363 0.147339 0)
(0.207067 0.167201 0)
(0.21672 0.187689 0)
(0.227356 0.208819 0)
(0.239016 0.230606 0)
(0.251746 0.253061 0)
(0.265603 0.276193 0)
(0.280659 0.3 0)
(0.297 0.324468 0)
(0.314739 0.349571 0)
(0.333988 0.375259 0)
(0.354885 0.401442 0)
(0.377585 0.428 0)
(0.40225 0.45476 0)
(0.429037 0.481492 0)
(0.458086 0.507896 0)