/*--------------------------------*- C++ -*----------------------------------*\
| =========                 |                                                 |
| \\      /  F ield         | OpenFOAM: The Open Source CFD Toolbox           |
|  \\    /   O peration     | Version:  5.x                                   |
|   \\  /    A nd           | Web:      www.OpenFOAM.org                      |
|    \\/     M anipulation  |                                                 |
\*---------------------------------------------------------------------------*/
/*   Windows 32 and 64 bit porting by blueCAPE: http://www.bluecape.com.pt   *\
|  Based on Windows porting (2.0.x v4) by Symscape: http://www.symscape.com   |
\*---------------------------------------------------------------------------*/
FoamFile
{
    version     2.0;
    format      ascii;
    class       volScalarField;
    location    "180";
    object      epsilon;
}
// * * * * * * * * * * * * * * * * * * * * * * * * * * * * * * * * * * * * * //

dimensions      [0 2 -3 0 0 0 0];

internalField   nonuniform List<scalar> 
43900
(
0.00152925
0.00151911
0.00151979
0.00151971
0.00151968
0.00151967
0.00151967
0.00151967
0.00151967
0.00151967
0.00151967
0.00151967
0.00151968
0.00151968
0.00151968
0.00151968
0.00151968
0.00151968
0.00151968
0.00151969
0.00151969
0.00151969
0.00151969
0.00151969
0.00151969
0.00151969
0.00151969
0.00151969
0.00151969
0.000408241
3.80216e-005
3.16651e-005
3.15254e-005
3.27408e-005
3.2803e-005
3.28088e-005
3.27908e-005
3.27857e-005
3.27878e-005
3.27897e-005
3.27938e-005
3.27974e-005
3.28003e-005
3.28026e-005
3.28045e-005
3.28062e-005
3.28077e-005
3.28087e-005
3.28096e-005
3.28105e-005
3.28113e-005
3.2812e-005
3.28127e-005
3.28133e-005
3.28139e-005
3.28144e-005
3.28149e-005
3.28153e-005
0.0505629
0.0056782
0.000281192
1.10312e-005
1.68278e-006
1.32774e-006
1.32718e-006
1.41123e-006
1.41923e-006
1.41708e-006
1.41654e-006
1.41707e-006
1.41761e-006
1.41795e-006
1.41824e-006
1.41853e-006
1.41878e-006
1.419e-006
1.41921e-006
1.4194e-006
1.41958e-006
1.41974e-006
1.41988e-006
1.42001e-006
1.42013e-006
1.42024e-006
1.42034e-006
1.42044e-006
1.4205e-006
0.146276
0.0435874
0.00958371
0.00129031
7.91415e-005
3.12974e-006
3.18632e-007
1.1996e-007
1.08401e-007
1.17526e-007
1.20373e-007
1.19864e-007
1.19473e-007
1.19591e-007
1.19693e-007
1.19732e-007
1.19765e-007
1.19796e-007
1.19827e-007
1.19855e-007
1.19881e-007
1.19904e-007
1.19924e-007
1.19943e-007
1.1996e-007
1.19975e-007
1.1999e-007
1.20003e-007
1.20012e-007
0.197662
0.0842333
0.0336004
0.0110634
0.00255482
0.000328558
1.88932e-005
7.49194e-007
6.42134e-008
1.97902e-008
1.64057e-008
1.80406e-008
1.87863e-008
1.85831e-008
1.84615e-008
1.84673e-008
1.84765e-008
1.84821e-008
1.84872e-008
1.84919e-008
1.84961e-008
1.84999e-008
1.85034e-008
1.85066e-008
1.85097e-008
1.85127e-008
1.85155e-008
1.85182e-008
1.85203e-008
0.222964
0.108853
0.0529307
0.024768
0.0102372
0.00314858
0.0006292
6.0858e-005
2.89324e-006
1.23523e-007
1.25417e-008
4.63293e-009
4.19088e-009
4.63957e-009
4.76376e-009
4.74015e-009
4.73063e-009
4.73096e-009
4.73196e-009
4.73294e-009
4.73381e-009
4.73457e-009
4.73538e-009
4.73616e-009
4.73692e-009
4.73776e-009
4.73849e-009
4.73919e-009
4.73985e-009
0.235512
0.123972
0.0660684
0.0351307
0.0181726
0.00871936
0.00340777
0.000877445
0.000120764
7.49923e-006
3.21496e-007
1.62125e-008
2.6074e-009
1.51832e-009
1.61143e-009
1.69472e-009
1.70469e-009
1.70516e-009
1.70557e-009
1.706e-009
1.7063e-009
1.70662e-009
1.70688e-009
1.70716e-009
1.70744e-009
1.70758e-009
1.7079e-009
1.70833e-009
1.70855e-009
0.237785
0.130631
0.0730492
0.0412176
0.0231526
0.0126717
0.00649251
0.00285116
0.000846343
0.000140848
1.06883e-005
5.11014e-007
2.4219e-008
2.17452e-009
7.97366e-010
7.10637e-010
7.43136e-010
7.46582e-010
7.46676e-010
7.46832e-010
7.47021e-010
7.47196e-010
7.4734e-010
7.47516e-010
7.47637e-010
7.47706e-010
7.47898e-010
7.48099e-010
7.48226e-010
0.238433
0.135753
0.07885
0.0464449
0.0275087
0.0161868
0.00928422
0.00501676
0.00237182
0.000793501
0.000157057
1.45508e-005
7.74161e-007
3.76264e-008
2.34626e-009
5.5242e-010
3.97434e-010
4.10563e-010
4.14178e-010
4.14426e-010
4.14504e-010
4.146e-010
4.1472e-010
4.14801e-010
4.14894e-010
4.15028e-010
4.15147e-010
4.15256e-010
4.15348e-010
0.234808
0.136565
0.0812625
0.0492177
0.0301544
0.018539
0.0113081
0.00672365
0.00377945
0.00188495
0.000691476
0.000146335
1.46366e-005
8.27185e-007
4.15535e-008
2.38262e-009
4.38335e-010
2.98568e-010
2.90987e-010
2.91476e-010
2.9155e-010
2.91583e-010
2.91626e-010
2.91684e-010
2.91779e-010
2.91963e-010
2.92062e-010
2.92105e-010
2.92166e-010
0.228191
0.134988
0.0816535
0.0503924
0.0315625
0.0199454
0.0126183
0.00790374
0.00481791
0.00277355
0.00141673
0.000540893
0.000114193
1.12774e-005
6.50469e-007
3.36291e-008
1.96353e-009
3.59115e-010
2.70931e-010
2.64703e-010
2.6443e-010
2.6443e-010
2.64434e-010
2.64453e-010
2.64524e-010
2.64824e-010
2.6481e-010
2.6481e-010
2.6482e-010
0.220463
0.13214
0.0810393
0.0506955
0.0322552
0.0207647
0.0134472
0.00869242
0.00554561
0.0034304
0.00199393
0.00102018
0.000382702
7.42635e-005
6.6148e-006
3.7388e-007
1.96215e-008
1.25857e-009
3.24586e-010
2.77356e-010
2.75109e-010
2.75085e-010
2.75099e-010
2.75086e-010
2.7512e-010
2.75395e-010
2.75229e-010
2.75229e-010
2.75231e-010
0.211764
0.128296
0.0795368
0.0503113
0.032363
0.0211171
0.0139006
0.00917468
0.00602152
0.0038824
0.00241163
0.00139347
0.000694455
0.000236511
3.80312e-005
2.84482e-006
1.55207e-007
8.36358e-009
7.49544e-010
3.61544e-010
3.4217e-010
3.41505e-010
3.41506e-010
3.41124e-010
3.41022e-010
3.4117e-010
3.40477e-010
3.40474e-010
3.40477e-010
0.202451
0.123669
0.0773319
0.0493755
0.0320722
0.0211142
0.0140589
0.0094148
0.00629662
0.00416713
0.00269134
0.00165782
0.000932849
0.000434374
0.000119322
1.42147e-005
8.95554e-007
4.85602e-008
3.07715e-009
6.93787e-010
5.70417e-010
5.64696e-010
5.6412e-010
5.62858e-010
5.61605e-010
5.60869e-010
5.59202e-010
5.59197e-010
5.59208e-010
0.192775
0.11853
0.0746089
0.0479783
0.0314241
0.0208839
0.0140187
0.0094808
0.00642609
0.00432874
0.00286643
0.00183437
0.00110151
0.000584871
0.000234286
4.47266e-005
3.79319e-006
2.21959e-007
1.33196e-008
1.843e-009
1.22232e-009
1.18979e-009
1.18538e-009
1.18323e-009
1.17712e-009
1.17235e-009
1.16802e-009
1.16769e-009
1.16769e-009
0.1829
0.113077
0.0715714
0.0462876
0.0305044
0.0204221
0.013836
0.00943688
0.00645495
0.00440444
0.00296729
0.00194685
0.00121621
0.000693582
0.0003282
9.75219e-005
1.18986e-005
8.08324e-007
5.01903e-008
5.54164e-009
2.97059e-009
2.82167e-009
2.8061e-009
2.79903e-009
2.77764e-009
2.76317e-009
2.74852e-009
2.74406e-009
2.74404e-009
0.172904
0.107422
0.0683301
0.0444191
0.0294303
0.0198171
0.0135171
0.00930194
0.00642038
0.00442059
0.00301702
0.00201489
0.00129233
0.00077013
0.00039816
0.000147265
2.7175e-005
2.29604e-006
1.55227e-007
1.62411e-008
7.55559e-009
7.00504e-009
6.94767e-009
6.9285e-009
6.86618e-009
6.81803e-009
6.76725e-009
6.74331e-009
6.74321e-009
0.162861
0.101651
0.0649639
0.0424378
0.0282617
0.0191328
0.0131258
0.00909207
0.00633013
0.00440049
0.00303271
0.00205294
0.00134219
0.000824232
0.000450041
0.000189494
4.47999e-005
5.08431e-006
3.92754e-007
4.37167e-008
1.96144e-008
1.7961e-008
1.78577e-008
1.77062e-008
1.74573e-008
1.73686e-008
1.7191e-008
1.71213e-008
1.70774e-008
0.152826
0.0958293
0.0615326
0.0403942
0.0270391
0.0184038
0.0126975
0.00884883
0.00620258
0.00434944
0.00302731
0.0020733
0.00137664
0.000864977
0.000491134
0.000225281
6.33014e-005
8.86138e-006
8.36426e-007
1.09739e-007
5.30507e-008
4.83287e-008
4.75325e-008
4.78774e-008
4.80452e-008
4.70098e-008
4.6087e-008
4.5447e-008
4.54192e-008
0.14281
0.0899827
0.0580645
0.0383145
0.0257856
0.0176496
0.0122492
0.00858969
0.00606126
0.00428226
0.00300894
0.00208246
0.00140172
0.000897931
0.000525975
0.000257172
8.28711e-005
1.39671e-005
1.53303e-006
2.30638e-007
1.17379e-007
1.10196e-007
1.0995e-007
1.07624e-007
1.05024e-007
1.05037e-007
1.0518e-007
1.0586e-007
1.05263e-007
0.132838
0.084134
0.0545784
0.0362138
0.0245127
0.0168794
0.0117881
0.00832062
0.00591212
0.00420809
0.00298173
0.00208528
0.0014218
0.000926875
0.000557749
0.000287051
0.00010345
2.07194e-005
2.67111e-006
4.23177e-007
1.93114e-007
1.66459e-007
1.62313e-007
1.63647e-007
1.65162e-007
1.63607e-007
1.61664e-007
1.58759e-007
1.58759e-007
0.122952
0.078311
0.051093
0.0341047
0.0232295
0.0160998
0.0113196
0.00804618
0.00575945
0.00413191
0.00295335
0.00208649
0.00144051
0.000954786
0.000588978
0.000317191
0.000126306
2.93847e-005
4.23618e-006
6.52463e-007
2.52137e-007
2.17139e-007
2.15012e-007
2.10749e-007
2.08148e-007
2.08619e-007
2.09452e-007
2.0973e-007
2.07705e-007
0.113195
0.0725392
0.0476239
0.031997
0.0219421
0.015315
0.0108468
0.00776885
0.00560534
0.00405553
0.00292568
0.00208885
0.00146062
0.000984369
0.000622133
0.000349294
0.000151827
4.1028e-005
6.93586e-006
1.10191e-006
3.5411e-007
2.59066e-007
2.48671e-007
2.51173e-007
2.51044e-007
2.47884e-007
2.44318e-007
2.43793e-007
2.46293e-007
0.103615
0.0668448
0.0441851
0.0298976
0.020654
0.0145263
0.0103697
0.0074881
0.00544911
0.0039783
0.00289825
0.0020922
0.00148224
0.00101582
0.000657546
0.000384244
0.00018144
5.63856e-005
1.08418e-005
1.77558e-006
4.68837e-007
3.05184e-007
2.84919e-007
2.76363e-007
2.758e-007
2.77657e-007
2.78908e-007
2.78293e-007
2.73325e-007
0.0942754
0.0612616
0.0407942
0.0278155
0.0193687
0.0137344
0.00988763
0.00720271
0.00528931
0.00389883
0.00286984
0.00209569
0.00150486
0.00104888
0.000694843
0.000420971
0.000213211
7.56848e-005
1.72924e-005
3.09341e-006
7.01309e-007
3.5294e-007
3.0872e-007
3.06416e-007
3.04356e-007
2.98926e-007
2.96662e-007
2.97852e-007
3.01924e-007
0.0852426
0.0558271
0.0374723
0.0257618
0.018092
0.0129421
0.00940172
0.00691281
0.00512573
0.00381683
0.0028403
0.00209935
0.00152879
0.00108422
0.000735333
0.00046181
0.000250309
0.000100131
2.5853e-005
5.05459e-006
1.08163e-006
4.3417e-007
3.3534e-007
3.18262e-007
3.1903e-007
3.21452e-007
3.20923e-007
3.15967e-007
3.13091e-007
0.0765789
0.050577
0.0342394
0.0237477
0.0168297
0.012152
0.00891281
0.00661833
0.00495781
0.00373161
0.00280893
0.0021026
0.00155355
0.00112142
0.000778451
0.000505862
0.000291399
0.000131849
4.09536e-005
9.085e-006
1.87107e-006
5.84782e-007
3.72901e-007
3.44639e-007
3.30659e-007
3.29376e-007
3.31308e-007
3.3386e-007
3.33266e-007
0.0683414
0.0455447
0.0311148
0.021784
0.0155874
0.0113667
0.00842152
0.00631876
0.00478445
0.00364173
0.00277416
0.00210349
0.00157785
0.0011596
0.000823778
0.00055317
0.000336331
0.000167952
5.97227e-005
1.49495e-005
3.26864e-006
8.80218e-007
4.36739e-007
3.59772e-007
3.51601e-007
3.46462e-007
3.40477e-007
3.40553e-007
3.41073e-007
0.0605802
0.0407609
0.0281173
0.0198816
0.0143712
0.0105889
0.00792866
0.00601368
0.00460445
0.00354557
0.00273421
0.00210114
0.00159992
0.00119707
0.000869849
0.000602681
0.000385296
0.000211118
8.70329e-005
2.5426e-005
5.93499e-006
1.4739e-006
5.69364e-007
3.91767e-007
3.59898e-007
3.5822e-007
3.54487e-007
3.53316e-007
3.51222e-007
0.0533364
0.0362525
0.0252638
0.0180511
0.0131873
0.00982216
0.00743581
0.0057034
0.00441736
0.0034423
0.00268823
0.00209445
0.00161886
0.0012327
0.000915444
0.000652951
0.000435777
0.000258088
0.000121679
4.15682e-005
1.09881e-005
2.68887e-006
8.44129e-007
4.60667e-007
3.79699e-007
3.64723e-007
3.63973e-007
3.61882e-007
3.61269e-007
0.0466395
0.0320406
0.0225692
0.0163024
0.0120423
0.00907041
0.00694516
0.00538892
0.00422337
0.00333156
0.0026354
0.00208173
0.00163367
0.0012659
0.000960271
0.000704121
0.00048887
0.000308753
0.000163328
6.4769e-005
1.93237e-005
5.04063e-006
1.42676e-006
6.01818e-007
4.22147e-007
3.79856e-007
3.70655e-007
3.71516e-007
3.69649e-007
0.0405059
0.0281398
0.0200447
0.0146441
0.010942
0.00833757
0.00645906
0.00507142
0.00402279
0.00321304
0.00257487
0.0020622
0.00164319
0.00129545
0.00100315
0.000755074
0.000543517
0.00036349
0.000212415
9.79652e-005
3.36382e-005
9.50313e-006
2.64352e-006
9.13205e-007
5.02882e-007
4.11907e-007
3.84477e-007
3.78257e-007
3.804e-007
0.0349397
0.0245581
0.0176985
0.0130828
0.00989169
0.00762734
0.0059799
0.0047522
0.00381605
0.00308645
0.00250593
0.00203489
0.0016453
0.00131977
0.00104262
0.000804328
0.000598167
0.00041954
0.0002666
0.000141093
5.72682e-005
1.80213e-005
5.14204e-006
1.59885e-006
6.85818e-007
4.60639e-007
4.1321e-007
3.91916e-007
3.87671e-007
0.0299345
0.0212972
0.0155351
0.0116237
0.00889579
0.00694323
0.0055102
0.00443281
0.00360388
0.00295189
0.00242817
0.00199906
0.00164087
0.00133773
0.00107712
0.000850329
0.000651399
0.00047633
0.000322513
0.000191599
9.08239e-005
3.33583e-005
1.01978e-005
3.07236e-006
1.10241e-006
5.76654e-007
4.44936e-007
4.18858e-007
4.00295e-007
0.0254737
0.0183534
0.013556
0.01027
0.00795797
0.00628851
0.00505251
0.00411508
0.00338742
0.0028099
0.00234174
0.0019546
0.0016287
0.00134879
0.00110569
0.000891796
0.000701767
0.000532083
0.000380635
0.000246098
0.000134643
5.73019e-005
1.95853e-005
6.12248e-006
2.01549e-006
8.46783e-007
5.23897e-007
4.41707e-007
4.24685e-007
0.0215331
0.0157178
0.0117596
0.00902347
0.00708099
0.00566604
0.00460935
0.00380098
0.00316804
0.00266127
0.00224676
0.00190076
0.00160629
0.0013503
0.00112695
0.000927696
0.000748252
0.000585646
0.000438109
0.000305022
0.000186362
9.34002e-005
3.6451e-005
1.22021e-005
3.99208e-006
1.45576e-006
7.11789e-007
4.99788e-007
4.4401e-007
0.018082
0.0133775
0.0101417
0.00788394
0.00626662
0.0050782
0.00418308
0.00349252
0.00294727
0.002507
0.00214374
0.00183776
0.00157495
0.00134478
0.00114065
0.000956943
0.000789593
0.000635861
0.000494107
0.000363624
0.000245177
0.000140767
6.52702e-005
2.40975e-005
8.15274e-006
2.82547e-006
1.14677e-006
6.39854e-007
4.90561e-007
0.0150853
0.011316
0.00869556
0.00684982
0.00551565
0.0045268
0.00377577
0.00319164
0.00272672
0.00234829
0.00203348
0.00176609
0.00153445
0.00133027
0.00114531
0.000978552
0.000824676
0.000681397
0.000547263
0.00042151
0.000304169
0.000197662
0.000106576
4.62423e-005
1.67628e-005
5.80929e-006
2.14929e-006
9.69215e-007
6.00093e-007
0.0125047
0.00951453
0.00741275
0.00591808
0.00482793
0.00401307
0.00338919
0.00290019
0.00250805
0.00218646
0.00191691
0.00168615
0.00148455
0.00130497
0.0011413
0.000991631
0.000852158
0.000720681
0.000595827
0.000476876
0.000363534
0.00025644
0.000160002
8.12661e-005
3.34134e-005
1.21598e-005
4.36745e-006
1.73711e-006
8.54997e-007
0.0103007
0.00795245
0.00628317
0.0050845
0.00420242
0.00353764
0.00302475
0.00261983
0.00229287
0.00202292
0.00179512
0.00159873
0.00142585
0.00127066
0.00112889
0.000995157
0.000871112
0.0007526
0.000638428
0.000527924
0.000420854
0.000317204
0.000218162
0.000130426
6.27176e-005
2.49999e-005
9.21354e-006
3.45692e-006
1.45109e-006
0.00843314
0.00660815
0.00529562
0.00434386
0.0036373
0.00310056
0.00268347
0.00235202
0.00208275
0.00185914
0.00166936
0.00150475
0.00135892
0.00122706
0.00110555
0.000990391
0.000881316
0.000776352
0.000673897
0.000573232
0.000474018
0.000376319
0.000280225
0.00018759
0.000107392
4.91252e-005
1.9393e-005
7.29025e-006
2.79777e-006
0.00686292
0.00545965
0.00443822
0.00369017
0.00313004
0.00270133
0.002366
0.002098
0.00187916
0.0016966
0.00154096
0.00140534
0.00128457
0.00117473
0.00107282
0.00097656
0.00088107
0.000790664
0.000701048
0.000611535
0.000521761
0.000431525
0.00034132
0.000251059
0.000163454
8.95421e-005
3.92537e-005
1.55546e-005
5.8439e-006
0.00555238
0.00448523
0.00369868
0.00311688
0.00267756
0.00233898
0.00207261
0.00185873
0.00168343
0.00153674
0.00141133
0.00130176
0.00120386
0.00111444
0.001031
0.000951517
0.000873646
0.000795555
0.000719275
0.000641877
0.000562873
0.000481852
0.000398929
0.000314539
0.000228625
0.000144548
7.56728e-005
3.24799e-005
1.25831e-005
0.00446615
0.00366386
0.00306474
0.0026171
0.00227637
0.00201211
0.00180322
0.00163494
0.00149673
0.00138095
0.00128192
0.00119537
0.00111799
0.00104719
0.000980896
0.000917454
0.000855765
0.000791799
0.000728001
0.000663392
0.000596219
0.000525896
0.00045221
0.000374995
0.000295243
0.000211634
0.000129854
6.48432e-005
2.67783e-005
0.0035716
0.00297563
0.00252442
0.00218385
0.00192266
0.00171898
0.00155744
0.00142709
0.00132005
0.00123051
0.00115414
0.0010876
0.00102829
0.00097413
0.000923436
0.000874808
0.000827124
0.000779107
0.000726849
0.000675216
0.000620617
0.000562232
0.000499451
0.000431805
0.000359363
0.000282369
0.000199204
0.000118703
5.50005e-005
0.00283922
0.0024021
0.00206629
0.00181024
0.00161249
0.00145764
0.00133461
0.00123541
0.00115419
0.00108661
0.00102936
0.0009799
0.000936194
0.000896606
0.000859771
0.000824532
0.000789893
0.000754978
0.000717953
0.000676711
0.000635183
0.000589618
0.000539161
0.000483056
0.000420578
0.000351799
0.000274861
0.000191805
0.000106829
0.00224274
0.00192648
0.0016797
0.00148961
0.00134192
0.00122595
0.00113386
0.00105989
0.000999756
0.000950241
0.000908867
0.000873699
0.000843187
0.000816055
0.000791228
0.000767778
0.000744876
0.000721788
0.000698036
0.000670513
0.000639493
0.000607103
0.000569955
0.000527047
0.000476996
0.000419253
0.000351362
0.000274762
0.000183633
0.00175919
0.00153378
0.00135489
0.00121571
0.00110705
0.00102169
0.000954145
0.00090033
0.000857154
0.000822251
0.000793793
0.000770338
0.00075072
0.000733965
0.000719256
0.000705875
0.000693181
0.000680587
0.000667611
0.000653713
0.000635071
0.000613878
0.000590569
0.000562088
0.000526654
0.000482977
0.000427958
0.000360692
0.000278548
0.0013688
0.0012108
0.00108309
0.000982767
0.000904203
0.000842627
0.000794301
0.000756359
0.000726592
0.000703287
0.000685118
0.000671028
0.000660169
0.000651806
0.000645347
0.000640263
0.000636123
0.000632496
0.000629006
0.000625212
0.000620547
0.000610795
0.000599936
0.000586557
0.000567545
0.000540724
0.000503228
0.000449651
0.000382075
0.00105481
0.000946169
0.000856566
0.000785542
0.000729897
0.000686581
0.000653092
0.000627452
0.0006081
0.000593803
0.000583634
0.000576819
0.000572787
0.000570956
0.000571017
0.000572391
0.000575188
0.000578918
0.000583388
0.000588303
0.000593526
0.000597674
0.000598312
0.000598744
0.000597143
0.000590362
0.000574828
0.000541225
0.00049437
0.00080317
0.000730152
0.000668552
0.000619349
0.000580941
0.000551454
0.000529249
0.000512981
0.000501549
0.00049407
0.00048996
0.000488601
0.000489687
0.000492743
0.00049777
0.000504298
0.000512338
0.000521777
0.000532608
0.000544664
0.000558114
0.000572185
0.000587822
0.000599938
0.000615833
0.00062887
0.000634845
0.000628919
0.000607729
0.000602302
0.000554559
0.000513232
0.000480062
0.000454443
0.000435279
0.000421512
0.000412249
0.0004067
0.000404227
0.000404612
0.000407104
0.000412112
0.000418919
0.000427575
0.000437919
0.000450041
0.000463992
0.000479942
0.000497911
0.000518201
0.000540667
0.000567154
0.000594336
0.000626105
0.000656346
0.000691244
0.000716345
0.000719189
0.000442734
0.00041256
0.000385654
0.000364094
0.000347829
0.000336248
0.000328685
0.00032456
0.000323293
0.000324473
0.000327993
0.000333771
0.000341688
0.000351476
0.000363266
0.000377008
0.00039293
0.000411435
0.000432604
0.000457103
0.000484534
0.000517165
0.000554866
0.000597241
0.000647256
0.000695402
0.000761543
0.000811325
0.000864166
0.00031681
0.000298517
0.000281652
0.000268375
0.000258847
0.000252757
0.000249724
0.000249358
0.000251146
0.000255255
0.000261624
0.000270283
0.000281298
0.000294579
0.000310549
0.000329291
0.000351201
0.000378044
0.000408857
0.000447206
0.000488554
0.000539038
0.000591697
0.000658856
0.000737183
0.000820846
0.0009401
0.00102427
0.00117944
0.00021839
0.000207824
0.000197779
0.000190332
0.000185598
0.000183492
0.000183916
0.000186349
0.000191153
0.000198213
0.000207995
0.000220946
0.000237347
0.000257588
0.000282802
0.00031385
0.000351916
0.000398812
0.000452716
0.000526433
0.000603275
0.000721506
0.000830068
0.00101345
0.00117813
0.00143072
0.00169259
0.00194964
0.00240501
0.000142597
0.000136782
0.000131252
0.000127887
0.000126641
0.000127675
0.00013131
0.000136971
0.000145616
0.000157583
0.00017395
0.00019664
0.00022683
0.000266078
0.000315829
0.000381876
0.000467901
0.000593174
0.000749071
0.000989351
0.00125346
0.00171366
0.00214256
0.00300458
0.00369815
0.00518324
0.00623296
0.00849884
0.0103161
8.56104e-005
8.2519e-005
7.99644e-005
7.95882e-005
8.13572e-005
8.57909e-005
9.44878e-005
0.000105361
0.000122278
0.000146796
0.000181169
0.000231927
0.000305338
0.000412109
0.00056659
0.000794802
0.00112308
0.00162808
0.00231268
0.00336986
0.00469584
0.00679855
0.00920386
0.0132843
0.0174419
0.0253256
0.0324574
0.0483617
0.061218
4.4674e-005
4.31747e-005
4.28761e-005
4.53388e-005
5.18814e-005
6.24548e-005
8.29894e-005
0.000108687
0.000151798
0.000220265
0.000324106
0.000500216
0.000776838
0.00119745
0.00182426
0.00275666
0.00411899
0.0060832
0.00880734
0.0125959
0.0177003
0.024733
0.0341613
0.0473283
0.0649886
0.0908847
0.125691
0.185102
0.255062
2.03162e-005
2.04126e-005
2.29858e-005
3.11955e-005
4.97745e-005
7.86296e-005
0.000138935
0.000224264
0.000380859
0.000635082
0.00104045
0.00169345
0.00268375
0.00411416
0.00617857
0.00907555
0.0131926
0.0188016
0.0265965
0.0369005
0.0512426
0.0698315
0.0966143
0.130839
0.183571
0.250484
0.367619
0.51552
0.775204
0.00151969
0.00151969
0.00151969
0.00151969
0.00151969
0.00151969
0.00151969
0.00151969
0.00151969
0.00151969
0.00151969
0.00151969
0.00151969
0.00151969
0.00151969
0.00151969
0.0015197
0.0015197
0.0015197
0.0015197
0.0015197
0.0015197
0.0015197
0.0015197
0.0015197
0.0015197
0.0015197
0.0015197
0.0015197
0.0015197
0.0015197
0.0015197
0.0015197
0.0015197
0.0015197
0.0015197
0.0015197
0.0015197
0.0015197
0.0015197
0.0015197
0.0015197
0.0015197
0.0015197
0.0015197
0.0015197
0.0015197
0.0015197
0.0015197
0.0015197
0.0015197
0.0015197
0.0015197
0.0015197
0.0015197
0.0015197
0.0015197
0.0015197
0.0015197
0.0015197
0.0015197
0.0015197
0.0015197
0.0015197
0.0015197
0.0015197
0.0015197
0.00151971
0.00151971
0.00151971
0.00151971
0.00151971
0.00151971
0.00151971
0.00151971
0.00151971
0.00151971
0.00151971
0.00151971
0.00151971
0.00151971
0.00151971
0.00151971
0.00151971
0.00151971
0.00151971
0.00151971
0.00151971
0.00151971
0.00151971
0.00151971
0.00151971
0.00151971
0.00151971
0.00151971
0.00151971
0.00151971
0.00151971
0.00151971
0.00151971
0.00151971
0.00151971
0.00151971
0.00151971
0.00151971
0.00151971
0.00151971
0.00151971
0.00151971
0.00151971
0.00151971
0.00151971
0.00151971
0.00151971
0.00151971
0.00151971
0.00151971
0.00151971
0.00151971
0.00151971
0.00151971
0.00151971
0.00151971
0.00151971
0.00151971
0.00151971
0.00151971
0.00151971
0.00151971
0.00151971
0.00151971
0.00151971
0.00151971
0.00151971
0.00151971
0.00151972
0.00151972
0.00151973
0.00154204
3.28158e-005
3.28164e-005
3.28169e-005
3.28173e-005
3.28177e-005
3.2818e-005
3.28184e-005
3.28188e-005
3.28191e-005
3.28194e-005
3.28197e-005
3.28201e-005
3.28205e-005
3.28209e-005
3.28214e-005
3.28218e-005
3.28222e-005
3.28226e-005
3.2823e-005
3.28233e-005
3.28237e-005
3.28241e-005
3.28245e-005
3.28248e-005
3.28253e-005
3.28257e-005
3.28261e-005
3.28265e-005
3.28269e-005
3.28274e-005
3.28278e-005
3.28282e-005
3.28286e-005
3.2829e-005
3.28294e-005
3.28297e-005
3.28299e-005
3.28302e-005
3.28304e-005
3.28307e-005
3.28309e-005
3.28312e-005
3.28314e-005
3.28316e-005
3.28318e-005
3.2832e-005
3.28322e-005
3.28323e-005
3.28325e-005
3.28326e-005
3.28328e-005
3.28329e-005
3.2833e-005
3.28332e-005
3.28333e-005
3.28334e-005
3.28335e-005
3.28336e-005
3.28337e-005
3.28339e-005
3.2834e-005
3.28341e-005
3.28343e-005
3.28344e-005
3.28345e-005
3.28346e-005
3.28348e-005
3.28349e-005
3.2835e-005
3.28351e-005
3.28352e-005
3.28353e-005
3.28354e-005
3.28355e-005
3.28356e-005
3.28357e-005
3.28358e-005
3.28359e-005
3.28359e-005
3.2836e-005
3.2836e-005
3.28361e-005
3.28361e-005
3.28361e-005
3.2836e-005
3.2836e-005
3.28359e-005
3.28358e-005
3.28359e-005
3.2836e-005
3.28362e-005
3.28364e-005
3.28365e-005
3.28367e-005
3.28369e-005
3.2837e-005
3.28372e-005
3.28373e-005
3.28374e-005
3.28375e-005
3.28376e-005
3.28377e-005
3.28378e-005
3.28378e-005
3.28379e-005
3.2838e-005
3.2838e-005
3.2838e-005
3.2838e-005
3.2838e-005
3.28379e-005
3.28377e-005
3.28375e-005
3.28372e-005
3.28368e-005
3.28364e-005
3.28361e-005
3.2836e-005
3.28361e-005
3.28364e-005
3.28367e-005
3.28369e-005
3.28371e-005
3.28374e-005
3.28374e-005
3.2838e-005
3.28374e-005
3.28386e-005
3.28383e-005
3.28387e-005
3.28404e-005
3.28403e-005
3.28419e-005
3.2845e-005
3.28435e-005
3.2848e-005
3.28627e-005
3.2857e-005
3.37303e-005
1.4206e-006
1.42071e-006
1.4208e-006
1.42087e-006
1.42094e-006
1.42101e-006
1.42107e-006
1.42113e-006
1.42118e-006
1.42124e-006
1.42129e-006
1.42135e-006
1.42139e-006
1.42144e-006
1.42149e-006
1.42154e-006
1.42159e-006
1.42164e-006
1.42169e-006
1.42174e-006
1.4218e-006
1.42185e-006
1.42191e-006
1.42197e-006
1.42203e-006
1.42209e-006
1.42215e-006
1.42221e-006
1.42227e-006
1.42233e-006
1.42239e-006
1.42246e-006
1.42252e-006
1.42259e-006
1.42265e-006
1.42271e-006
1.42277e-006
1.42282e-006
1.42288e-006
1.42294e-006
1.42299e-006
1.42305e-006
1.4231e-006
1.42316e-006
1.42321e-006
1.42326e-006
1.42331e-006
1.42336e-006
1.42341e-006
1.42346e-006
1.42351e-006
1.42355e-006
1.4236e-006
1.42364e-006
1.42369e-006
1.42373e-006
1.42377e-006
1.42381e-006
1.42384e-006
1.42388e-006
1.42393e-006
1.42397e-006
1.42401e-006
1.42405e-006
1.42409e-006
1.42413e-006
1.42417e-006
1.42421e-006
1.42425e-006
1.42429e-006
1.42432e-006
1.42436e-006
1.42439e-006
1.42443e-006
1.42446e-006
1.42449e-006
1.42452e-006
1.42455e-006
1.42457e-006
1.4246e-006
1.42462e-006
1.42465e-006
1.42467e-006
1.42469e-006
1.42471e-006
1.42473e-006
1.42474e-006
1.42476e-006
1.42478e-006
1.4248e-006
1.42482e-006
1.42485e-006
1.42487e-006
1.42489e-006
1.42492e-006
1.42494e-006
1.42497e-006
1.42499e-006
1.42501e-006
1.42504e-006
1.42505e-006
1.42507e-006
1.42508e-006
1.42509e-006
1.4251e-006
1.4251e-006
1.4251e-006
1.4251e-006
1.42509e-006
1.42508e-006
1.42505e-006
1.42501e-006
1.42497e-006
1.42491e-006
1.42485e-006
1.42479e-006
1.42473e-006
1.42469e-006
1.42466e-006
1.42465e-006
1.42463e-006
1.42461e-006
1.42455e-006
1.42454e-006
1.42443e-006
1.42442e-006
1.42432e-006
1.42425e-006
1.42425e-006
1.42418e-006
1.42425e-006
1.42439e-006
1.42411e-006
1.42454e-006
1.42571e-006
1.42613e-006
1.33404e-006
1.36097e-006
1.21284e-005
1.20025e-007
1.2004e-007
1.20053e-007
1.20065e-007
1.20075e-007
1.20085e-007
1.20095e-007
1.20105e-007
1.20115e-007
1.20123e-007
1.20132e-007
1.20141e-007
1.20151e-007
1.20161e-007
1.20171e-007
1.20181e-007
1.20191e-007
1.202e-007
1.2021e-007
1.2022e-007
1.2023e-007
1.2024e-007
1.2025e-007
1.20261e-007
1.20272e-007
1.20283e-007
1.20294e-007
1.20306e-007
1.20318e-007
1.2033e-007
1.20343e-007
1.20355e-007
1.20368e-007
1.20381e-007
1.20394e-007
1.20407e-007
1.2042e-007
1.20433e-007
1.20446e-007
1.20459e-007
1.20472e-007
1.20485e-007
1.20497e-007
1.2051e-007
1.20522e-007
1.20535e-007
1.20547e-007
1.20559e-007
1.20571e-007
1.20583e-007
1.20595e-007
1.20606e-007
1.20618e-007
1.20629e-007
1.2064e-007
1.20652e-007
1.20663e-007
1.20674e-007
1.20685e-007
1.20696e-007
1.20707e-007
1.20718e-007
1.20729e-007
1.2074e-007
1.20751e-007
1.20761e-007
1.20772e-007
1.20782e-007
1.20792e-007
1.20801e-007
1.20811e-007
1.2082e-007
1.20829e-007
1.20838e-007
1.20847e-007
1.20855e-007
1.20864e-007
1.20872e-007
1.2088e-007
1.20888e-007
1.20895e-007
1.20903e-007
1.2091e-007
1.20916e-007
1.20923e-007
1.20929e-007
1.20935e-007
1.20941e-007
1.20946e-007
1.2095e-007
1.20954e-007
1.20958e-007
1.20962e-007
1.20966e-007
1.2097e-007
1.20974e-007
1.20978e-007
1.20981e-007
1.20984e-007
1.20987e-007
1.20989e-007
1.20991e-007
1.20992e-007
1.20993e-007
1.20993e-007
1.20993e-007
1.20992e-007
1.2099e-007
1.20987e-007
1.20984e-007
1.2098e-007
1.20973e-007
1.20964e-007
1.20954e-007
1.20943e-007
1.2093e-007
1.20917e-007
1.20904e-007
1.20893e-007
1.20882e-007
1.2087e-007
1.20858e-007
1.20842e-007
1.20828e-007
1.20808e-007
1.20786e-007
1.20768e-007
1.20743e-007
1.20716e-007
1.2072e-007
1.20707e-007
1.20475e-007
1.2078e-007
1.21463e-007
1.16368e-007
1.10898e-007
4.66987e-007
5.40468e-005
0.0040773
1.85232e-008
1.85264e-008
1.85291e-008
1.85317e-008
1.85344e-008
1.85371e-008
1.85395e-008
1.85418e-008
1.85442e-008
1.85468e-008
1.85494e-008
1.8552e-008
1.85544e-008
1.85568e-008
1.85593e-008
1.85619e-008
1.85647e-008
1.85675e-008
1.85704e-008
1.85734e-008
1.85765e-008
1.85797e-008
1.85829e-008
1.85862e-008
1.85896e-008
1.85929e-008
1.85963e-008
1.85996e-008
1.86031e-008
1.86065e-008
1.861e-008
1.86135e-008
1.8617e-008
1.86206e-008
1.86242e-008
1.86279e-008
1.86315e-008
1.86353e-008
1.8639e-008
1.86427e-008
1.86464e-008
1.86501e-008
1.86538e-008
1.86574e-008
1.86611e-008
1.86647e-008
1.86684e-008
1.8672e-008
1.86756e-008
1.86792e-008
1.86828e-008
1.86863e-008
1.86898e-008
1.86933e-008
1.86968e-008
1.87003e-008
1.87037e-008
1.87072e-008
1.87106e-008
1.87139e-008
1.87173e-008
1.87206e-008
1.87238e-008
1.8727e-008
1.87302e-008
1.87332e-008
1.87363e-008
1.87392e-008
1.87422e-008
1.8745e-008
1.87478e-008
1.87506e-008
1.87533e-008
1.87559e-008
1.87585e-008
1.87611e-008
1.87636e-008
1.8766e-008
1.87683e-008
1.87706e-008
1.87729e-008
1.87751e-008
1.87772e-008
1.87792e-008
1.87812e-008
1.87831e-008
1.87849e-008
1.87867e-008
1.87883e-008
1.87897e-008
1.8791e-008
1.87922e-008
1.87933e-008
1.87944e-008
1.87954e-008
1.87962e-008
1.8797e-008
1.87978e-008
1.87984e-008
1.87989e-008
1.87993e-008
1.87995e-008
1.87997e-008
1.87997e-008
1.87996e-008
1.87993e-008
1.87989e-008
1.87983e-008
1.87975e-008
1.87966e-008
1.87955e-008
1.8794e-008
1.87921e-008
1.87898e-008
1.87872e-008
1.87842e-008
1.8781e-008
1.87776e-008
1.87743e-008
1.8771e-008
1.87674e-008
1.87634e-008
1.87589e-008
1.87539e-008
1.87482e-008
1.87418e-008
1.87349e-008
1.87279e-008
1.87206e-008
1.8707e-008
1.87193e-008
1.90686e-008
1.87391e-008
1.64435e-008
2.37862e-008
3.65164e-007
3.38215e-005
0.00179118
0.0265041
4.74074e-009
4.74166e-009
4.7426e-009
4.74359e-009
4.74451e-009
4.74535e-009
4.74632e-009
4.74736e-009
4.74841e-009
4.74939e-009
4.75032e-009
4.75132e-009
4.75245e-009
4.75365e-009
4.75482e-009
4.75599e-009
4.75717e-009
4.75836e-009
4.75955e-009
4.76077e-009
4.76198e-009
4.7632e-009
4.76442e-009
4.76567e-009