/*--------------------------------*- C++ -*----------------------------------*\
| =========                 |                                                 |
| \\      /  F ield         | OpenFOAM: The Open Source CFD Toolbox           |
|  \\    /   O peration     | Version:  5.x                                   |
|   \\  /    A nd           | Web:      www.OpenFOAM.org                      |
|    \\/     M anipulation  |                                                 |
\*---------------------------------------------------------------------------*/
/*   Windows 32 and 64 bit porting by blueCAPE: http://www.bluecape.com.pt   *\
|  Based on Windows porting (2.0.x v4) by Symscape: http://www.symscape.com   |
\*---------------------------------------------------------------------------*/
FoamFile
{
    version     2.0;
    format      ascii;
    class       volScalarField;
    location    "180";
    object      k;
}
// * * * * * * * * * * * * * * * * * * * * * * * * * * * * * * * * * * * * * //

dimensions      [0 2 -2 0 0 0 0];

internalField   nonuniform List<scalar> 
43900
(
0.000985476
0.00098946
0.000990251
0.000990183
0.000990131
0.000990123
0.000990123
0.00099012
0.000990116
0.000990117
0.000990119
0.000990122
0.000990125
0.000990127
0.000990129
0.000990131
0.000990132
0.000990133
0.000990134
0.000990134
0.000990135
0.000990136
0.000990136
0.000990137
0.000990137
0.000990138
0.000990138
0.000990138
0.000990139
0.0016246
5.55339e-005
3.89274e-005
3.8169e-005
4.08313e-005
4.09795e-005
4.09927e-005
4.09561e-005
4.0949e-005
4.09519e-005
4.09545e-005
4.09597e-005
4.09642e-005
4.09678e-005
4.09707e-005
4.09732e-005
4.09754e-005
4.09772e-005
4.09786e-005
4.09798e-005
4.09809e-005
4.09819e-005
4.09829e-005
4.09838e-005
4.09846e-005
4.09854e-005
4.09861e-005
4.09867e-005
4.09872e-005
0.292789
0.0533072
0.0039714
0.000112005
4.84691e-006
3.08234e-006
2.97724e-006
3.35024e-006
3.38293e-006
3.37351e-006
3.37048e-006
3.37199e-006
3.3735e-006
3.37424e-006
3.37489e-006
3.37555e-006
3.37615e-006
3.37666e-006
3.37715e-006
3.37761e-006
3.37803e-006
3.37841e-006
3.37875e-006
3.37906e-006
3.37935e-006
3.3796e-006
3.37984e-006
3.38006e-006
3.38022e-006
0.878545
0.375234
0.118994
0.0233157
0.00196523
7.36349e-005
3.62521e-006
5.68009e-007
4.50932e-007
5.14395e-007
5.37511e-007
5.33319e-007
5.29954e-007
5.30797e-007
5.31491e-007
5.3167e-007
5.31808e-007
5.3194e-007
5.3207e-007
5.32193e-007
5.32304e-007
5.32401e-007
5.32489e-007
5.32568e-007
5.3264e-007
5.32706e-007
5.32766e-007
5.32822e-007
5.32863e-007
1.28694
0.735849
0.39166
0.173797
0.0542859
0.00951713
0.000689621
2.81239e-005
1.23908e-006
1.84414e-007
1.22387e-007
1.39315e-007
1.50428e-007
1.47336e-007
1.4546e-007
1.45528e-007
1.45632e-007
1.4568e-007
1.45719e-007
1.45753e-007
1.45785e-007
1.45813e-007
1.45839e-007
1.45862e-007
1.45885e-007
1.45907e-007
1.45928e-007
1.45947e-007
1.45963e-007
1.54352
0.979456
0.61177
0.364945
0.194061
0.0788109
0.0206955
0.00258121
0.000141003
5.92423e-006
3.10001e-007
6.84074e-008
5.02875e-008
5.92707e-008
6.2698e-008
6.20363e-008
6.17457e-008
6.17394e-008
6.17506e-008
6.17631e-008
6.17729e-008
6.17823e-008
6.17927e-008
6.18017e-008
6.1812e-008
6.18228e-008
6.18308e-008
6.1839e-008
6.1847e-008
1.71333
1.14926
0.771081
0.510909
0.327199
0.194609
0.0963795
0.0317616
0.0056214
0.000414598
1.90354e-005
8.57957e-007
7.38838e-008
3.12241e-008
2.94964e-008
3.24697e-008
3.3092e-008
3.30891e-008
3.309e-008
3.30981e-008
3.31045e-008
3.31104e-008
3.31144e-008
3.31198e-008
3.31236e-008
3.31243e-008
3.31309e-008
3.314e-008
3.31447e-008
1.79995
1.24498
0.866342
0.601915
0.412802
0.274425
0.171067
0.0932204
0.0350038
0.00738121
0.000668904
3.4478e-005
1.6519e-006
9.93432e-008
2.5389e-008
1.81992e-008
1.85704e-008
1.88936e-008
1.89434e-008
1.89508e-008
1.89559e-008
1.89609e-008
1.8965e-008
1.89693e-008
1.89711e-008
1.89709e-008
1.89761e-008
1.89816e-008
1.89848e-008
1.87637
1.33033
0.951503
0.683051
0.488634
0.344812
0.236239
0.152846
0.0881879
0.037755
0.00934229
0.0010387
5.9776e-005
2.99128e-006
1.62594e-007
2.30048e-008
1.49139e-008
1.40888e-008
1.40466e-008
1.40477e-008
1.40484e-008
1.40495e-008
1.40515e-008
1.40539e-008
1.40569e-008
1.40632e-008
1.40661e-008
1.40679e-008
1.40703e-008
1.90135
1.36968
0.997701
0.731985
0.538143
0.393776
0.284059
0.199068
0.132134
0.0787714
0.0363885
0.0095831
0.00114507
6.97391e-005
3.61487e-006
1.95043e-007
2.27253e-008
1.41804e-008
1.36707e-008
1.36405e-008
1.36405e-008
1.36405e-008
1.36407e-008
1.36419e-008
1.36453e-008
1.36538e-008
1.36563e-008
1.36573e-008
1.36594e-008
1.90092
1.38476
1.02115
0.76001
0.568639
0.425598
0.316562
0.231831
0.164777
0.11087
0.0671168
0.0319139
0.00833185
0.000968738
5.94787e-005
3.15759e-006
1.74923e-007
2.20346e-008
1.44322e-008
1.4067e-008
1.40526e-008
1.40526e-008
1.40526e-008
1.40533e-008
1.40564e-008
1.40675e-008
1.40679e-008
1.40681e-008
1.4069e-008
1.88883
1.38784
1.03286
0.776598
0.588053
0.446702
0.338752
0.254773
0.188248
0.134648
0.0908547
0.0548323
0.0255775
0.00609828
0.000624017
3.68977e-005
1.97068e-006
1.17063e-007
2.14954e-008
1.66828e-008
1.64521e-008
1.64477e-008
1.64487e-008
1.64448e-008
1.64453e-008
1.64564e-008
1.6439e-008
1.64391e-008
1.64302e-008
1.86242
1.37868
1.03313
0.782742
0.597998
0.459141
0.352863
0.270065
0.204419
0.151486
0.108153
0.0722728
0.0424768
0.0181196
0.0035346
0.000292443
1.63923e-005
8.87023e-007
7.00679e-008
2.79715e-008
2.58492e-008
2.57747e-008
2.57788e-008
2.57264e-008
2.56976e-008
2.57005e-008
2.56168e-008
2.55987e-008
2.55988e-008
1.82504
1.35876
1.02491
0.78115
0.600505
0.464581
0.36041
0.279153
0.214681
0.162676
0.120074
0.0847183
0.0551425
0.0304971
0.0105642
0.00147937
9.84628e-005
5.41268e-006
3.39476e-007
7.08237e-008
5.67802e-008
5.61703e-008
5.61704e-008
5.59455e-008
5.5669e-008
5.55512e-008
5.53477e-008
5.53237e-008
5.53239e-008
1.77943
1.33058
1.00831
0.772974
0.597643
0.464834
0.363019
0.283608
0.220553
0.169648
0.127914
0.0932281
0.0641099
0.0395982
0.0191929
0.00454224
0.000427304
2.55689e-005
1.55427e-006
2.21517e-007
1.48866e-007
1.4514e-007
1.45069e-007
1.44477e-007
1.43145e-007
1.42398e-007
1.42278e-007
1.41824e-007
1.41826e-007
1.7281
1.29691
0.986461
0.759239
0.590046
0.461711
0.36251
0.284935
0.223374
0.17364
0.132824
0.098865
0.0702963
0.0461236
0.0257953
0.00941893
0.00134272
9.53107e-005
6.02206e-006
7.13449e-007
4.05862e-007
3.88443e-007
3.88049e-007
3.86473e-007
3.81745e-007
3.78866e-007
3.78867e-007
3.76706e-007
3.76038e-007
1.67251
1.25924
0.960986
0.7422
0.57893
0.455037
0.359393
0.284087
0.22401
0.17551
0.135666
0.102456
0.0744546
0.0506753
0.0305207
0.0136874
0.00302245
0.000274119
1.89441e-005
2.1522e-006
1.09661e-006
1.03156e-006
1.02883e-006
1.02535e-006
1.01244e-006
9.99578e-007
9.99148e-007
9.91921e-007
9.88614e-007
1.61383
1.21875
0.932979
0.722913
0.565815
0.446345
0.353974
0.281382
0.223241
0.175969
0.137121
0.104688
0.0772773
0.0539147
0.0339785
0.0171132
0.00487993
0.00061256
4.8671e-005
5.90707e-006
2.93996e-006
2.74383e-006
2.73779e-006
2.72138e-006
2.67575e-006
2.63565e-006
2.62617e-006
2.61287e-006
2.5995e-006
1.55291
1.17628
0.903253
0.702139
0.551416
0.436542
0.347528
0.277417
0.22129
0.175553
0.137747
0.106106
0.0792832
0.0563433
0.0366627
0.0198778
0.00673954
0.00106401
0.000105046
1.5132e-005
8.07688e-006
7.50857e-006
7.4382e-006
7.47435e-006
7.44727e-006
7.22422e-006
7.14753e-006
7.07473e-006
7.03585e-006
1.49011
1.13226
0.87225
0.680316
0.536151
0.426015
0.340463
0.272904
0.21868
0.174455
0.137747
0.106957
0.0807694
0.0582833
0.0388898
0.022239
0.00860627
0.00165652
0.000193304
3.26587e-005
1.85654e-005
1.76594e-005
1.76401e-005
1.73814e-005
1.6959e-005
1.69019e-005
1.69097e-005
1.69986e-005
1.68885e-005
1.42571
1.08695
0.840225
0.657682
0.520242
0.414975
0.332985
0.268055
0.21579
0.173041
0.137535
0.107582
0.0820204
0.0599883
0.0408927
0.0243892
0.0104892
0.00241778
0.000334736
5.93396e-005
3.05566e-005
2.71656e-005
2.66571e-005
2.68236e-005
2.69254e-005
2.6681e-005
2.64125e-005
2.60234e-005
2.60125e-005
1.35996
1.04059
0.807368
0.634402
0.503835
0.403559
0.325226
0.263002
0.212752
0.171514
0.137143
0.108073
0.0831678
0.0616094
0.0428312
0.0265007
0.0124824
0.00335881
0.000523111
8.87839e-005
3.97384e-005
3.54801e-005
3.52338e-005
3.47263e-005
3.43321e-005
3.43481e-005
3.4424e-005
3.4429e-005
3.4175e-005
1.29308
0.993318
0.773803
0.610575
0.487019
0.391844
0.317261
0.257817
0.209644
0.169966
0.136772
0.108593
0.0843586
0.0632904
0.0448456
0.0286936
0.0146234
0.00458303
0.000843483
0.000146292
5.43626e-005
4.24436e-005
4.10945e-005
4.13875e-005
4.13405e-005
4.09043e-005
4.04271e-005
4.03218e-005
4.06225e-005
1.22529
0.945286
0.739614
0.586251
0.469814
0.379839
0.30909
0.252498
0.206461
0.168392
0.136415
0.109157
0.0856121
0.0650512
0.046961
0.031019
0.0169856
0.0061245
0.00129291
0.000227561
6.90848e-005
4.92395e-005
4.6819e-005
4.57186e-005
4.56193e-005
4.58319e-005
4.59621e-005
4.58659e-005
4.52075e-005
1.1569
0.896671
0.704903
0.561477
0.452236
0.367533
0.300688
0.247012
0.20317
0.166763
0.136048
0.109747
0.0869227
0.0668911
0.049165
0.0334283
0.0194484
0.00798543
0.00201402
0.00038523
9.87568e-005
5.6185e-005
5.06625e-005
5.04364e-005
5.01684e-005
4.94405e-005
4.91011e-005
4.92309e-005
4.9732e-005
1.08826
0.847702
0.669807
0.536329
0.434321
0.35494
0.292055
0.241353
0.199764
0.165073
0.13567
0.110374
0.088314
0.0688536
0.0515364
0.0360565
0.0222029
0.0102532
0.00295617
0.000613853
0.000144273
6.66066e-005
5.46801e-005
5.23699e-005
5.25465e-005
5.29439e-005
5.28521e-005
5.22278e-005
5.17469e-005
1.01976
0.798612
0.634467
0.510887
0.416105
0.342068
0.283181
0.235502
0.196216
0.163295
0.135258
0.111016
0.0897658
0.0709171
0.0540428
0.0388526
0.0251625
0.0130128
0.00451929
0.00107434
0.000238376
8.49251e-005
5.9684e-005
5.63175e-005
5.45062e-005
5.42361e-005
5.45088e-005
5.48848e-005
5.47893e-005
0.951774
0.749648
0.599032
0.485231
0.397622
0.328919
0.274046
0.229421
0.192482
0.161378
0.134756
0.111619
0.0912294
0.0730407
0.0566575
0.0418019
0.0282963
0.0160376
0.00642982
0.0017346
0.000400645
0.000120117
6.74687e-005
5.83465e-005
5.73902e-005
5.67879e-005
5.59908e-005
5.59865e-005
5.60332e-005
0.884709
0.701068
0.563661
0.459451
0.378914
0.315498
0.264629
0.223073
0.18851
0.159263
0.1341
0.112116
0.0926353
0.0751552
0.0593124
0.0448509
0.0316087
0.0194286
0.00901893
0.00286855
0.00070669
0.000189745
8.32823e-005
6.23732e-005
5.85544e-005
5.84029e-005
5.79652e-005
5.78246e-005
5.75659e-005
0.818965
0.653137
0.528525
0.433651
0.360034
0.301823
0.254924
0.216433
0.184264
0.156903
0.13324
0.112452
0.0939241
0.0772
0.0619445
0.0479183
0.034966
0.0229693
0.012136
0.00454877
0.00127363
0.000329979
0.000115541
7.06754e-005
6.10811e-005
5.92964e-005
5.92403e-005
5.90278e-005
5.8929e-005
0.754917
0.606114
0.493798
0.407943
0.341049
0.287929
0.244939
0.209491
0.17972
0.154268
0.132135
0.112562
0.0950565
0.079152
0.0645445
0.0510165
0.0384198
0.0266424
0.0156907
0.00687415
0.00218701
0.000596895
0.00018281
8.72103e-005
6.62937e-005
6.1226e-005
6.012e-005
6.02438e-005
6.00402e-005
0.692905
0.560242
0.459648
0.382438
0.322029
0.27385
0.234685
0.202238
0.174853
0.15132
0.130741
0.112443
0.0959787
0.0809412
0.0670448
0.054084
0.0419198
0.0304608
0.019617
0.010008
0.00371294
0.00109589
0.000321329
0.000122969
7.56035e-005
6.51303e-005
6.18843e-005
6.11046e-005
6.13532e-005
0.633226
0.515738
0.426232
0.357247
0.303044
0.259628
0.224177
0.19467
0.169646
0.148031
0.129034
0.112067
0.0966722
0.0825309
0.069384
0.0570421
0.0453709
0.0342794
0.0237221
0.013807
0.00609452
0.00203526
0.000603578
0.000200948
9.64991e-005
7.07124e-005
6.52783e-005
6.28181e-005
6.22621e-005
0.576131
0.472797
0.393697
0.332474
0.284168
0.245309
0.213438
0.186791
0.164083
0.144373
0.126961
0.111325
0.0970391
0.0838548
0.0715069
0.0598313
0.0487085
0.0380532
0.0277978
0.0179909
0.00929334
0.00363941
0.00116356
0.000366884
0.00014362
8.3858e-005
6.88683e-005
6.58934e-005
6.37785e-005
0.521825
0.431587
0.362176
0.308225
0.265477
0.230944
0.202499
0.17861
0.158158
0.140319
0.124475
0.110157
0.096981
0.0847914
0.0733036
0.0623614
0.0518542
0.0417064
0.031867
0.0222645
0.0132273
0.00605867
0.00217321
0.000704145
0.000245866
0.000114178
7.77416e-005
6.84695e-005
6.65553e-005
0.470468
0.392251
0.331791
0.284597
0.247047
0.216589
0.191397
0.170149
0.151877
0.135865
0.121573
0.108592
0.0966144
0.0854013
0.0747788
0.0645979
0.0547522
0.045168
0.0358005
0.0266171
0.0175721
0.00949615
0.0039394
0.00136565
0.000464262
0.000181986
9.86829e-005
7.49492e-005
6.87129e-005
0.422176
0.354905
0.302646
0.261681
0.228955
0.202304
0.180174
0.161434
0.145253
0.13101
0.118239
0.106585
0.0957808
0.0855312
0.0758372
0.0664738
0.057347
0.0483879
0.0395522
0.0308137
0.0221645
0.013708
0.00678739
0.00262954
0.000917087
0.000332396
0.000146703
9.04229e-005
7.38569e-005
0.377023
0.319637
0.274831
0.239561
0.211273
0.18815
0.168879
0.152501
0.138304
0.125759
0.114462
0.104102
0.0944373
0.0852601
0.0764717
0.0679414
0.0595702
0.0512885
0.0430486
0.03482
0.0265819
0.018391
0.0106271
0.00488034
0.00183031
0.000655659
0.000255949
0.000126452
8.58434e-005
0.335047
0.286512
0.248422
0.218313
0.194073
0.174189
0.157564
0.143387
0.13106
0.120128
0.110246
0.101146
0.0926183
0.084508
0.0765722
0.0689214
0.0613495
0.0537944
0.0462096
0.0385627
0.0308269
0.022988
0.0152284
0.00824278
0.00356065
0.00133133
0.000495178
0.000209398
0.000113447
0.296247
0.255569
0.223477
0.198003
0.177421
0.160485
0.146282
0.13414
0.123554
0.114139
0.105602
0.097712
0.0902855
0.0831753
0.0762379
0.0693997
0.0626444
0.055848
0.0489627
0.0419543
0.0347969
0.027461
0.0199472
0.0126229
0.00642851
0.00265622
0.00100597
0.000392833
0.000177064
0.260592
0.226823
0.200038
0.178688
0.161379
0.147098
0.135094
0.124811
0.115829
0.107826
0.100553
0.0938115
0.0874447
0.0813249
0.0753561
0.0693202
0.0633903
0.0573795
0.0512337
0.0449142
0.0383919
0.0316427
0.0246329
0.0173965
0.010511
0.00506456
0.00205179
0.00079353
0.000319016
0.228015
0.200266
0.17813
0.160413
0.146005
0.134089
0.124058
0.115456
0.107936
0.10123
0.0951296
0.0894661
0.0841038
0.0789307
0.0738531
0.0687727
0.0635532
0.0583477
0.0529707
0.0473811
0.041546
0.0354339
0.0290296
0.0222841
0.0152927
0.00882876
0.00404174
0.00163616
0.000633465
0.198424
0.175865
0.157762
0.143212
0.131346
0.121517
0.113236
0.106136
0.0999316
0.0944039
0.0893773
0.0847106
0.0802875
0.0760107
0.0717985
0.0675874
0.0632221
0.0587206
0.0541272
0.0492989
0.0441966
0.0387796
0.0330247
0.0269039
0.0203744
0.013579
0.0074809
0.00330586
0.00131138
0.171697
0.153567
0.138923
0.127104
0.117443
0.109433
0.102688
0.0969136
0.0918798
0.0874069
0.0833505
0.0795923
0.0760339
0.0725917
0.0691936
0.0657788
0.0622892
0.058532
0.054661
0.0506146
0.0462807
0.0416121
0.0365708
0.0311161
0.0252398
0.0188382
0.0121973
0.00641614
0.00270878
0.147691
0.133296
0.121588
0.112099
0.104328
0.0978868
0.0924733
0.0878545
0.0838473
0.0803062
0.0771129
0.0741699
0.0713947
0.068716
0.0660713
0.0634048
0.0606621
0.0577816
0.0545779
0.051296
0.0477453
0.0438623
0.039593
0.0348839
0.0296967
0.0239865
0.017633
0.0111181
0.00539676
0.12624
0.114961
0.105716
0.0981917
0.0920236
0.0869187
0.0826454
0.0790216
0.075903
0.0731729
0.070736
0.0685122
0.0664336
0.0644404
0.0624794
0.0605017
0.0584604
0.0563142
0.053969
0.0512938
0.048538
0.0454656
0.0420152
0.0381227
0.0337181
0.0287566
0.0230778
0.0168182
0.00994735
0.107169
0.0984566
0.0912531
0.0853671
0.0805423
0.0765628
0.073254
0.0704757
0.0681153
0.0660805
0.0642951
0.0626947
0.0612237
0.0598333
0.0584792
0.0571204
0.0557174
0.0542338
0.0526369
0.0507924
0.0486377
0.0463752
0.0437693
0.0407479
0.037216
0.0331082
0.028227
0.0226541
0.015971
0.0902917
0.0836669
0.078136
0.0736001
0.0698879
0.066845
0.0643418
0.0622724
0.0605496
0.0591013
0.0578672
0.0567963
0.0558443
0.0549719
0.0541434
0.0533257
0.0524876
0.0515987
0.0506297
0.0495507
0.0481933
0.0465575
0.044798
0.042679
0.0400944
0.0369489
0.0330335
0.0282516
0.0225214
0.0754211
0.0704713
0.0662937
0.0628571
0.0600558
0.0577829
0.0559444
0.054461
0.0532661
0.0523037
0.0515269
0.0508963
0.050377
0.0499383
0.0495524
0.0491938
0.0488403
0.0484681
0.0480546
0.0475748
0.047002
0.0461469
0.0450587
0.0438427
0.0422559
0.0401641
0.0374044
0.033593
0.0290124
0.0623725
0.0587478
0.0556509
0.0530987
0.0510344
0.0493868
0.0480893
0.0470833
0.0463181
0.0457505
0.0453446
0.045071
0.0449019
0.0448166
0.0447901
0.0448074
0.044856
0.0449178
0.0449747
0.0450084
0.0450138
0.0449545
0.0446866
0.0441772
0.0435992
0.0426187
0.0411673
0.0386346
0.0352806
0.050969
0.0483767
0.0461308
0.0442812
0.0428056
0.0416596
0.0407965
0.0401733
0.0397514
0.0394978
0.0393823
0.0393937
0.0394954
0.0396934
0.0399556
0.0402731
0.0406407
0.041049
0.0414931
0.0419639
0.0424642
0.0429667
0.0435005
0.0437912
0.0440153
0.0440797
0.0439534
0.0431722
0.0413367
0.0410453
0.0392432
0.0376571
0.0363582
0.0353475
0.0345988
0.0340797
0.0337579
0.0336049
0.033597
0.0337035
0.0339344
0.0342567
0.0346652
0.035146
0.0356934
0.0363067
0.036984
0.0377278
0.0385363
0.0394234
0.0403759
0.0414349
0.0425434
0.043624
0.0445698
0.0459322
0.0464867
0.046266
0.0324502
0.03124
0.0301562
0.0292836
0.0286356
0.0281981
0.027948
0.0278593
0.0279136
0.0280896
0.0283805
0.0287781
0.0292664
0.0298384
0.0304867
0.0312101
0.0320101
0.0328929
0.0338596
0.0349227
0.036095
0.0373759
0.0388275
0.0403743
0.0423292
0.0440985
0.0466164
0.0485646
0.0505432
0.0250483
0.0242688
0.0235594
0.023013
0.0226454
0.0224506
0.0224113
0.0225007
0.0227191
0.0230482
0.0234811
0.024016
0.0246405
0.0253499
0.0261354
0.0270064
0.0279582
0.0290112
0.0301484
0.0314236
0.0328069
0.0343755
0.0361238
0.0380409
0.0405064
0.0429883
0.0466848
0.0494244
0.0540198
0.0187212
0.0182421
0.0178053
0.0175077
0.0173567
0.0173565
0.0174826
0.0177275
0.0180851
0.0185472
0.0191068
0.0197716
0.0205258
0.0213736
0.0222907
0.0233219
0.0244371
0.0257243
0.0271038
0.028781
0.0305311
0.0327921
0.0350321
0.0381244
0.0411653
0.044778
0.0493462
0.0532797
0.0615261
0.0133687
0.0130864
0.0128445
0.0127401
0.0127706
0.0129299
0.0132275
0.013609
0.014102
0.0147069
0.0153914
0.0162007
0.0171114
0.0181681
0.0193297
0.0207529
0.0223557
0.0244595
0.0268526
0.0300021
0.0331259
0.0379812
0.0421193
0.0498025
0.0552722
0.0665022
0.0735081
0.0878423
0.0981533
0.00891326
0.00874995
0.00865238
0.00871511
0.0089334
0.00927014
0.00976051
0.0102807
0.0109237
0.0117238
0.0125703
0.0136927
0.01507
0.0169031
0.0191863
0.0221829
0.0258796
0.031229
0.0375944
0.0470114
0.0571637
0.0727909
0.087429
0.112599
0.132228
0.172011
0.197923
0.262788
0.285302
0.00533339
0.00524677
0.00528762
0.00556076
0.00609664
0.0066521
0.00741519
0.00812854
0.00910662
0.0105388
0.0121247
0.0146611
0.0181201
0.0230177
0.0293699
0.0381692
0.049402
0.0644381
0.0824928
0.106101
0.133181
0.169269
0.208829
0.26497
0.322266
0.414544
0.498954
0.673931
0.774947
0.00295055
0.00296947
0.00324605
0.00397188
0.00519966
0.00628623
0.00789979
0.0094796
0.0118929
0.015605
0.0199932
0.0268211
0.0358792
0.0477304
0.0625281
0.0815308
0.105172
0.134991
0.171074
0.215853
0.269108
0.335666
0.415063
0.517492
0.639895
0.80877
1.01414
1.32597
1.63021
0.000990139
0.000990139
0.00099014
0.00099014
0.00099014
0.000990141
0.000990141
0.000990141
0.000990141
0.000990142
0.000990142
0.000990142
0.000990143
0.000990143
0.000990143
0.000990144
0.000990144
0.000990144
0.000990144
0.000990145
0.000990145
0.000990145
0.000990146
0.000990146
0.000990146
0.000990147
0.000990147
0.000990147
0.000990148
0.000990148
0.000990148
0.000990149
0.000990149
0.000990149
0.000990149
0.00099015
0.00099015
0.00099015
0.00099015
0.00099015
0.000990151
0.000990151
0.000990151
0.000990151
0.000990151
0.000990151
0.000990151
0.000990152
0.000990152
0.000990152
0.000990152
0.000990152
0.000990152
0.000990152
0.000990152
0.000990152
0.000990152
0.000990152
0.000990152
0.000990153
0.000990153
0.000990153
0.000990153
0.000990153
0.000990153
0.000990153
0.000990153
0.000990153
0.000990153
0.000990153
0.000990153
0.000990154
0.000990154
0.000990154
0.000990154
0.000990154
0.000990154
0.000990154
0.000990154
0.000990154
0.000990154
0.000990154
0.000990154
0.000990154
0.000990154
0.000990154
0.000990154
0.000990154
0.000990154
0.000990154
0.000990154
0.000990154
0.000990154
0.000990154
0.000990154
0.000990155
0.000990155
0.000990155
0.000990155
0.000990155
0.000990155
0.000990155
0.000990155
0.000990155
0.000990155
0.000990155
0.000990155
0.000990155
0.000990155
0.000990155
0.000990155
0.000990155
0.000990155
0.000990155
0.000990154
0.000990154
0.000990154
0.000990154
0.000990154
0.000990154
0.000990154
0.000990155
0.000990155
0.000990155
0.000990155
0.000990156
0.000990155
0.000990156
0.000990156
0.000990157
0.000990158
0.000990158
0.00099016
0.000990162
0.000990161
0.000990165
0.000990165
0.000990174
0.00100825
4.09879e-005
4.09886e-005
4.09892e-005
4.09898e-005
4.09903e-005
4.09908e-005
4.09912e-005
4.09917e-005
4.09921e-005
4.09925e-005
4.0993e-005
4.09934e-005
4.09939e-005
4.09945e-005
4.0995e-005
4.09955e-005
4.0996e-005
4.09965e-005
4.0997e-005
4.09975e-005
4.0998e-005
4.09984e-005
4.09989e-005
4.09994e-005
4.1e-005
4.10005e-005
4.1001e-005
4.10016e-005
4.10021e-005
4.10027e-005
4.10032e-005
4.10037e-005
4.10043e-005
4.10048e-005
4.10053e-005
4.10057e-005
4.1006e-005
4.10063e-005
4.10067e-005
4.1007e-005
4.10073e-005
4.10076e-005
4.10079e-005
4.10082e-005
4.10085e-005
4.10087e-005
4.1009e-005
4.10092e-005
4.10094e-005
4.10096e-005
4.10098e-005
4.101e-005
4.10101e-005
4.10103e-005
4.10105e-005
4.10106e-005
4.10108e-005
4.10109e-005
4.10111e-005
4.10112e-005
4.10114e-005
4.10116e-005
4.10118e-005
4.1012e-005
4.10121e-005
4.10123e-005
4.10125e-005
4.10126e-005
4.10128e-005
4.10129e-005
4.10131e-005
4.10132e-005
4.10134e-005
4.10135e-005
4.10136e-005
4.10138e-005
4.10139e-005
4.10139e-005
4.1014e-005
4.10141e-005
4.10142e-005
4.10142e-005
4.10142e-005
4.10142e-005
4.10142e-005
4.10142e-005
4.10141e-005
4.1014e-005
4.1014e-005
4.10142e-005
4.10144e-005
4.10146e-005
4.10149e-005
4.10151e-005
4.10153e-005
4.10155e-005
4.10157e-005
4.10159e-005
4.10161e-005
4.10162e-005
4.10163e-005
4.10165e-005
4.10166e-005
4.10166e-005
4.10167e-005
4.10168e-005
4.10169e-005
4.10169e-005
4.10169e-005
4.10169e-005
4.10167e-005
4.10165e-005
4.10162e-005
4.10159e-005
4.10154e-005
4.10148e-005
4.10144e-005
4.10143e-005
4.10144e-005
4.10147e-005
4.10151e-005
4.10153e-005
4.10156e-005
4.1016e-005
4.10158e-005
4.10166e-005
4.10158e-005
4.10172e-005
4.10168e-005
4.10173e-005
4.10194e-005
4.10193e-005
4.10211e-005
4.10253e-005
4.10229e-005
4.10285e-005
4.10613e-005
4.10451e-005
4.14902e-005
3.38044e-006
3.3807e-006
3.3809e-006
3.38108e-006
3.38125e-006
3.38141e-006
3.38155e-006
3.38168e-006
3.38181e-006
3.38194e-006
3.38206e-006
3.38218e-006
3.3823e-006
3.38241e-006
3.38253e-006
3.38265e-006
3.38276e-006
3.38288e-006
3.383e-006
3.38312e-006
3.38325e-006
3.38338e-006
3.38352e-006
3.38365e-006
3.38379e-006
3.38393e-006
3.38408e-006
3.38422e-006
3.38437e-006
3.38452e-006
3.38467e-006
3.38483e-006
3.38498e-006
3.38514e-006
3.38529e-006
3.38543e-006
3.38557e-006
3.38572e-006
3.38585e-006
3.38599e-006
3.38613e-006
3.38627e-006
3.3864e-006
3.38653e-006
3.38666e-006
3.38679e-006
3.38691e-006
3.38703e-006
3.38715e-006
3.38727e-006
3.38739e-006
3.3875e-006
3.38761e-006
3.38772e-006
3.38782e-006
3.38792e-006
3.38802e-006
3.38812e-006
3.38821e-006
3.38831e-006
3.38841e-006
3.38852e-006
3.38862e-006
3.38873e-006
3.38883e-006
3.38893e-006
3.38903e-006
3.38912e-006
3.38922e-006
3.38931e-006
3.3894e-006
3.38948e-006
3.38957e-006
3.38965e-006
3.38973e-006
3.38981e-006
3.38988e-006
3.38995e-006
3.39002e-006
3.39008e-006
3.39015e-006
3.3902e-006
3.39026e-006
3.39031e-006
3.39036e-006
3.39041e-006
3.39045e-006
3.39049e-006
3.39053e-006
3.39058e-006
3.39064e-006
3.39069e-006
3.39075e-006
3.39081e-006
3.39087e-006
3.39093e-006
3.39098e-006
3.39104e-006
3.3911e-006
3.39115e-006
3.39119e-006
3.39123e-006
3.39126e-006
3.39129e-006
3.39131e-006
3.39132e-006
3.39132e-006
3.39131e-006
3.39129e-006
3.39126e-006
3.3912e-006
3.39111e-006
3.39099e-006
3.39086e-006
3.39071e-006
3.39056e-006
3.39042e-006
3.39031e-006
3.39025e-006
3.3902e-006
3.39015e-006
3.39009e-006
3.38994e-006
3.38992e-006
3.38966e-006
3.38962e-006
3.38937e-006
3.38919e-006
3.38918e-006
3.38901e-006
3.38919e-006
3.38959e-006
3.38884e-006
3.3894e-006
3.39555e-006
3.39665e-006
3.00545e-006
3.20337e-006
6.26432e-005
5.32918e-007
5.32983e-007
5.33037e-007
5.33087e-007
5.33131e-007
5.33174e-007
5.33216e-007
5.33258e-007
5.33297e-007
5.33335e-007
5.33372e-007
5.33411e-007
5.33453e-007
5.33495e-007
5.33537e-007
5.33579e-007
5.3362e-007
5.33662e-007
5.33704e-007
5.33746e-007
5.33789e-007
5.33834e-007
5.33879e-007
5.33925e-007
5.33973e-007
5.34022e-007
5.34073e-007
5.34124e-007
5.34176e-007
5.34229e-007
5.34283e-007
5.34337e-007
5.34392e-007
5.34448e-007
5.34505e-007
5.34562e-007
5.3462e-007
5.34678e-007
5.34735e-007
5.34792e-007
5.34849e-007
5.34905e-007
5.34961e-007
5.35016e-007
5.35071e-007
5.35126e-007
5.3518e-007
5.35233e-007
5.35286e-007
5.35339e-007
5.35391e-007
5.35443e-007
5.35494e-007
5.35545e-007
5.35595e-007
5.35645e-007
5.35694e-007
5.35743e-007
5.35793e-007
5.35842e-007
5.35893e-007
5.35943e-007
5.35992e-007
5.3604e-007
5.36088e-007
5.36134e-007
5.3618e-007
5.36225e-007
5.36268e-007
5.36311e-007
5.36353e-007
5.36394e-007
5.36434e-007
5.36474e-007
5.36513e-007
5.36551e-007
5.36588e-007
5.36625e-007
5.3666e-007
5.36695e-007
5.36729e-007
5.36761e-007
5.36793e-007
5.36823e-007
5.36852e-007
5.3688e-007
5.36907e-007
5.36933e-007
5.36954e-007
5.36973e-007
5.36991e-007
5.37009e-007
5.37027e-007
5.37044e-007
5.3706e-007
5.37076e-007
5.37091e-007
5.37106e-007
5.37119e-007
5.3713e-007
5.3714e-007
5.37147e-007
5.37152e-007
5.37156e-007
5.37156e-007
5.37154e-007
5.37149e-007
5.37141e-007
5.3713e-007
5.37116e-007
5.37098e-007
5.3707e-007
5.37031e-007
5.36986e-007
5.36936e-007
5.36881e-007
5.36823e-007
5.36765e-007
5.36714e-007
5.36666e-007
5.36615e-007
5.36561e-007
5.36492e-007
5.36428e-007
5.36343e-007
5.36246e-007
5.36165e-007
5.36053e-007
5.35939e-007
5.35952e-007
5.35876e-007
5.34068e-007
5.3636e-007
5.41807e-007
4.9982e-007
4.83084e-007
4.68378e-006
0.000666587
0.0316345
1.45984e-007
1.46006e-007
1.46026e-007
1.46046e-007
1.46065e-007
1.46084e-007
1.46102e-007
1.46119e-007
1.46137e-007
1.46155e-007
1.46174e-007
1.46192e-007
1.4621e-007
1.46227e-007
1.46246e-007
1.46266e-007
1.46286e-007
1.46306e-007
1.46328e-007
1.46349e-007
1.46372e-007
1.46395e-007
1.46418e-007
1.46442e-007
1.46466e-007
1.4649e-007
1.46514e-007
1.46538e-007
1.46563e-007
1.46588e-007
1.46614e-007
1.46639e-007
1.46665e-007
1.46691e-007
1.46717e-007
1.46744e-007
1.46771e-007
1.46798e-007
1.46825e-007
1.46852e-007
1.46879e-007
1.46906e-007
1.46933e-007
1.4696e-007
1.46987e-007
1.47013e-007
1.4704e-007
1.47067e-007
1.47093e-007
1.47119e-007
1.47146e-007
1.47172e-007
1.47198e-007
1.47224e-007
1.47249e-007
1.47275e-007
1.473e-007
1.47326e-007
1.47351e-007
1.47376e-007
1.474e-007
1.47425e-007
1.47448e-007
1.47472e-007
1.47495e-007
1.47517e-007
1.4754e-007
1.47561e-007
1.47583e-007
1.47604e-007
1.47624e-007
1.47645e-007
1.47664e-007
1.47684e-007
1.47703e-007
1.47722e-007
1.4774e-007
1.47758e-007
1.47775e-007
1.47792e-007
1.47808e-007
1.47824e-007
1.4784e-007
1.47855e-007
1.47869e-007
1.47883e-007
1.47897e-007
1.4791e-007
1.47922e-007
1.47932e-007
1.47941e-007
1.4795e-007
1.47958e-007
1.47965e-007
1.47972e-007
1.47978e-007
1.47983e-007
1.47988e-007
1.47992e-007
1.47995e-007
1.47998e-007
1.47999e-007
1.47999e-007
1.47999e-007
1.47998e-007
1.47995e-007
1.47992e-007
1.47987e-007
1.47981e-007
1.47973e-007
1.47965e-007
1.47955e-007
1.4794e-007
1.47923e-007
1.47904e-007
1.47883e-007
1.47859e-007
1.47834e-007
1.47809e-007
1.47785e-007
1.47759e-007
1.47729e-007
1.47696e-007
1.4766e-007
1.47618e-007
1.47572e-007
1.47522e-007
1.4747e-007
1.47415e-007
1.47268e-007
1.47338e-007
1.52928e-007
1.47398e-007
1.26288e-007
2.51722e-007
7.24797e-006
0.000624443
0.0224366
0.206388
6.18576e-008
6.18674e-008
6.18775e-008
6.18885e-008
6.1899e-008
6.19082e-008
6.19192e-008
6.19306e-008
6.19418e-008
6.19525e-008
6.19631e-008
6.19748e-008
6.19874e-008
6.20002e-008
6.20125e-008
6.20251e-008
6.20379e-008
6.20508e-008
6.20637e-008
6.20768e-008
6.209e-008
6.21032e-008
6.21166e-008
6.21303e-008
6.21444e-008
6.21588e-008
6.21733e-008
6.21881e-008
6.22031e-008
6.2218e-008
6.22332e-008
6.22484e-008
6.22637e-008
6.22791e-008
6.22947e-008
6.23103e-008
6.23259e-008
6.23416e-008
6.23573e-008
6.2373e-008
6.23887e-008
6.24044e-008
6.24201e-008
6.24356e-008
6.24512e-008
6.24668e-008
6.24823e-008
6.24977e-008
6.25131e-008
6.25283e-008
6.25435e-008
6.25586e-008
6.25736e-008
6.25884e-008
6.26033e-008
6.26179e-008
6.26324e-008
6.26467e-008
6.2661e-008
6.2675e-008
6.26887e-008
6.27022e-008
6.27154e-008
6.27284e-008
6.27412e-008
6.27539e-008
6.27664e-008
6.27786e-008
6.27905e-008
6.28023e-008
6.28138e-008
6.28252e-008
6.28362e-008
6.2847e-008
6.28576e-008
6.28679e-008
6.2878e-008
6.28876e-008
6.28971e-008
6.29064e-008
6.29154e-008
6.29241e-008
6.29326e-008
6.29407e-008
6.29485e-008
6.29561e-008
6.29634e-008
6.29703e-008
6.29768e-008
6.29829e-008
6.29885e-008
6.29936e-008
6.29983e-008
6.30025e-008
6.30063e-008
6.30096e-008
6.30125e-008
6.30149e-008
6.30167e-008
6.30181e-008
6.30189e-008
6.30192e-008
6.30189e-008
6.30182e-008
6.30169e-008
6.30152e-008
6.30129e-008
6.301e-008
6.30063e-008
6.30018e-008
6.29968e-008
6.29915e-008
6.29852e-008
6.29778e-008
6.29695e-008
6.29601e-008
6.29495e-008
6.2938e-008
6.29261e-008
6.29135e-008
6.28996e-008
6.28844e-008
6.28668e-008
6.28484e-008
6.28263e-008
6.28045e-008
6.27783e-008
6.27515e-008
6.27383e-008
6.30108e-008
6.43661e-008
5.20262e-008
5.98188e-008
3.43381e-007
1.84201e-005
0.00103884
0.0236184
0.170089
0.611507
3.31485e-008
3.31617e-008
3.31737e-008
3.31836e-008
3.31928e-008
3.32057e-008
3.3217e-008
3.32275e-008
3.32384e-008
3.32501e-008
3.32634e-008
3.32766e-008
3.32889e-008
3.33008e-008
3.33138e-008
3.33275e-008
3.33414e-008
3.33555e-008
3.337e-008
3.33848e-008
3.33998e-008
3.34154e-008
3.34315e-008
3.34478e-008
3.34641e-008
3.34805e-008
3.3497e-008
3.35135e-008
3.35302e-008