/*--------------------------------*- C++ -*----------------------------------*\
| =========                 |                                                 |
| \\      /  F ield         | OpenFOAM: The Open Source CFD Toolbox           |
|  \\    /   O peration     | Version:  5.x                                   |
|   \\  /    A nd           | Web:      www.OpenFOAM.org                      |
|    \\/     M anipulation  |                                                 |
\*---------------------------------------------------------------------------*/
/*   Windows 32 and 64 bit porting by blueCAPE: http://www.bluecape.com.pt   *\
|  Based on Windows porting (2.0.x v4) by Symscape: http://www.symscape.com   |
\*---------------------------------------------------------------------------*/
FoamFile
{
    version     2.0;
    format      ascii;
    class       volScalarField;
    location    "180";
    object      nut;
}
// * * * * * * * * * * * * * * * * * * * * * * * * * * * * * * * * * * * * * //

dimensions      [0 2 -1 0 0 0 0];

internalField   nonuniform List<scalar> 
43900
(
5.71551e-005
5.80028e-005
5.80696e-005
5.80647e-005
5.80598e-005
5.80592e-005
5.80591e-005
5.80589e-005
5.80586e-005
5.80587e-005
5.80588e-005
5.80591e-005
5.80593e-005
5.80595e-005
5.80596e-005
5.80597e-005
5.80598e-005
5.80599e-005
5.806e-005
5.806e-005
5.80601e-005
5.80601e-005
5.80602e-005
5.80602e-005
5.80602e-005
5.80603e-005
5.80603e-005
5.80603e-005
5.80603e-005
0.00058186
7.30009e-006
4.30697e-006
4.15914e-006
4.58289e-006
4.60746e-006
4.60961e-006
4.60392e-006
4.60303e-006
4.6034e-006
4.60372e-006
4.6043e-006
4.60481e-006
4.60522e-006
4.60556e-006
4.60584e-006
4.60609e-006
4.6063e-006
4.60646e-006
4.6066e-006
4.60673e-006
4.60685e-006
4.60697e-006
4.60707e-006
4.60717e-006
4.60726e-006
4.60734e-006
4.60742e-006
4.60747e-006
0.152588
0.0450406
0.00504809
0.000102351
1.25645e-006
6.44008e-007
6.01093e-007
7.15809e-007
7.2573e-007
7.22792e-007
7.21767e-007
7.22148e-007
7.22518e-007
7.2266e-007
7.22789e-007
7.22927e-007
7.23053e-007
7.23161e-007
7.23265e-007
7.23364e-007
7.23453e-007
7.23535e-007
7.23608e-007
7.23673e-007
7.23734e-007
7.23788e-007
7.23838e-007
7.23885e-007
7.23918e-007
0.474894
0.290727
0.132972
0.0379179
0.00439201
0.00015592
3.7121e-006
2.42056e-007
1.68823e-007
2.02629e-007
2.16018e-007
2.13565e-007
2.11567e-007
2.12032e-007
2.12406e-007
2.12479e-007
2.12531e-007
2.12581e-007
2.12631e-007
2.12679e-007
2.12721e-007
2.12759e-007
2.12792e-007
2.12822e-007
2.1285e-007
2.12875e-007
2.12898e-007
2.1292e-007
2.12935e-007
0.754113
0.578543
0.410882
0.245719
0.103814
0.0248109
0.00226547
9.50169e-005
2.15187e-006
1.54661e-007
8.21709e-008
9.68251e-008
1.08406e-007
1.05134e-007
1.03149e-007
1.03212e-007
1.0331e-007
1.03346e-007
1.03372e-007
1.03395e-007
1.03416e-007
1.03435e-007
1.03451e-007
1.03467e-007
1.03481e-007
1.03496e-007
1.0351e-007
1.03522e-007
1.03533e-007
0.961682
0.79318
0.636372
0.483958
0.331084
0.177542
0.0612642
0.00985307
0.000618467
2.55716e-005
6.89626e-007
9.09062e-008
5.43072e-008
6.81466e-008
7.42676e-008
7.30706e-008
7.25331e-008
7.25134e-008
7.25245e-008
7.25386e-008
7.25484e-008
7.25587e-008
7.25707e-008
7.25801e-008
7.25926e-008
7.2605e-008
7.26127e-008
7.26212e-008
7.26298e-008
1.12179
0.958852
0.809932
0.668718
0.530213
0.390915
0.245325
0.103473
0.0235501
0.00206291
0.000101436
4.08623e-006
1.88422e-007
5.77908e-008
4.85925e-008
5.59889e-008
5.78154e-008
5.7789e-008
5.77785e-008
5.77925e-008
5.78043e-008
5.7814e-008
5.78192e-008
5.78289e-008
5.78326e-008
5.783e-008
5.78424e-008
5.78598e-008
5.78685e-008
1.22625
1.06789
0.92471
0.7911
0.66241
0.534877
0.40566
0.274311
0.130295
0.0348135
0.00376756
0.00020936
1.01404e-005
4.08465e-007
7.27571e-008
4.19468e-008
4.17652e-008
4.30325e-008
4.32541e-008
4.32787e-008
4.3291e-008
4.33036e-008
4.3314e-008
4.33238e-008
4.3325e-008
4.332e-008
4.33326e-008
4.33461e-008
4.33531e-008
1.32896
1.17331
1.03338
0.904088
0.781161
0.661067
0.541002
0.419108
0.295106
0.161675
0.0500141
0.00667315
0.000415399
2.14024e-005
1.01409e-006
8.62201e-008
5.03683e-008
4.35121e-008
4.28743e-008
4.28557e-008
4.28517e-008
4.28485e-008
4.28485e-008
4.28548e-008
4.28633e-008
4.28879e-008
4.2893e-008
4.28928e-008
4.28981e-008
1.38565
1.23636
1.10243
0.979775
0.864346
0.752756
0.6422
0.530443
0.415761
0.296264
0.172343
0.0564815
0.00806247
0.000529166
2.83023e-005
1.43697e-006
1.06037e-007
6.06147e-008
5.78026e-008
5.74517e-008
5.74369e-008
5.74303e-008
5.74236e-008
5.74222e-008
5.74321e-008
5.74677e-008
5.74694e-008
5.74691e-008
5.74748e-008
1.42518
1.27848
1.14933
1.03161
0.922027
0.81733
0.714755
0.611999
0.507197
0.398874
0.286166
0.16947
0.0547125
0.00748937
0.000489484
2.66833e-005
1.40249e-006
1.2168e-007
6.91905e-008
6.72805e-008
6.72112e-008
6.72113e-008
6.72108e-008
6.72128e-008
6.72243e-008
6.72543e-008
6.72613e-008
6.72636e-008
6.72692e-008
1.45644
1.31185
1.18477
1.07069
0.964886
0.864874
0.76802
0.672063
0.575115
0.475662
0.372586
0.26524
0.15385
0.0450693
0.00529808
0.000327725
1.78132e-005
9.79959e-007
1.28117e-007
9.03111e-008
8.85481e-008
8.85083e-008
8.85151e-008
8.84772e-008
8.84715e-008
8.85031e-008
8.83694e-008
8.83696e-008
8.82731e-008
1.47417
1.33339
1.20776
1.09601
0.994475
0.898464
0.806157
0.715462
0.624564
0.531973
0.436525
0.33736
0.233831
0.124936
0.0295654
0.00270564
0.000155815
8.46681e-006
5.89499e-007
1.94766e-007
1.75749e-007
1.75079e-007
1.75133e-007
1.74617e-007
1.74279e-007
1.74243e-007
1.73462e-007
1.73219e-007
1.73218e-007
1.4807
1.34359
1.22251
1.11224
1.01192
0.920008
0.831546
0.744931
0.658751
0.571546
0.482142
0.389638
0.293363
0.192707
0.0841773
0.0138567
0.000974305
5.42984e-005
3.37065e-006
6.50689e-007
5.0868e-007
5.02853e-007
5.03368e-007
5.00465e-007
4.96637e-007
4.95184e-007
4.9303e-007
4.92606e-007
4.92601e-007
1.47827
1.3443
1.22642
1.1208
1.02297
0.931163
0.846047
0.763542
0.681273
0.598382
0.513731
0.426431
0.335819
0.241287
0.141508
0.0415161
0.00433223
0.00026509
1.63231e-005
2.39624e-006
1.63174e-006
1.59348e-006
1.59785e-006
1.5877e-006
1.56665e-006
1.55665e-006
1.55978e-006
1.5503e-006
1.55034e-006
1.46949
1.33871
1.22367
1.12082
1.02719
0.93947
0.854819
0.774294
0.69569
0.616097
0.535103
0.451851
0.365678
0.276052
0.182466
0.0818736
0.013637
0.00101144
6.50298e-005
8.26666e-006
4.99063e-006
4.81273e-006
4.82963e-006
4.80257e-006
4.72186e-006
4.67525e-006
4.70022e-006
4.6543e-006
4.63783e-006
1.45604
1.32852
1.21637
1.11613
1.02494
0.940365
0.859995
0.780858
0.703425
0.627144
0.549038
0.468883
0.386059
0.300104
0.21056
0.114495
0.0302545
0.00294539
0.000208076
2.56679e-005
1.43245e-005
1.36717e-005
1.37117e-005
1.36567e-005
1.34359e-005
1.31892e-005
1.32767e-005
1.31318e-005
1.30445e-005
1.43927
1.31511
1.20591
1.10831
1.01952
0.937142
0.859134
0.783744
0.708563
0.633304
0.55798
0.480467
0.400434
0.317401
0.230886
0.139094
0.0478401
0.00664214
0.000542827
7.18354e-005
3.966e-005
3.77248e-005
3.7776e-005
3.76439e-005
3.69111e-005
3.5996e-005
3.61066e-005
3.58874e-005
3.56122e-005
1.42017
1.29947
1.19332
1.09842
1.01207
0.931936
0.85606
0.782748
0.710551
0.637713
0.564095
0.488719
0.410946
0.33031
0.246315
0.157854
0.0645788
0.0114983
0.00118733
0.00018779
0.000110672
0.000104991
0.000104758
0.000105017
0.000103893
9.99162e-005
9.97646e-005
9.91189e-005
9.80926e-005
1.39934
1.28226
1.17927
1.08718
1.00332
0.925458
0.851676
0.780344
0.710065
0.639642
0.567535
0.494408
0.418867
0.340477
0.258791
0.173081
0.0804394
0.0176821
0.00219369
0.000416207
0.000264279
0.000254702
0.000254711
0.000252642
0.000246466
0.000244775
0.000244669
0.00024566
0.000243865
1.37715
1.26385
1.16416
1.07498
0.993716
0.918184
0.846538
0.777206
0.708864
0.640406
0.570956
0.499525
0.42584
0.349425
0.269834
0.1865
0.0957189
0.0253922
0.00377534
0.000748875
0.00043515
0.000399
0.000394016
0.000395701
0.000395055
0.000391601
0.000388371
0.000383913
0.000383591
1.35381
1.24445
1.14822
1.06208
0.983515
0.910409
0.840973
0.773696
0.707309
0.640753
0.573159
0.503801
0.432153
0.357792
0.280326
0.199268
0.111024
0.0345535
0.00581374
0.00108731
0.000563673
0.000521764
0.000519635
0.000514983
0.00050965
0.000508973
0.000509189
0.000508665
0.000506072
1.32943
1.22418
1.13156
1.04861
0.972869
0.9023
0.835172
0.770034
0.705675
0.641088
0.57545
0.508093
0.438494
0.366235
0.290937
0.21214
0.126763
0.0460752
0.00923199
0.00174798
0.000751112
0.000625829
0.000611202
0.000613772
0.000612695
0.000607479
0.000602048
0.000600207
0.00060301
1.30406
1.2031
1.11424
1.0346
0.961814
0.893895
0.829178
0.766276
0.704031
0.641489
0.577873
0.512554
0.445035
0.374918
0.301849
0.225367
0.14311
0.0598709
0.0138763
0.00262482
0.00091619
0.000715001
0.000692415
0.000680689
0.000679117
0.000680879
0.000681683
0.000680329
0.000672951
1.27771
1.18119
1.09623
1.02004
0.950326
0.885167
0.822968
0.762401
0.702366
0.641962
0.580454
0.517249
0.451871
0.383933
0.31309
0.238901
0.159662
0.0758281
0.0211112
0.00431763
0.0012516
0.000804973
0.000748259
0.000747171
0.000744253
0.000735942
0.000731415
0.00073235
0.000737254
1.25041
1.15847
1.07754
1.00491
0.938377
0.876089
0.816516
0.758394
0.700681
0.642527
0.583241
0.522265
0.459151
0.393531
0.325077
0.253365
0.17725
0.0944905
0.030422
0.00670941
0.00173194
0.000919638
0.000802446
0.00077557
0.000778932
0.0007848
0.000783369
0.000776971
0.000769734
1.22216
1.13491
1.05812
0.989168
0.925918
0.866603
0.809762
0.754193
0.698913
0.643123
0.586174
0.527538
0.46681
0.403623
0.337665
0.268565
0.195552
0.115587
0.044884
0.0114342
0.00273325
0.00110999
0.000859735
0.000828256
0.000808636
0.000803764
0.000807131
0.000812049
0.000810667
1.19296
1.1105
1.03795
0.97275
0.912871
0.856618
0.8026
0.749681
0.696935
0.643614
0.589124
0.533067
0.474729
0.41406
0.35071
0.2843
0.214257
0.137829
0.0623018
0.018114
0.00441973
0.00147525
0.000938048
0.00085162
0.000843078
0.00083772
0.000828685
0.000828371
0.000828486
1.16282
1.08522
1.01696
0.955588
0.899146
0.846026
0.794909
0.744723
0.6946
0.643848
0.591925
0.538426
0.482721
0.424658
0.36399
0.300398
0.233379
0.160917
0.0841141
0.0291265
0.00757321
0.00219844
0.00109637
0.000893739
0.000857397
0.00085696
0.000853053
0.000851735
0.000849164
1.13175
1.05904
0.995115
0.937607
0.884652
0.834721
0.786568
0.739186
0.691765
0.643659
0.594351
0.543384
0.490442
0.435133
0.377239
0.316494
0.252505
0.18398
0.108937
0.0447991
0.0132864
0.00364456
0.00142332
0.00097587
0.000884335
0.000867633
0.000867777
0.00086654
0.000865108
1.09973
1.03193
0.972355
0.918733
0.869294
0.822593
0.777456
0.732942
0.688294
0.642905
0.596251
0.547772
0.497784
0.445417
0.390451
0.332672
0.271744
0.206908
0.135664
0.065662
0.0222769
0.00636142
0.00210811
0.0011374
0.000936965
0.000888169
0.00087763
0.000879204
0.000877682
1.06677
1.00386
0.948621
0.898882
0.85297
0.809522
0.767437
0.725835
0.68401
0.641385
0.597462
0.551798
0.504549
0.455158
0.40328
0.348651
0.290982
0.229738
0.163051
0.0920162
0.0368846
0.0113739
0.00351527
0.00149027
0.00102297
0.00092685
0.000896466
0.000888391
0.000890588
1.03286
0.97478
0.923844
0.877965
0.835569
0.795377
0.756363
0.717708
0.678757
0.638984
0.59797
0.55547
0.511211
0.464491
0.41556
0.364083
0.309723
0.252078
0.189972
0.121601
0.0583726
0.020687
0.00637638
0.00227302
0.00122202
0.00097695
0.00092813
0.00090619
0.000899967
0.997961
0.944646
0.897951
0.855885
0.816973
0.780023
0.744081
0.708392
0.672354
0.635494
0.597449
0.557956
0.51649
0.473073
0.427241
0.37889
0.327796
0.2736
0.215633
0.152039
0.0855826
0.0357356
0.0119484
0.00394302
0.00168394
0.00109753
0.000959364
0.000932954
0.000914557
0.962056
0.913405
0.870867
0.832544
0.797064
0.763321
0.730436
0.697711
0.664593
0.630642
0.595484
0.558737
0.519726
0.479737
0.437379
0.392473
0.344839
0.294218
0.240113
0.181285
0.11695
0.0576539
0.0217028
0.00728852
0.00269935
0.00138559
0.00103825
0.000955218
0.00093873
0.925116
0.881008
0.842517
0.807846
0.775726
0.745138
0.715273
0.685494
0.655294
0.624262
0.592053
0.558361
0.523001
0.486117
0.446576
0.404831
0.360577
0.313523
0.263292
0.209042
0.14912
0.086894
0.0383171
0.0137559
0.00485926
0.00204752
0.00123133
0.00101156
0.000957033
0.88712
0.847408
0.812835
0.781704
0.752849
0.725342
0.698445
0.671577
0.644275
0.616165
0.586938
0.556346
0.524244
0.489598
0.45379
0.415582
0.374853
0.3314
0.284945
0.235005
0.180334
0.120141
0.0635234
0.0258244
0.00928453
0.00351936
0.00168906
0.00115005
0.00100076
0.848058
0.812576
0.781767
0.754041
0.728338
0.703819
0.679814
0.6558
0.631355
0.606138
0.57986
0.552267
0.523091
0.491807
0.459538
0.424548
0.387273
0.347441
0.304765
0.258876
0.209075
0.154003
0.0953699
0.0463558
0.0179864
0.00666001
0.00274319
0.00148482
0.00110519
0.807942
0.776498
0.749279
0.724803
0.702118
0.68047
0.659263
0.638025
0.616376
0.594005
0.570644
0.546059
0.520047
0.492535
0.462366
0.431123
0.397507
0.361388
0.322542
0.280654
0.235264
0.185464
0.130444
0.0752455
0.0341492
0.0131185
0.00505287
0.00227174
0.00135477
0.766808
0.739193
0.715368
0.693966
0.674143
0.655232
0.636705
0.618141
0.599203
0.579607
0.559107
0.537482
0.514522
0.490006
0.463376
0.435577
0.405446
0.372987
0.337956
0.300072
0.258935
0.213962
0.164146
0.109951
0.0593025
0.0253999
0.00988521
0.00401763
0.00194451
0.724727
0.700709
0.680065
0.661542
0.644407
0.628078
0.612093
0.596082
0.579746
0.562828
0.545105
0.52637
0.506427
0.485092
0.462276
0.436673
0.410352
0.381678
0.350558
0.316723
0.27985
0.239461
0.194879
0.145197
0.0925878
0.0469917
0.0195373
0.00777369
0.00327382
0.681807
0.661138
0.643442
0.62759
0.612953
0.599034
0.585434
0.571833
0.557966
0.543605
0.528547
0.5126
0.495582
0.477305
0.457568
0.435889
0.412579
0.387524
0.360219
0.330394
0.297735
0.261863
0.222209
0.178015
0.12877
0.0783455
0.037454
0.0154895
0.00617996
0.638194
0.620609
0.605618
0.592215
0.579876
0.568181
0.556795
0.545442
0.533891
0.521942
0.509411
0.496122
0.481905
0.466589
0.450004
0.432074
0.411761
0.39008
0.366589
0.340772
0.312327
0.280889
0.246052
0.207109
0.163413
0.114806
0.0665596
0.0302828
0.0123002
0.594069
0.579294
0.566756
0.555574
0.545323
0.53566
0.526305
0.517024
0.507621
0.497918
0.487751
0.476962
0.465394
0.45289
0.43929
0.424453
0.40805
0.389417
0.369373
0.347556
0.323323
0.296334
0.266177
0.232374
0.194194
0.150917
0.103113
0.057138
0.0246608
0.549648
0.537401
0.527062
0.517871
0.509499
0.50167
0.494156
0.486764
0.479326
0.471686
0.463702
0.45523
0.446129
0.436256
0.425462
0.413593
0.400412
0.385677
0.368835
0.350725
0.330583
0.307971
0.282479
0.253633
0.220864
0.183383
0.140475
0.0937222
0.0476588
0.505171
0.49517
0.486778
0.479354
0.472654
0.466463
0.460601
0.454909
0.449245
0.443476
0.437476
0.431119
0.424279
0.416829
0.408633
0.399549
0.389402
0.378045
0.365119
0.349919
0.333817
0.315528
0.294671
0.270778
0.243289
0.211555
0.174388
0.132721
0.0833622
0.460894
0.452863
0.446176
0.440304
0.435076
0.430334
0.425937
0.421757
0.417675
0.413577
0.409353
0.404894
0.40009
0.394829
0.388995
0.382462
0.375094
0.366752
0.357228
0.346285
0.33293
0.318825
0.302511
0.283533
0.261328
0.235308
0.204088
0.168105
0.125013
0.417086
0.410759
0.405548
0.401023
0.397079
0.393606
0.390495
0.387644
0.384952
0.382324
0.379664
0.376878
0.373872
0.370551
0.366817
0.362567
0.357692
0.352075
0.345564
0.33803
0.32915
0.31779
0.305837
0.291653
0.274717
0.254401
0.229483
0.199156
0.163883
0.374013
0.369142
0.365192
0.361827
0.358994
0.35662
0.354626
0.352928
0.351443
0.350086
0.348776
0.347435
0.345981
0.344343
0.342435
0.340178
0.337488
0.334269
0.330414
0.325813
0.320406
0.313785
0.304575
0.294935
0.283151
0.268499
0.25022
0.225873
0.198272
0.331937
0.328289
0.325407
0.323029
0.321149
0.319722
0.318687
0.317977
0.317519
0.317243
0.317068
0.316955
0.316796
0.316604
0.316197
0.315682
0.314829
0.313662
0.312048
0.309905
0.307251
0.304316
0.300379
0.293358
0.286497
0.276901
0.265344
0.248209
0.226601
0.291103
0.28847
0.286477
0.284935
0.283865
0.283246
0.283028
0.283149
0.283553
0.284184
0.284895
0.285853
0.286693
0.287779
0.288649
0.289458
0.290141
0.290645
0.290928
0.290981
0.290781
0.290382
0.289725
0.287681
0.283131
0.278073
0.27388
0.266721
0.253049
0.251742
0.249932
0.24867
0.247828
0.247446
0.247513
0.247984
0.24879
0.249905
0.251315
0.252671
0.254576
0.256282
0.258166
0.260005
0.261833
0.263611
0.265314
0.266918
0.26843
0.269931
0.271367
0.272442
0.274079
0.273556
0.27239
0.274691
0.271505
0.26787
0.214059
0.2129
0.212226
0.211971
0.212172
0.212824
0.213877
0.215223
0.216909
0.218855
0.221013
0.223315
0.225606
0.227981
0.23027
0.232532
0.234693
0.236671
0.238515
0.240128
0.241998
0.243106
0.24453
0.245642
0.249142
0.251683
0.256818
0.26163
0.266055
0.178237
0.177569
0.177361
0.177602
0.178302
0.179472
0.181015
0.182731
0.184968
0.187303
0.189672
0.192055
0.194256
0.196334
0.197958
0.199341
0.200311
0.20037
0.200078
0.198723
0.198271
0.197297
0.198486
0.197676
0.200315
0.20262
0.20865
0.21464
0.222675
0.144436
0.144111
0.144264
0.14494
0.146085
0.147758
0.149567
0.151778
0.153993
0.156194
0.157967
0.159236
0.159756
0.159614
0.158128
0.155973
0.152722
0.149334
0.146041
0.141615
0.139064
0.134135
0.133064
0.129077
0.129452
0.12613
0.129478
0.131043
0.141659
0.1128
0.112681
0.113128
0.114226
0.115901
0.11785
0.119923
0.121692
0.122913
0.12353
0.122566
0.120126
0.116174
0.111649
0.106473
0.101503
0.0961318
0.0907728
0.0866348
0.0818834
0.0787892
0.0757628
0.0745197
0.0742953
0.0743484
0.0767914
0.0780222
0.0817129
0.0840497
0.0835197
0.0835026
0.0842591
0.0858894
0.0882836
0.0901517
0.0907428
0.0902842
0.0878285
0.0842687
0.0784964
0.072756
0.0669401
0.0623972
0.0584728
0.0557212
0.0536717
0.0539116
0.0550015
0.0590252
0.0626282
0.0701424
0.0747452
0.0858964
0.0902178
0.105147
0.108623
0.128515
0.119667
0.0573051
0.0573848
0.0586877
0.0613819
0.064478
0.0637668
0.05963
0.054713
0.049169
0.045382
0.0408226
0.038674
0.0380393
0.0398209
0.0425558
0.0475647
0.0533263
0.0614322
0.0695391
0.0804365
0.0901881
0.104261
0.114892
0.13351
0.143825
0.170174
0.178262
0.220832
0.211905
0.0385662
0.0388778
0.0412566
0.0455138
0.0488861
0.0452311
0.040426
0.036063
0.0334237
0.0345097
0.0345769
0.0382319
0.0431703
0.0498368
0.0569515
0.0659194
0.0754587
0.0872284
0.0990343
0.113639
0.127193
0.145213
0.160483
0.184209
0.20075
0.235024
0.25179
0.306949
0.30854
5.80604e-005
5.80604e-005
5.80604e-005
5.80605e-005
5.80605e-005
5.80605e-005
5.80605e-005
5.80605e-005
5.80606e-005
5.80606e-005
5.80606e-005
5.80606e-005
5.80606e-005
5.80607e-005
5.80607e-005
5.80607e-005
5.80608e-005
5.80608e-005
5.80608e-005
5.80608e-005
5.80608e-005
5.80609e-005
5.80609e-005
5.80609e-005
5.80609e-005
5.8061e-005
5.8061e-005
5.8061e-005
5.8061e-005
5.80611e-005
5.80611e-005
5.80611e-005
5.80611e-005
5.80612e-005
5.80612e-005
5.80612e-005
5.80612e-005
5.80612e-005
5.80612e-005
5.80613e-005
5.80613e-005
5.80613e-005
5.80613e-005
5.80613e-005
5.80613e-005
5.80613e-005
5.80613e-005
5.80613e-005
5.80614e-005
5.80614e-005
5.80614e-005
5.80614e-005
5.80614e-005
5.80614e-005
5.80614e-005
5.80614e-005
5.80614e-005
5.80614e-005
5.80614e-005
5.80614e-005
5.80614e-005
5.80614e-005
5.80614e-005
5.80614e-005
5.80615e-005
5.80615e-005
5.80615e-005
5.80615e-005
5.80615e-005
5.80615e-005
5.80615e-005
5.80615e-005
5.80615e-005
5.80615e-005
5.80615e-005
5.80615e-005
5.80615e-005
5.80615e-005
5.80615e-005
5.80615e-005
5.80615e-005
5.80615e-005
5.80615e-005
5.80615e-005
5.80615e-005
5.80615e-005
5.80615e-005
5.80615e-005
5.80615e-005
5.80615e-005
5.80615e-005
5.80615e-005
5.80615e-005
5.80616e-005
5.80616e-005
5.80616e-005
5.80616e-005
5.80616e-005
5.80616e-005
5.80616e-005
5.80616e-005
5.80616e-005
5.80616e-005
5.80616e-005
5.80616e-005
5.80616e-005
5.80616e-005
5.80616e-005
5.80616e-005
5.80616e-005
5.80616e-005
5.80616e-005
5.80616e-005
5.80616e-005
5.80616e-005
5.80615e-005
5.80615e-005
5.80615e-005
5.80615e-005
5.80615e-005
5.80616e-005
5.80616e-005
5.80616e-005
5.80616e-005
5.80616e-005
5.80617e-005
5.80616e-005
5.80617e-005
5.80617e-005
5.80617e-005
5.80618e-005
5.80618e-005
5.8062e-005
5.80621e-005
5.80621e-005
5.80624e-005
5.80623e-005
5.80631e-005
5.93307e-005
4.60755e-006
4.60764e-006
4.60771e-006
4.60778e-006
4.60783e-006
4.60789e-006
4.60794e-006
4.608e-006
4.60805e-006
4.60809e-006
4.60814e-006
4.6082e-006
4.60825e-006
4.60831e-006
4.60837e-006
4.60843e-006
4.60849e-006
4.60855e-006
4.6086e-006
4.60865e-006
4.60871e-006
4.60877e-006
4.60882e-006
4.60888e-006
4.60894e-006
4.609e-006
4.60907e-006
4.60913e-006
4.60919e-006
4.60925e-006
4.60932e-006
4.60938e-006
4.60944e-006
4.60951e-006
4.60956e-006
4.60961e-006
4.60965e-006
4.60969e-006
4.60973e-006
4.60976e-006
4.6098e-006
4.60984e-006
4.60987e-006
4.60991e-006
4.60994e-006
4.60997e-006
4.61e-006
4.61003e-006
4.61005e-006
4.61008e-006
4.6101e-006
4.61012e-006
4.61014e-006
4.61016e-006
4.61018e-006
4.6102e-006
4.61022e-006
4.61023e-006
4.61025e-006
4.61027e-006
4.61029e-006
4.61031e-006
4.61034e-006
4.61036e-006
4.61038e-006
4.6104e-006
4.61042e-006
4.61044e-006
4.61046e-006
4.61048e-006
4.61049e-006
4.61051e-006
4.61053e-006
4.61054e-006
4.61056e-006
4.61057e-006
4.61059e-006
4.6106e-006
4.61061e-006
4.61062e-006
4.61062e-006
4.61063e-006
4.61063e-006
4.61063e-006
4.61063e-006
4.61063e-006
4.61062e-006
4.61061e-006
4.61061e-006
4.61063e-006
4.61066e-006
4.61068e-006
4.61071e-006
4.61074e-006
4.61076e-006
4.61079e-006
4.61081e-006
4.61083e-006
4.61085e-006
4.61087e-006
4.61089e-006
4.6109e-006
4.61091e-006
4.61093e-006
4.61094e-006
4.61095e-006
4.61095e-006
4.61096e-006
4.61096e-006
4.61096e-006
4.61094e-006
4.61091e-006
4.61088e-006
4.61084e-006
4.61078e-006
4.61071e-006
4.61067e-006
4.61065e-006
4.61067e-006
4.6107e-006
4.61074e-006
4.61076e-006
4.61078e-006
4.61083e-006
4.6108e-006
4.61089e-006
4.6108e-006
4.61095e-006
4.61091e-006
4.61095e-006
4.61119e-006
4.61118e-006
4.61137e-006
4.61187e-006
4.61154e-006
4.61216e-006
4.61748e-006
4.61464e-006
4.59318e-006
7.23965e-007
7.2402e-007
7.24062e-007
7.241e-007
7.24135e-007
7.24168e-007
7.24198e-007
7.24226e-007
7.24253e-007
7.2428e-007
7.24306e-007
7.24331e-007
7.24355e-007
7.24379e-007
7.24405e-007
7.24431e-007
7.24455e-007
7.2448e-007
7.24505e-007
7.24531e-007
7.24559e-007
7.24586e-007
7.24615e-007
7.24644e-007
7.24674e-007
7.24704e-007
7.24735e-007
7.24766e-007
7.24798e-007
7.2483e-007
7.24863e-007
7.24896e-007
7.2493e-007
7.24964e-007
7.24997e-007
7.25028e-007
7.2506e-007
7.25091e-007
7.25121e-007
7.25152e-007
7.25182e-007
7.25211e-007
7.25241e-007
7.25269e-007
7.25298e-007
7.25326e-007
7.25353e-007
7.2538e-007
7.25406e-007
7.25432e-007
7.25458e-007
7.25482e-007
7.25507e-007
7.2553e-007
7.25553e-007
7.25576e-007
7.25597e-007
7.25619e-007
7.2564e-007
7.25662e-007
7.25685e-007
7.25708e-007
7.25731e-007
7.25754e-007
7.25777e-007
7.25799e-007
7.25821e-007
7.25842e-007
7.25863e-007
7.25883e-007
7.25903e-007
7.25923e-007
7.25942e-007
7.2596e-007
7.25978e-007
7.25995e-007
7.26011e-007
7.26027e-007
7.26042e-007
7.26057e-007
7.2607e-007
7.26084e-007
7.26096e-007
7.26108e-007
7.26119e-007
7.2613e-007
7.2614e-007
7.26149e-007
7.26159e-007
7.26169e-007
7.2618e-007
7.26192e-007
7.26204e-007
7.26217e-007
7.2623e-007
7.26242e-007
7.26255e-007
7.26267e-007
7.26279e-007
7.2629e-007
7.263e-007
7.26309e-007
7.26316e-007
7.26322e-007
7.26326e-007
7.26329e-007
7.26329e-007
7.26327e-007
7.26323e-007
7.26317e-007
7.26305e-007
7.26286e-007
7.2626e-007
7.2623e-007
7.26198e-007
7.26165e-007
7.26133e-007
7.26108e-007
7.26093e-007
7.26082e-007
7.2607e-007
7.26056e-007
7.26023e-007
7.26017e-007
7.2596e-007
7.25947e-007
7.25893e-007
7.25852e-007
7.25847e-007
7.25812e-007
7.2585e-007
7.25955e-007
7.25773e-007
7.25793e-007
7.27833e-007
7.28092e-007
6.09387e-007
6.78593e-007
2.91198e-005
2.12956e-007
2.12982e-007
2.13002e-007
2.13021e-007
2.13038e-007
2.13055e-007
2.13071e-007
2.13086e-007
2.13101e-007
2.13115e-007
2.1313e-007
2.13145e-007
2.13161e-007
2.13176e-007
2.13192e-007
2.13208e-007
2.13224e-007
2.1324e-007
2.13256e-007
2.13273e-007
2.1329e-007
2.13307e-007
2.13325e-007
2.13344e-007
2.13363e-007
2.13382e-007
2.13402e-007
2.13422e-007
2.13442e-007
2.13463e-007
2.13484e-007
2.13505e-007
2.13527e-007
2.13549e-007
2.13571e-007
2.13594e-007
2.13616e-007
2.13639e-007
2.13662e-007
2.13685e-007
2.13707e-007
2.13729e-007
2.13751e-007
2.13773e-007
2.13795e-007
2.13817e-007
2.13839e-007
2.1386e-007
2.13881e-007
2.13902e-007
2.13923e-007
2.13944e-007
2.13964e-007
2.13984e-007
2.14004e-007
2.14024e-007
2.14044e-007
2.14064e-007
2.14084e-007
2.14104e-007
2.14124e-007
2.14144e-007
2.14164e-007
2.14183e-007
2.14202e-007
2.14221e-007
2.14239e-007
2.14257e-007
2.14274e-007
2.14291e-007
2.14308e-007
2.14324e-007
2.14341e-007
2.14356e-007
2.14372e-007
2.14387e-007
2.14402e-007
2.14417e-007
2.14431e-007
2.14445e-007
2.14458e-007
2.14471e-007
2.14484e-007
2.14496e-007
2.14508e-007
2.14519e-007
2.1453e-007
2.14541e-007
2.1455e-007
2.14557e-007
2.14564e-007
2.14571e-007
2.14577e-007
2.14584e-007
2.1459e-007
2.14596e-007
2.14602e-007
2.14607e-007
2.14612e-007
2.14617e-007
2.1462e-007
2.14623e-007
2.14625e-007
2.14626e-007
2.14626e-007
2.14625e-007
2.14623e-007
2.1462e-007
2.14616e-007
2.1461e-007
2.14603e-007
2.14593e-007
2.14578e-007
2.1456e-007
2.1454e-007
2.14518e-007
2.14495e-007
2.14472e-007
2.14451e-007
2.14432e-007
2.14412e-007
2.1439e-007
2.14363e-007
2.14338e-007
2.14305e-007
2.14266e-007
2.14234e-007
2.14188e-007
2.14145e-007
2.14148e-007
2.14111e-007
2.13078e-007
2.14368e-007
2.17515e-007
1.93213e-007
1.89393e-007
4.22795e-006
0.000739923
0.0220898
1.03547e-007
1.03561e-007
1.03574e-007
1.03587e-007
1.036e-007
1.03611e-007
1.03623e-007
1.03634e-007
1.03646e-007
1.03658e-007
1.0367e-007
1.03681e-007
1.03692e-007
1.03705e-007
1.03718e-007
1.0373e-007
1.03743e-007
1.03757e-007
1.03771e-007
1.03785e-007
1.03799e-007
1.03814e-007
1.03829e-007
1.03844e-007
1.03859e-007
1.03875e-007
1.0389e-007
1.03906e-007
1.03922e-007
1.03939e-007
1.03955e-007
1.03972e-007
1.03988e-007
1.04005e-007
1.04022e-007
1.0404e-007
1.04057e-007
1.04075e-007
1.04093e-007
1.0411e-007
1.04128e-007
1.04146e-007
1.04163e-007
1.04181e-007
1.04198e-007
1.04216e-007
1.04233e-007
1.04251e-007
1.04268e-007
1.04286e-007
1.04303e-007
1.0432e-007
1.04337e-007
1.04354e-007
1.04371e-007
1.04388e-007
1.04405e-007
1.04422e-007
1.04438e-007
1.04455e-007
1.04471e-007
1.04487e-007
1.04503e-007
1.04518e-007
1.04533e-007
1.04548e-007
1.04562e-007
1.04577e-007
1.04591e-007
1.04605e-007
1.04618e-007
1.04632e-007
1.04645e-007
1.04657e-007
1.0467e-007
1.04682e-007
1.04694e-007
1.04706e-007
1.04717e-007
1.04728e-007
1.04739e-007
1.0475e-007
1.0476e-007
1.0477e-007
1.04779e-007
1.04789e-007
1.04798e-007
1.04806e-007
1.04814e-007
1.04821e-007
1.04826e-007
1.04832e-007
1.04837e-007
1.04841e-007
1.04846e-007
1.04849e-007
1.04852e-007
1.04855e-007
1.04857e-007
1.04859e-007
1.0486e-007
1.04861e-007
1.04861e-007
1.0486e-007
1.04859e-007
1.04857e-007
1.04854e-007
1.0485e-007
1.04846e-007
1.04841e-007
1.04835e-007
1.04828e-007
1.04819e-007
1.04808e-007
1.04795e-007
1.04781e-007
1.04766e-007
1.04749e-007
1.04733e-007
1.04717e-007
1.04699e-007
1.0468e-007
1.04659e-007
1.04635e-007
1.04608e-007
1.04577e-007
1.04545e-007
1.04511e-007
1.04474e-007
1.04341e-007
1.04372e-007
1.10382e-007
1.04346e-007
8.72921e-008
2.39751e-007
1.29476e-005
0.00103761
0.0252941
0.144643
7.2641e-008
7.26501e-008
7.26595e-008
7.26701e-008
7.26804e-008
7.26893e-008
7.27003e-008
7.27111e-008
7.27213e-008
7.27315e-008
7.27423e-008
7.27542e-008
7.27665e-008
7.27782e-008
7.27891e-008
7.28009e-008
7.28129e-008
7.2825e-008
7.2837e-008
7.28492e-008
7.28615e-008
7.28739e-008
7.28866e-008
7.28997e-008
7.29132e-008
7.29268e-008
7.29405e-008
7.29544e-008
7.29683e-008
7.29822e-008
7.29963e-008
7.30105e-008
7.30246e-008
7.3039e-008
7.30536e-008
7.30681e-008
7.30827e-008
7.30974e-008
7.3112e-008
7.31267e-008
7.31414e-008
7.31561e-008
7.31708e-008
7.31854e-008
7.31999e-008
7.32145e-008
7.3229e-008
7.32435e-008
7.32579e-008
7.32721e-008
7.32864e-008
7.33006e-008
7.33146e-008
7.33286e-008
7.33425e-008
7.33562e-008
7.33698e-008
7.33832e-008
7.33966e-008
7.34096e-008
7.34225e-008
7.34349e-008
7.34472e-008
7.34593e-008
7.34712e-008
7.3483e-008
7.34946e-008
7.35059e-008
7.3517e-008
7.35279e-008
7.35386e-008
7.35492e-008
7.35593e-008
7.35693e-008
7.35791e-008
7.35886e-008
7.3598e-008
7.36068e-008
7.36155e-008
7.36241e-008
7.36324e-008
7.36403e-008
7.36481e-008
7.36555e-008
7.36625e-008
7.36694e-008
7.3676e-008
7.36822e-008
7.36881e-008
7.36936e-008
7.36984e-008
7.37029e-008
7.37069e-008
7.37103e-008
7.37134e-008
7.37159e-008
7.3718e-008
7.37196e-008
7.37205e-008
7.37211e-008
7.37209e-008
7.37205e-008
7.37191e-008
7.37175e-008
7.37153e-008
7.37128e-008
7.37097e-008
7.37061e-008
7.37016e-008
7.36962e-008
7.36905e-008
7.36848e-008
7.36782e-008
7.36707e-008
7.36623e-008
7.36529e-008
7.36423e-008
7.36307e-008
7.36186e-008
7.36058e-008
7.35919e-008
7.35765e-008
7.35589e-008
7.35405e-008
7.35184e-008
7.34967e-008
7.34696e-008
7.34449e-008
7.34279e-008
7.39625e-008
7.62856e-008
5.54257e-008
7.28278e-008
6.105e-007
4.80254e-005
0.0023053
0.0376588
0.180188
0.429179
5.78721e-008
5.78957e-008
5.79187e-008
5.79368e-008
5.79516e-008
5.79744e-008
5.79936e-008
5.80118e-008
5.80311e-008
5.8051e-008
5.80733e-008
5.80951e-008
5.81157e-008
5.81361e-008
5.8159e-008
5.81824e-008
5.82061e-008
5.82302e-008
5.82551e-008
5.82803e-008
5.83058e-008
5.83326e-008
5.83599e-008
5.83875e-008
5.84149e-008
5.84426e-008
5.84705e-008
5.84985e-008
5.85268e-008
5.85556e-008
5.85846e-008
5.86136e-008
5.86429e-008
5.86722e-008
5.87017e-008
5.87314e-008
5.87611e-008
5.87904e-008
5.88202e-008
5.885e-008
5.88795e-008
5.89086e-008
5.8938e-008
5.89672e-008
5.89963e-008
5.90253e-008
5.9054e-008
5.90825e-008
5.91109e-008
5.91391e-008
5.9167e-008
5.91946e-008
5.9222e-008
5.92491e-008
5.92755e-008
5.93023e-008
5.93286e-008
5.93544e-008
5.93797e-008
5.94049e-008
5.94295e-008
5.94536e-008
5.94775e-008
5.95009e-008
5.95242e-008
5.95469e-008
5.95691e-008
5.95911e-008
5.96125e-008
5.96336e-008
5.96543e-008
5.96742e-008
5.96942e-008
5.97137e-008
5.97326e-008
5.97509e-008
5.9768e-008
5.9786e-008
5.98035e-008
5.982e-008
5.98361e-008
5.98517e-008
5.98665e-008
5.98815e-008
5.9896e-008
5.99096e-008
5.99228e-008
5.99352e-008