/*--------------------------------*- C++ -*----------------------------------*\
| =========                 |                                                 |
| \\      /  F ield         | OpenFOAM: The Open Source CFD Toolbox           |
|  \\    /   O peration     | Version:  5.x                                   |
|   \\  /    A nd           | Web:      www.OpenFOAM.org                      |
|    \\/     M anipulation  |                                                 |
\*---------------------------------------------------------------------------*/
/*   Windows 32 and 64 bit porting by blueCAPE: http://www.bluecape.com.pt   *\
|  Based on Windows porting (2.0.x v4) by Symscape: http://www.symscape.com   |
\*---------------------------------------------------------------------------*/
FoamFile
{
    version     2.0;
    format      ascii;
    class       volScalarField;
    location    "180";
    object      p;
}
// * * * * * * * * * * * * * * * * * * * * * * * * * * * * * * * * * * * * * //

dimensions      [0 2 -2 0 0 0 0];

internalField   nonuniform List<scalar> 
43900
(
0.380248
0.379902
0.379864
0.379736
0.379543
0.379309
0.379115
0.378775
0.378529
0.378213
0.377893
0.377567
0.377225
0.376872
0.376508
0.376136
0.375755
0.375365
0.374968
0.374565
0.374154
0.373738
0.373316
0.372888
0.372456
0.372018
0.371576
0.37113
0.370679
0.378137
0.386171
0.380069
0.383336
0.380851
0.381601
0.380703
0.380525
0.3801
0.379679
0.37927
0.378841
0.378412
0.377984
0.377555
0.377124
0.37669
0.376254
0.375815
0.375373
0.374928
0.37448
0.374029
0.373576
0.373119
0.372659
0.372196
0.37173
0.371261
0.371181
0.392951
0.381827
0.388109
0.382986
0.385582
0.383179
0.38354
0.382458
0.382039
0.381476
0.380931
0.380405
0.37989
0.379383
0.37888
0.378382
0.377888
0.377397
0.376907
0.376418
0.375929
0.375441
0.374952
0.374462
0.37397
0.373477
0.372982
0.372486
0.366276
0.39385
0.387153
0.386975
0.386623
0.38619
0.385093
0.385091
0.384288
0.383942
0.383391
0.382888
0.382387
0.381887
0.381383
0.380879
0.380377
0.379875
0.379373
0.378871
0.378369
0.377866
0.377361
0.376855
0.376346
0.375836
0.375323
0.374808
0.374289
0.368582
0.392247
0.387248
0.386668
0.386678
0.386266
0.386078
0.385842
0.38533
0.385031
0.384603
0.384194
0.383777
0.383345
0.382898
0.382443
0.381979
0.381505
0.381023
0.380534
0.380038
0.379536
0.379028
0.378515
0.377997
0.377473
0.376946
0.376413
0.375876
0.372916
0.390963
0.387873
0.387613
0.387557
0.387165
0.386931
0.38669
0.386461
0.386206
0.385846
0.38551
0.38515
0.384771
0.384378
0.383971
0.383549
0.383111
0.382659
0.382195
0.381717
0.381227
0.380726
0.380214
0.379692
0.37916
0.378618
0.378068
0.37751
0.37916
0.392545
0.390792
0.390289
0.39025
0.390116
0.389803
0.389366
0.389063
0.388816
0.388496
0.388156
0.387804
0.387434
0.387051
0.386655
0.386244
0.385818
0.385379
0.384926
0.384458
0.383976
0.383477
0.382969
0.382444
0.381904
0.381355
0.38079
0.380212
0.385524
0.396481
0.395316
0.394736
0.394579
0.394455
0.394256
0.393927
0.393528
0.393158
0.392853
0.392525
0.392152
0.391767
0.39137
0.390959
0.390532
0.390088
0.389629
0.389158
0.38867
0.388164
0.387649
0.387116
0.386564
0.386005
0.385426
0.384833
0.384229
0.392753
0.401714
0.400977
0.400388
0.40015
0.399975
0.399761
0.399495
0.399155
0.398701
0.398263
0.397901
0.39752
0.397104
0.396674
0.396227
0.395762
0.395274
0.394772
0.394254
0.393709
0.393153
0.392579
0.391985
0.391379
0.39075
0.390111
0.389456
0.388778
0.40191
0.408122
0.407739
0.40715
0.406813
0.40655
0.40626
0.405931
0.405556
0.405113
0.404575
0.40403
0.403547
0.403057
0.402537
0.402009
0.401458
0.400887
0.400303
0.399689
0.39906
0.398411
0.397743
0.39706
0.396345
0.395626
0.394886
0.394117
0.393348
0.4109
0.416119
0.415834
0.415207
0.414789
0.414441
0.414067
0.413651
0.413192
0.412687
0.412117
0.411464
0.410792
0.410159
0.409545
0.40891
0.408258
0.407592
0.406891
0.406169
0.405423
0.404661
0.403879
0.403058
0.402235
0.401382
0.400503
0.399626
0.398714
0.42103
0.425422
0.425179
0.424526
0.424047
0.423634
0.423197
0.422717
0.422194
0.421625
0.421006
0.420326
0.419586
0.418826
0.418092
0.417387
0.416666
0.41591
0.415122
0.414297
0.413463
0.4126
0.411686
0.410766
0.409806
0.408822
0.407835
0.406801
0.405744
0.432484
0.435844
0.435612
0.434958
0.434432
0.433959
0.433461
0.432918
0.432329
0.431692
0.431004
0.43026
0.429456
0.428611
0.427755
0.426923
0.426125
0.425288
0.424408
0.423519
0.422579
0.421596
0.420601
0.419549
0.418474
0.417388
0.416241
0.415073
0.413879
0.4449
0.447398
0.447137
0.446472
0.445894
0.445351
0.444775
0.444148
0.443469
0.442734
0.441941
0.441086
0.440164
0.439177
0.438158
0.437148
0.436157
0.435182
0.434189
0.433131
0.432047
0.430945
0.42977
0.428572
0.427349
0.426065
0.424774
0.423436
0.422066
0.458243
0.460097
0.459778
0.459089
0.458454
0.457837
0.457179
0.456461
0.455679
0.45483
0.45391
0.452915
0.451839
0.45068
0.449454
0.44821
0.446998
0.445807
0.444594
0.443358
0.44208
0.440737
0.439375
0.437952
0.436482
0.435008
0.43346
0.431901
0.430313
0.472506
0.473927
0.473542
0.472814
0.472119
0.471428
0.470684
0.469871
0.468982
0.468011
0.466954
0.465808
0.464569
0.463234
0.461806
0.460332
0.458834
0.457409
0.456001
0.45452
0.45301
0.451475
0.449812
0.448157
0.446479
0.444683
0.442911
0.441081
0.439152
0.48765
0.488798
0.488348
0.487571
0.48681
0.486037
0.485203
0.484288
0.483285
0.482188
0.480992
0.479691
0.478284
0.476764
0.475127
0.473403
0.471703
0.470004
0.468309
0.46667
0.46495
0.463051
0.461245
0.459366
0.457323
0.455326
0.453257
0.451085
0.448983
0.503636
0.504639
0.504127
0.503293
0.502461
0.501605
0.500676
0.499654
0.498531
0.4973
0.495953
0.494487
0.492894
0.49117
0.489316
0.487341
0.485289
0.483294
0.481466
0.479522
0.477419
0.475414
0.473262
0.471005
0.468823
0.466498
0.464078
0.461702
0.459233
0.520357
0.521318
0.520749
0.519845
0.518934
0.517987
0.516954
0.515813
0.514554
0.51317
0.51165
0.50999
0.508184
0.506226
0.504111
0.501864
0.499565
0.497276
0.494992
0.49271
0.490451
0.48805
0.485564
0.483064
0.480457
0.477777
0.475087
0.472308
0.46947
0.537755
0.538752
0.53813
0.537148
0.536151
0.535109
0.533966
0.532699
0.531296
0.529747
0.528044
0.526181
0.524153
0.521954
0.519578
0.517018
0.514319
0.511634
0.509061
0.506517
0.503844
0.501055
0.498212
0.495318
0.492377
0.489333
0.486218
0.48304
0.47981
0.55572
0.556806
0.556133
0.555067
0.553978
0.552836
0.551578
0.550178
0.548624
0.546904
0.54501
0.542933
0.540665
0.538198
0.535523
0.532651
0.52964
0.526579
0.523536
0.520569
0.51753
0.514349
0.511161
0.507892
0.504448
0.500945
0.497397
0.493763
0.490115
0.574149
0.575364
0.574644
0.573491
0.572311
0.571067
0.569693
0.568159
0.566451
0.564556
0.562461
0.560159
0.557639
0.554897
0.551919
0.548688
0.54525
0.541771
0.538359
0.534995
0.531508
0.527935
0.524208
0.520422
0.51664
0.512688
0.508618
0.504543
0.500369
0.592887
0.594262
0.593495
0.592253
0.59098
0.589633
0.588139
0.586465
0.584596
0.582517
0.580214
0.577676
0.574893
0.571856
0.568558
0.565006
0.561227
0.5573
0.553354
0.54953
0.545641
0.541583
0.537455
0.533227
0.528904
0.524427
0.51994
0.515337
0.510653
0.611786
0.613341
0.612532
0.611202
0.609837
0.608389
0.606777
0.604966
0.602937
0.600675
0.598164
0.595391
0.592346
0.589022
0.585405
0.581479
0.577273
0.572956
0.568582
0.564167
0.559725
0.555207
0.55055
0.545825
0.540944
0.53592
0.530817
0.525627
0.520411
0.630688
0.632434
0.631586
0.630173
0.628722
0.627178
0.625453
0.623508
0.621325
0.618885
0.61617
0.613167
0.609862
0.606247
0.602312
0.598051
0.593441
0.588526
0.583573
0.578712
0.573764
0.56869
0.563519
0.558091
0.552567
0.547077
0.541461
0.535668
0.529771
0.64942
0.651364
0.650483
0.648993
0.647463
0.64583
0.643999
0.641928
0.639597
0.636984
0.634071
0.630841
0.627279
0.623374
0.619107
0.614463
0.609455
0.604173
0.59867
0.593119
0.587547
0.581891
0.576078
0.570194
0.564169
0.55792
0.551542
0.545193
0.538776
0.667818
0.669961
0.669051
0.667493
0.665893
0.66418
0.662252
0.660065
0.657595
0.65482
0.651718
0.64827
0.644457
0.640267
0.635684
0.630686
0.625239
0.61939
0.613423
0.607304
0.601156
0.594901
0.58849
0.581762
0.575046
0.568422
0.56143
0.554186
0.546899
0.68572
0.688058
0.687126
0.685509
0.683849
0.682067
0.680053
0.677759
0.675162
0.672236
0.668958
0.665305
0.661257
0.656797
0.651907
0.646573
0.640788
0.63455
0.627939
0.621199
0.614397
0.607431
0.600293
0.593146
0.585694
0.578081
0.570265
0.562396
0.554491
0.702982
0.705506
0.704556
0.702892
0.701183
0.699342
0.697253
0.694866
0.692154
0.689091
0.685651
0.681807
0.677538
0.672823
0.667645
0.661978
0.655801
0.649142
0.642129
0.634649
0.627126
0.619531
0.61172
0.603729
0.595671
0.587214
0.578668
0.570047
0.561245
0.719479
0.722172
0.721211
0.719511
0.717766
0.715878
0.713726
0.711259
0.708449
0.705266
0.701682
0.697667
0.693199
0.688255
0.682815
0.676857
0.670348
0.663254
0.655652
0.647793
0.639517
0.631129
0.622627
0.613822
0.604843
0.595671
0.586259
0.576745
0.567057
0.735107
0.737949
0.736981
0.735257
0.733486
0.731563
0.72936
0.726826
0.723931
0.720644
0.716931
0.712764
0.708116
0.702963
0.69728
0.691042
0.684225
0.676792
0.668759
0.66013
0.651324
0.642208
0.632785
0.623179
0.613403
0.603279
0.592967
0.58252
0.57195
0.749786
0.752752
0.751781
0.750045
0.748259
0.74631
0.744066
0.741476
0.738508
0.735127
0.7313
0.726996
0.722185
0.716836
0.710923
0.704418
0.697289
0.689495
0.681044
0.672044
0.662339
0.652498
0.64235
0.631826
0.621064
0.61006
0.598808
0.587417
0.575853
0.763464
0.766525
0.765554
0.763815
0.762023
0.760056
0.757781
0.755144
0.752111
0.748648
0.744719
0.740291
0.735327
0.729794
0.723662
0.716903
0.709487
0.701365
0.692479
0.682954
0.672905
0.662096
0.65109
0.639699
0.627865
0.615893
0.603805
0.591272
0.578633
0.776112
0.779237
0.778266
0.776534
0.774745
0.772767
0.770467
0.767791
0.764705
0.761171
0.757151
0.752607
0.747497
0.741789
0.73545
0.728446
0.720747
0.712318
0.703094
0.693058
0.682362
0.671099
0.659051
0.646735
0.634043
0.620918
0.607612
0.594074
0.580275
0.787726
0.790878
0.789911
0.788193
0.786414
0.784432
0.782114
0.779407
0.776274
0.772678
0.768574
0.763918
0.758673
0.752802
0.746268
0.739029
0.731051
0.722302
0.712743
0.702318
0.691073
0.679024
0.666349
0.653035
0.639258
0.625044
0.610351
0.595519
0.580547
0.79832
0.801464
0.800499
0.798804
0.797041
0.795059
0.792728
0.789995
0.786821
0.783166
0.778984
0.774229
0.768862
0.762837
0.756106
0.748632
0.740378
0.731307
0.721381
0.710548
0.698801
0.686193
0.672609
0.658371
0.643432
0.628009
0.612156
0.595944
0.579564
0.807925
0.811023
0.810061
0.808397
0.806654
0.804677
0.802337
0.799584
0.796376
0.79267
0.788419
0.783574
0.778085
0.7719
0.764977
0.757272
0.748736
0.73933
0.729017
0.717749
0.705471
0.692209
0.678043
0.662732
0.646727
0.630082
0.612833
0.5952
0.577281
0.816585
0.819603
0.818644
0.817015
0.815297
0.813329
0.810986
0.808218
0.804982
0.801233
0.796919
0.791986
0.786379
0.780048
0.772938
0.764993
0.756163
0.746405
0.735675
0.723937
0.711134
0.697216
0.68225
0.666262
0.649009
0.630999
0.612377
0.59317
0.573627
0.824355
0.827258
0.826302
0.824715
0.823025
0.821069
0.818728
0.815951
0.812694
0.808908
0.804538
0.799526
0.793814
0.787339
0.780038
0.771849
0.76272
0.752591
0.741412
0.729142
0.715745
0.701175
0.685382
0.668397
0.650339
0.630822
0.610596
0.589802
0.56841
0.831294
0.834052
0.8331
0.831558
0.829901
0.827962
0.825627
0.822847
0.819577
0.815763
0.811347
0.806266
0.800454
0.793839
0.786356
0.77793
0.768489
0.75797
0.746312
0.733461
0.719376
0.704027
0.687411
0.669417
0.650163
0.629653
0.607626
0.58503
0.561797
0.837465
0.840053
0.839105
0.837614
0.835993
0.834073
0.83175
0.828976
0.825701
0.821869
0.817418
0.812277
0.806377
0.799638
0.791979
0.783316
0.773564
0.762645
0.750483
0.737011
0.722176
0.705932
0.688302
0.669265
0.648729
0.626877
0.603487
0.578738
0.553491
0.842934
0.84533
0.844388
0.842951
0.841369
0.839474
0.83717
0.834408
0.831139
0.8273
0.822826
0.81764
0.811665
0.804812
0.796988
0.7881
0.778047
0.766724
0.75404
0.739912
0.724269
0.707055
0.688239
0.667894
0.64597
0.622526
0.597563
0.571064
0.54332
0.847764
0.849952
0.849019
0.84764
0.846099
0.844234
0.841955
0.839216
0.835962
0.832129
0.827646
0.822431
0.816397
0.809448
0.801478
0.792377
0.78203
0.770312
0.757103
0.742295
0.725793
0.707524
0.687424
0.66554
0.641908
0.616629
0.589791
0.56127
0.531376
0.852018
0.853988
0.853065
0.851747
0.850251
0.848421
0.846175
0.843467
0.840239
0.836425
0.831948
0.826722
0.820649
0.813624
0.805529
0.796237
0.785613
0.773513
0.759789
0.744293
0.726899
0.7075
0.68601
0.662423
0.636803
0.609239
0.580068
0.549275
0.5169
0.855754
0.8575
0.856593
0.855338
0.853889
0.852098
0.849893
0.847225
0.844035
0.840254
0.835799
0.830579
0.824488
0.817411
0.809216
0.799759
0.788882
0.776421
0.7622
0.74603
0.72773
0.707151
0.684171
0.658717
0.630852
0.600661
0.568486
0.53479
0.499788
0.859027
0.860549
0.859662
0.858472
0.857073
0.855326
0.853168
0.850549
0.847409
0.843672
0.839255
0.834059
0.827972
0.820866
0.812599
0.803008
0.791914
0.779124
0.764429
0.747607
0.728419
0.706641
0.682093
0.654634
0.624265
0.59109
0.555443
0.517886
0.479473
0.861887
0.86319
0.862328
0.861203
0.859856
0.858159
0.856055
0.853494
0.850412
0.846732
0.842367
0.837212
0.831149
0.82404
0.81573
0.806038
0.794767
0.78169
0.766563
0.749119
0.729073
0.706115
0.679966
0.650391
0.617304
0.58074
0.541131
0.498962
0.455868
0.864381
0.865473
0.864642
0.863583
0.862289
0.860646
0.858602
0.856105
0.85309
0.849478
0.845177
0.84008
0.834061
0.826973
0.818648
0.808893
0.797485
0.784172
0.768669
0.750654
0.729788
0.705686
0.677957
0.6462
0.610219
0.569896
0.525706
0.478213
0.429179
0.866549
0.867441
0.866648
0.865655
0.864416
0.86283
0.86085
0.858424
0.855484
0.851948
0.847723
0.842697
0.836739
0.829694
0.821384
0.811598
0.800099
0.786604
0.770792
0.752282
0.730667
0.705463
0.676195
0.642258
0.603265
0.558853
0.509444
0.4557
0.399557
0.86843
0.869135
0.868386
0.867458
0.866275
0.86475
0.862838
0.860486
0.857627
0.854175
0.850033
0.845091
0.839209
0.832226
0.823955
0.814172
0.802625
0.789
0.772949
0.754028
0.731773
0.70556
0.674819
0.638735
0.596711
0.54794
0.492711
0.431514
0.366944
0.870055
0.870589
0.869893
0.869027
0.867901
0.866438
0.864597
0.862323
0.859549
0.856184
0.852133
0.847282
0.841488
0.834582
0.826371
0.81662
0.805065
0.791363
0.775145
0.7559
0.733131
0.706052
0.674
0.635825
0.590836
0.53752
0.476023
0.406017
0.331325
0.871452
0.871835
0.8712
0.870392
0.869324
0.867924
0.866155
0.86396
0.861273
0.857997
0.854039
0.849283
0.843586
0.836769
0.828638
0.818946
0.807424
0.793703
0.777408
0.75795
0.734826
0.707069
0.673992
0.633939
0.58617
0.52826
0.460186
0.379914
0.292988
0.872647
0.872902
0.872332
0.871578
0.870569
0.869233
0.867535
0.865418
0.862817
0.859629
0.855763
0.851108
0.845516
0.838804
0.830784
0.821196
0.809777
0.796135
0.779902
0.760414
0.737176
0.709022
0.675287
0.633815
0.583771
0.52148
0.446838
0.354915
0.253259
0.87366
0.873814
0.873313
0.872608
0.87166
0.870385
0.868754
0.866711
0.864195
0.861096
0.857328
0.852791
0.847337
0.84078
0.832945
0.823558
0.812374
0.798965
0.782985
0.763701
0.740626
0.712442
0.678475
0.636173
0.584603
0.518684
0.437919
0.33353
0.213648
0.874508
0.874595
0.874161
0.873501
0.872614
0.871397
0.86983
0.867861
0.86544
0.862449
0.858819
0.854459
0.849222
0.842914
0.835369
0.826293
0.815459
0.802402
0.786782
0.767831
0.745059
0.717057
0.683111
0.64037
0.587705
0.518942
0.432075
0.315242
0.172376
0.875207
0.875258
0.874885
0.874267
0.873435
0.872275
0.870782
0.868912
0.866636
0.863813
0.860394
0.856283
0.85132
0.845295
0.838043
0.829254
0.818705
0.805897
0.790488
0.771659
0.748956
0.720832
0.686629
0.643115
0.589052
0.517118
0.423468
0.291863
0.119272
0.875762
0.875805
0.875482
0.874902
0.874108
0.873014
0.87163
0.869912
0.867845
0.865222
0.862028
0.858133
0.853351
0.847458
0.840297
0.83155
0.820981
0.808063
0.792482
0.773329
0.750232
0.721448
0.686444
0.641477
0.585443
0.509451
0.408729
0.259598
0.045454
0.876207
0.87625
0.875964
0.875423
0.874667
0.873656
0.872399
0.870829
0.868904
0.866369
0.863227
0.859341
0.854513
0.848504
0.841178
0.832203
0.821341
0.808047
0.792025
0.772325
0.748545
0.71886
0.682688
0.635946
0.577557
0.497095
0.390466
0.226954
-0.0341364
0.87679
0.876793
0.876509
0.876069
0.875588
0.874863
0.87372
0.872124
0.869943
0.867272
0.863879
0.85961
0.854385
0.84806
0.840341
0.83098
0.819597
0.805885
0.789255
0.769189
0.744578
0.714555
0.676819
0.62988
0.568044
0.487484
0.373732
0.215018
0.02202
0.370143
0.369519
0.368889
0.368252
0.367609
0.366961
0.366307
0.365648
0.364985
0.364317
0.363644
0.362968
0.362287
0.361603
0.360916
0.360225
0.359531
0.358834
0.358134
0.357432
0.356727
0.356021
0.355312
0.354601
0.353889
0.353176
0.352461
0.351745
0.351028
0.350311
0.349593
0.348875
0.348157
0.347439
0.346722
0.346005
0.345289
0.344574
0.34386
0.343147
0.342436
0.341727
0.34102
0.340316
0.339613
0.338914
0.338217
0.337524
0.336834
0.336148
0.335465
0.334787
0.334113
0.333443
0.332779
0.332119
0.331464
0.330815
0.330172
0.329534
0.328902
0.328277
0.327657
0.327045
0.326439
0.32584
0.325248
0.324663
0.324086
0.323516
0.322954
0.3224
0.321855
0.321317
0.320788
0.320268
0.319756
0.319253
0.318759
0.318275
0.317799
0.317334
0.316877
0.31643
0.315993
0.315566
0.315149
0.314742
0.314345
0.313958
0.313582
0.313217
0.312862
0.312518
0.312185
0.311862
0.311551
0.31125
0.31096
0.310681
0.310413
0.310156
0.30991
0.309675
0.309451
0.309238
0.309035
0.308843
0.308662
0.308491
0.308331
0.30818
0.30804
0.307909
0.307788
0.307676
0.307573
0.307479
0.307396
0.307323
0.30726
0.307205
0.307159
0.307121
0.307091
0.307067
0.30705
0.307041
0.307035
0.307038
0.307045
0.307059
0.30708
0.307105
0.307143
0.307177
0.307246
0.30727
0.307424
0.370705
0.370059
0.369408
0.368752
0.36809
0.367423
0.366751
0.366074
0.365392
0.364706
0.364015
0.363319
0.36262
0.361916
0.361208
0.360497
0.359783
0.359065
0.358344
0.35762
0.356894
0.356166
0.355435
0.354702
0.353967
0.353231
0.352494
0.351755
0.351015
0.350275
0.349534
0.348793
0.348052
0.347311
0.346571
0.345831
0.345092
0.344355
0.343618
0.342884
0.342151
0.341421
0.340692
0.339967
0.339244
0.338524
0.337807
0.337094
0.336384
0.335679
0.334977
0.33428
0.333587
0.332899
0.332216
0.331538
0.330865
0.330198
0.329536
0.328881
0.328231
0.327588
0.326952
0.326323
0.3257
0.325085
0.324477
0.323877
0.323284
0.3227
0.322123
0.321555
0.320995
0.320444
0.319902
0.319369
0.318844
0.318329
0.317824
0.317328
0.316842
0.316365
0.315899
0.315443
0.314998
0.314562
0.314138
0.313724
0.313321
0.312929
0.312547
0.312177
0.311817
0.311469
0.311132
0.310806
0.310492
0.310189
0.309898
0.309618
0.30935
0.309093
0.308848
0.308615
0.308393
0.308183
0.307985
0.307799
0.307623
0.30746
0.307308
0.307168
0.30704
0.306923
0.306817
0.306723
0.306641
0.306569
0.306507
0.306454
0.30641
0.306374
0.306346
0.306327
0.306314
0.30631
0.306311
0.306315
0.306334
0.306337
0.306368
0.306371
0.306402
0.306399
0.306446
0.30641
0.306412
0.306367
0.306318
0.371898
0.371218
0.370534
0.369845
0.369151
0.368453
0.367749
0.367041
0.366328
0.365609
0.364886
0.364159
0.363426
0.362689
0.361947
0.361201
0.360451
0.359696
0.358938
0.358177
0.357412
0.356644
0.355873
0.3551
0.354325
0.353547
0.352768
0.351987
0.351205
0.350423
0.349639
0.348855
0.348072
0.347288
0.346505
0.345723
0.344942
0.344161
0.343383
0.342606
0.341832
0.34106
0.34029
0.339524
0.33876
0.338
0.337243
0.33649
0.335742
0.334997
0.334257
0.333522
0.332792
0.332067
0.331347
0.330634
0.329925
0.329223
0.328528
0.327839
0.327156
0.326481
0.325812
0.325151
0.324498
0.323852
0.323214
0.322585
0.321964
0.321351
0.320747
0.320151
0.319565
0.318988
0.318421
0.317863
0.317314
0.316776
0.316248
0.31573
0.315222
0.314724
0.314238
0.313762
0.313296
0.312842
0.312399
0.311967
0.311546
0.311136
0.310738
0.310351
0.309977
0.309613
0.309262
0.308923
0.308596
0.30828
0.307978
0.307687
0.307409
0.307144
0.306891
0.30665
0.306423
0.306209
0.306007
0.305819
0.305644
0.305483
0.305335
0.305201
0.305081
0.304975
0.304883
0.304804
0.30474
0.304689
0.304653
0.304629
0.304619
0.304624
0.304641
0.304672
0.304717
0.304773
0.304844
0.304925
0.30501
0.305111
0.305217
0.305329
0.305443
0.305591
0.305562
0.305967
0.305634
0.30661
0.305464
0.373675
0.372963
0.372245
0.371521
0.37079
0.370054
0.369312
0.368564
0.36781
0.367051
0.366285
0.365515
0.364739
0.363958
0.363173
0.362383
0.361588
0.360789
0.359986
0.359178
0.358367
0.357552
0.356734
0.355912
0.355088
0.35426
0.353431
0.352599
0.351765
0.35093
0.350094
0.349257
0.348419
0.347581
0.346743
0.345905
0.345068
0.344231
0.343396
0.342563
0.341731
0.340901
0.340074
0.33925
0.338428
0.33761
0.336795
0.335984
0.335178
0.334375
0.333578
0.332786
0.331999
0.331217
0.330442
0.329672
0.328909
0.328153
0.327403
0.326661
0.325926
0.325198
0.324478
0.323767
0.323063
0.322368
0.321682
0.321004
0.320336
0.319676
0.319027
0.318386
0.317756
0.317135
0.316525
0.315925
0.315336
0.314757
0.314189
0.313632
0.313085
0.31255
0.312027
0.311514
0.311014
0.310525
0.310047
0.309582
0.309129
0.308688
0.30826
0.307845
0.307443
0.307053
0.306677
0.306314
0.305964
0.305628
0.305305
0.304997
0.304703
0.304422
0.304156
0.303905
0.303669
0.303447
0.30324
0.303049
0.302873
0.302713
0.302569
0.302441
0.302328
0.302232
0.302153
0.30209
0.302044
0.302014
0.302003
0.302009
0.302034
0.302077
0.302141
0.302222
0.302328
0.302455
0.302602
0.302768
0.302985
0.303201
0.303414
0.303873
0.303666
0.304877
0.303682
0.306484
0.303363
0.30907
0.301949
0.375238
0.374494
0.373741
0.37298
0.37221
0.371432
0.370646
0.369852
0.369049
0.368238
0.367421
0.366595
0.365763
0.364924
0.364077
0.363225
0.362366
0.361502
0.360632
0.359758
0.358879
0.357997
0.357111
0.356221
0.355329
0.354434
0.353537
0.352637
0.351736
0.350833
0.349929
0.349024
0.348118
0.347211
0.346305
0.345399
0.344493
0.343588
0.342684
0.341782
0.340882
0.339984
0.339089
0.338196
0.337307
0.336422
0.33554
0.334663
0.33379
0.332922
0.332059
0.331202
0.33035
0.329505
0.328666
0.327833
0.327008
0.326189
0.325379
0.324575
0.32378
0.322993
0.322215
0.321445
0.320685
0.319933
0.319191
0.318459
0.317737
0.317024
0.316323
0.315631
0.31495
0.314281
0.313622
0.312975
0.312339
0.311714
0.311102
0.310502
0.309914
0.309339
0.308776
0.308226
0.307689
0.307166
0.306656
0.30616
0.305677
0.305209
0.304755
0.304315
0.30389
0.303479
0.303083
0.302702
0.302336
0.301985
0.30165
0.301331
0.301027
0.300739
0.300467
0.300212
0.299973
0.299751
0.299545
0.299356
0.299185
0.299031
0.298894
0.298776
0.298675
0.298594
0.298531
0.298487
0.298463
0.298459
0.298476
0.298515
0.298578
0.298662
0.298774
0.29891
0.299074
0.29927
0.299515
0.299769
0.300035
0.300579
0.300475
0.301956
0.300676
0.304327
0.300192
0.307894
0.298257
0.31297
0.290042
0.376841
0.376058
0.375261
0.374452
0.37363
0.372797
0.371952
0.371095
0.370227
0.36935
0.368463
0.367567
0.366661
0.365746
0.364826
0.363899
0.362965
0.362024
0.361077
0.360124
0.359165
0.358199
0.357227
0.35625
0.355268
0.354281
0.35329
0.352296
0.351299
0.3503
0.349299
0.348297
0.347294
0.346292
0.34529
0.344289
0.343289
0.342291
0.341294
0.340301
0.33931
0.338323
0.337339
0.336359
0.335384
0.334414
0.333448
0.332488
0.331533
0.330585
0.329643
0.328707
0.327778
0.326857
0.325943
0.325037
0.324139
0.32325
0.32237
0.321498
0.320636
0.319784
0.318941
0.318109
0.317287
0.316475
0.315675
0.314885
0.314107
0.313341
0.312586
0.311843
0.311112
0.310394
0.309688
0.308995
0.308315
0.307649
0.306995
0.306356
0.30573
0.305117
0.304519
0.303935
0.303366
0.30281
0.30227
0.301745
0.301234
0.300739
0.300259
0.299794
0.299345
0.298911
0.298494
0.298092
0.297707
0.297337
0.296985
0.296649
0.296329
0.296027
0.295742
0.295474
0.295223
0.294991
0.294776
0.29458
0.294402
0.294242
0.294102
0.293982
0.293881
0.293801
0.293742
0.293705
0.29369
0.293698
0.293731
0.293787
0.293873
0.293982
0.294121
0.294291
0.294486
0.294706
0.294959
0.295327
0.295406
0.296247
0.29576
0.297497
0.296026
0.298973
0.296481
0.300507
0.295794
0.307407
0.275462
0.37952
0.378701
0.377863
0.377009
0.376137
0.375244
0.374335
0.373414
0.372479
0.371528
0.370564
0.369584
0.368595
0.367595
0.366578
0.36555
0.364512
0.363465
0.362409
0.361347
0.360279
0.359205
0.358127
0.357045
0.355958
0.354867
0.353773
0.352677
0.351578
0.350477
0.349374
0.34827
0.347165
0.34606
0.344956
0.343851
0.342748
0.341647
0.340548
0.339451
0.338358
0.337268
0.336182
0.335101
0.334025
0.332955
0.33189
0.330832
0.329781
0.328737
0.327701
0.326672
0.325652
0.324641
0.323639
0.322646
0.321663
0.32069
0.319727
0.318774
0.317832
0.316902
0.315982
0.315074
0.314177
0.313293
0.31242
0.31156
0.310713
0.309879
0.309057
0.308249
0.307454
0.306673
0.305905
0.305152
0.304413
0.303687
0.302977
0.30228
0.301599
0.300932
0.300281
0.299644
0.299023
0.298417
0.297827
0.297252
0.296692
0.296149
0.295622
0.29511
0.294615
0.294137
0.293674
0.293229
0.2928
0.292389
0.291994
0.291617
0.291258
0.290916
0.290592
0.290286
0.289999
0.28973
0.28948
0.289249
0.289038
0.288846
0.288674
0.288523
0.288392
0.288282
0.288194
0.288128
0.288083
0.288061
0.288062
0.288084
0.28813
0.288198
0.288283
0.288396
0.288527
0.288678
0.288782
0.289105
0.289013
0.289636
0.28926
0.290168
0.289656
0.290486
0.290645
0.2907
0.290992
0.297682
0.266278
0.3835
0.382638
0.381753
0.38084
0.379906
0.378949
0.377969
0.376965
0.37594
0.374899
0.373842
0.372772
0.371683
0.370577
0.369459
0.36834
0.36721
0.366074
0.364932
0.363779
0.362621
0.361455
0.360276
0.359083
0.357886
0.356687
0.355475
0.354257
0.353033
0.351806
0.350577
0.349346
0.348114
0.346883
0.345652
0.344423
0.343196
0.341972
0.340751
0.339533
0.33832
0.337112
0.335908
0.33471
0.333519
0.332334
0.331155
0.329985
0.328822
0.327667
0.326521
0.325383
0.324255
0.323137
0.322029
0.320931
0.319844
0.318768
0.317704
0.316651
0.315611
0.314583
0.313568
0.312566
0.311578
0.310603
0.309642
0.308694
0.307762
0.306844
0.30594
0.305051
0.304178
0.303319
0.302476
0.301649
0.300837
0.300041
0.29926
0.298496
0.297747
0.297015
0.2963
0.2956
0.294918
0.294251
0.293602
0.292968
0.292352
0.291752
0.29117
0.290604
0.290055
0.289524
0.28901
0.288513
0.288033
0.287571
0.287127
0.286701
0.286292
0.285902
0.285529
0.285175
0.284839
0.284521
0.284223
0.283942
0.283681
0.283438
0.283214
0.283009
0.282822
0.282654
0.282505
0.282373
0.28226
0.282162
0.282083
0.282017
0.281966
0.281933
0.281906
0.281891
0.281894
0.281919
0.281869
0.282024
0.281875
0.282176
0.281957
0.282316
0.282246
0.282212
0.282648
0.281695
0.281187
0.288018
0.260562
0.387971
0.38701
0.386019
0.385004
0.383965
0.382897
0.381803
0.380699
0.379573
0.378424
0.377252
0.376056
0.374848
0.373629
0.37238
0.371093
0.369788
0.368458
0.367124
0.365819
0.364532
0.363239
0.361941
0.360647
0.359332
0.357961
0.356566
0.355177
0.353791
0.352405
0.351022
0.349638
0.348257
0.346877
0.3455
0.344125
0.342754
0.341387
0.340025
0.338668
0.337318
0.335973
0.334636
0.333307
0.331986
0.330673
0.32937
0.328077
0.326795
0.325523
0.324262
0.323013
0.321777
0.320553
0.319342
0.318144
0.31696
0.31579
0.314633
0.313491
0.312364
0.311251
0.310153
0.309071
0.308003
0.306951
0.305914
0.304893
0.303888
0.302899
0.301926
0.300969
0.300029
0.299104
0.298197
0.297306
0.296432
0.295575
0.294735
0.293911
0.293106
0.292317
0.291546
0.290792
0.290056
0.289337
0.288636
0.287953
0.287288
0.28664
0.286011
0.2854
0.284806
0.284231
0.283673
0.283134
0.282613
0.282109
0.281623
0.281156
0.280705
0.280273
0.279858
0.279461
0.279081
0.278718
0.278372
0.278043
0.277731
0.277434
0.277154
0.27689
0.276641
0.276406
0.276186
0.27598
0.275787
0.275608
0.275439
0.275286
0.275138
0.275008
0.274891
0.274777
0.274681
0.274623
0.274487
0.274536
0.274357
0.274491
0.274335
0.274416
0.274585
0.274372
0.274696
0.273899
0.272489
0.278884
0.255036
0.392415
0.391299
0.390164
0.388995
0.387792
0.386574
0.385329
0.384049
0.382736
0.381404
0.380059
0.378693
0.377304
0.375885
0.374468
0.373055
0.371638
0.370211
0.36876
0.367263
0.365724
0.364168
0.362609
0.361037
0.359459
0.357915
0.3564
0.354875
0.353343
0.351809
0.350274
0.348741
0.347209
0.345678
0.34415
0.342625
0.341104
0.339587
0.338076
0.336571
0.335074
0.333584
0.332104
0.330634
0.329174
0.327726
0.326289
0.324865
0.323453
0.322054
0.32067
0.319299
0.317942
0.316601
0.315274
0.313963
0.312667
0.311387
0.310124
0.308877
0.307648
0.306435
0.30524
0.304062
0.302902
0.30176
0.300637
0.299531
0.298444
0.297375
0.296325
0.295295
0.294282
0.293289
0.292316
0.29136
0.290427
0.289511
0.288615
0.287739
0.286881
0.286044
0.285225
0.284425
0.283645
0.282882
0.28214
0.281415
0.28071
0.280023
0.279354
0.278704
0.278072
0.277458
0.276862
0.276285
0.275725
0.275183
0.274658
0.274152
0.273662
0.27319
0.272734
0.272295
0.271873
0.271467
0.271077
0.270703
0.270345
0.270001
0.269673
0.269359
0.26906
0.268776
0.268505
0.268249
0.268007
0.26778
0.267564
0.267367
0.267181
0.267011
0.266862
0.266724
0.266593
0.266522
0.266383
0.266391
0.266263
0.266315
0.266255
0.266243
0.26646
0.265936
0.26575
0.265118
0.263914
0.26949
0.248473
0.39761
0.396324
0.394998
0.393651
0.392275
0.39086
0.389415
0.387929
0.386449
0.384957
0.383412
0.381842
0.380259
0.378663
0.377051
0.375392
0.373722
0.372089
0.370433
0.36872
0.366993
0.365262
0.363535
0.361788
0.360027
0.358284
0.356535
0.354779
0.353025
0.351274
0.349522
0.347767
0.346023
0.344286
0.342555
0.340828
0.339109
0.337401
0.335703
0.334016
0.332342
0.33068
0.329032
0.327398
0.325777
0.324171
0.32258
0.321005
0.319446
0.317905
0.316381
0.314875
0.313388
0.31192
0.31047
0.30904
0.30763
0.30624
0.304869
0.303519
0.302189
0.30088
0.299591
0.298324
0.297076
0.295851
0.294645
0.293462
0.292298
0.291157
0.290036
0.288935
0.287857
0.286798
0.285759
0.284746
0.283747
0.282773
0.281817
0.280878
0.279964
0.279065
0.278188
0.277331
0.276492
0.275677
0.274879
0.274103
0.273347
0.272611
0.271895
0.271198
0.270522
0.269865
0.269227
0.268608
0.268008
0.267427
0.266864
0.266319
0.265792
0.265282
0.26479
0.264315
0.263857
0.263416
0.262992
0.262584
0.262193
0.261818
0.261459
0.261117
0.260791
0.260481
0.260188
0.259912
0.259652
0.259411
0.259185
0.258979
0.258792
0.25862
0.258466
0.25835
0.25821
0.258155
0.258028
0.258032
0.257921
0.257985
0.257942
0.257778
0.257807
0.257305
0.256919
0.256369
0.255454
0.260225
0.24166
0.404481
0.402983
0.401453
0.399875
0.398263
0.396618
0.394972
0.393313
0.391586
0.389814
0.388015
0.386195