/*--------------------------------*- C++ -*----------------------------------*\
| =========                 |                                                 |
| \\      /  F ield         | OpenFOAM: The Open Source CFD Toolbox           |
|  \\    /   O peration     | Version:  5.x                                   |
|   \\  /    A nd           | Web:      www.OpenFOAM.org                      |
|    \\/     M anipulation  |                                                 |
\*---------------------------------------------------------------------------*/
/*   Windows 32 and 64 bit porting by blueCAPE: http://www.bluecape.com.pt   *\
|  Based on Windows porting (2.0.x v4) by Symscape: http://www.symscape.com   |
\*---------------------------------------------------------------------------*/
FoamFile
{
    version     2.0;
    format      ascii;
    class       surfaceScalarField;
    location    "180";
    object      phi;
}
// * * * * * * * * * * * * * * * * * * * * * * * * * * * * * * * * * * * * * //

dimensions      [0 3 -1 0 0 0 0];

internalField   nonuniform List<scalar> 
87341
(
0.362549
39.5605
0.519853
39.7657
0.483624
39.9593
0.583096
39.8236
0.613476
39.8927
0.646257
39.8903
0.679224
39.8901
0.717839
39.8844
0.762098
39.8788
0.804213
39.8809
0.844419
39.8828
0.879704
39.8878
0.91081
39.8919
0.938638
39.8952
0.963813
39.8979
0.986735
39.9001
1.00773
39.902
1.02705
39.9037
1.04521
39.9049
1.0624
39.9058
1.07873
39.9067
1.09422
39.9076
1.10888
39.9084
1.12281
39.9091
1.13608
39.9098
1.14872
39.9104
1.1608
39.911
1.17239
39.9115
39.9119
1.18354
0.967746
38.5927
1.36001
39.3735
1.46912
39.8502
1.60853
39.6842
1.64436
39.8568
1.80529
39.7293
1.89956
39.7958
2.0174
39.7666
2.09519
39.801
2.17768
39.7984
2.25503
39.8055
2.33062
39.8122
2.40216
39.8204
2.46966
39.8277
2.53332
39.8342
2.59331
39.8401
2.64986
39.8455
2.70358
39.85
2.7539
39.8546
2.80084
39.8589
2.84474
39.8628
2.88584
39.8665
2.92455
39.8697
2.96114
39.8725
2.99567
39.8752
3.02847
39.8776
3.05958
39.8798
3.08904
39.882
39.8834
3.1175
2.03038
36.5624
3.33922
38.0646
4.11366
39.0757
4.19182
39.606
4.35699
39.6917
4.29666
39.7897
4.33462
39.7578
4.31975
39.7814
4.33902
39.7817
4.34913
39.7883
4.35759
39.797
4.37454
39.7952
4.39894
39.796
4.42723
39.7994
4.45741
39.804
4.48855
39.809
4.52024
39.8138
4.55145
39.8188
4.58244
39.8236
4.61314
39.8282
4.6433
39.8326
4.67366
39.8361
4.70389
39.8394
4.73392
39.8425
4.76422
39.8449
4.79433
39.8475
4.82445
39.8497
4.85494
39.8515
39.8531
4.88524
1.68262
34.8797
3.46897
36.2783
4.89931
37.6454
5.76644
38.7389
6.04628
39.4118
6.12207
39.7139
6.13258
39.7473
6.14628
39.7677
6.16324
39.7648
6.17749
39.7741
6.19888
39.7756
6.20957
39.7845
6.21577
39.7898
6.22459
39.7906
6.23743
39.7912
6.25482
39.7916
6.27574
39.7929
6.30089
39.7936
6.32892
39.7955
6.35973
39.7974
6.39402
39.7984
6.42963
39.8005
6.46699
39.8021
6.50613
39.8034
6.5452
39.8059
6.58511
39.8076
6.62547
39.8094
6.66502
39.812
39.8136
6.70453
1.06264
33.8171
2.40382
34.9371
3.94852
36.1007
5.38177
37.3056
6.41652
38.3771
6.96692
39.1635
7.14792
39.5663
7.1882
39.7275
7.22055
39.7324
7.26165
39.733
7.30067
39.7366
7.34574
39.7394
7.38559
39.7499
7.41994
39.7563
7.45342
39.7577
7.48668
39.7583
7.52301
39.7565
7.55928
39.7574
7.59895
39.7559
7.64265
39.7537
7.68706
39.7539
7.73584
39.7517
7.78708
39.7508
7.83847
39.752
7.89356
39.7508
7.94945
39.7517
8.0051
39.7537
8.06335
39.7537
39.7555
8.1215
0.825561
32.9915
1.80561
33.9571
2.94196
34.9643
4.23788
36.0097
5.55351
37.0614
6.64695
38.07
7.32691
38.8864
7.64547
39.4089
7.76448
39.6134
7.84182
39.6556
7.9187
39.6597
7.98285
39.6753
8.05285
39.6799
8.12412
39.685
8.19596
39.6859
8.26932
39.685
8.33757
39.6883
8.40832
39.6866
8.47763
39.6866
8.5426
39.6887
8.61068
39.6858
8.67534
39.6871
8.73727
39.6889
8.80281
39.6864
8.86498
39.6886
8.92651
39.6902
8.99152
39.6887
9.05346
39.6918
39.6907
9.1182
0.720004
32.2715
1.54157
33.1355
2.4633
34.0426
3.48901
34.984
4.60744
35.943
5.77817
36.8993
6.83337
37.8312
7.59106
38.6512
7.97353
39.231
8.12761
39.5015
8.22836
39.559
8.33927
39.5644
8.44397
39.5752
8.55214
39.5768
8.66051
39.5775
8.76376
39.5817
8.87302
39.579
8.97858
39.5811
9.08007
39.5851
9.18626
39.5825
9.28575
39.5864
9.38265
39.5902
9.48231
39.5892
9.57465
39.5941
9.66683
39.5964
9.75984
39.5972
9.84538
39.6031
9.93257
39.6046
39.6038
10.0195
0.666292
31.6052
1.40041
32.4014
2.20543
33.2376
3.0828
34.1066
4.02898
34.9968
5.03327
35.895
6.07881
36.7856
7.0837
37.6463
7.86819
38.4465
8.32204
39.0477
8.51746
39.3636
8.64373
39.4381
8.78125
39.4377
8.91117
39.4469
9.03635
39.4523
9.17252
39.4456
9.30482
39.4467
9.43317
39.4527
9.56611
39.4521
9.69325
39.4554
9.82165
39.458
9.95148
39.4603
10.0725
39.4683
10.198
39.4685
10.3233
39.4711
10.4379
39.4826
10.559
39.4821
10.6786
39.485
39.496
10.7864
0.627036
30.9782
1.30075
31.7276
2.02775
32.5106
2.80975
33.3246
3.64588
34.1607
4.53211
35.0088
5.46003
35.8577
6.41206
36.6943
7.35756
37.501
8.14784
38.2574
8.65383
38.8576
8.89278
39.1992
9.0519
39.2786
9.22321
39.2756
9.39595
39.2796
9.55643
39.2851
9.7155
39.2877
9.88092
39.2873
10.0361
39.297
10.1927
39.2988
10.3509
39.2997
10.4979
39.3133
10.6525
39.3137
10.8063
39.3147
10.9487
39.3287
11.0991
39.3322
11.245
39.3362
11.381
39.349
39.3525
11.5244
0.602699
30.3755
1.24723
31.0831
1.93068
31.8271
2.65482
32.6005
3.41999
33.3955
4.22484
34.2039
5.06586
35.0167
5.93621
35.8239
6.82302
36.6142
7.70704
37.3734
8.48433
38.0803
9.02004
38.6635
9.29085
39.0078
9.48311
39.0833
9.67949
39.0832
9.87775
39.0868
10.078
39.0874
10.2641
39.1012
10.4563
39.1048
10.6497
39.1054
10.8301
39.1194
11.0227
39.1208
11.2094
39.127
11.3827
39.1414
11.5667
39.1447
11.747
39.1519
11.9169
39.1662
12.0962
39.1697
39.1816
12.2672
0.606331
29.7692
1.2428
30.4466
1.91091
31.159
2.61123
31.9002
3.34362
32.6631
4.10702
33.4405
4.89921
34.2245
5.71639
35.0068
6.55225
35.7783
7.39674
36.5289
8.23147
37.2455
8.98685
37.9081
9.52676
38.4679
9.80998
38.8001
10.0206
38.8725
10.2381
38.8693
10.4466
38.8789
10.6661
38.8817
10.8879
38.883
11.0908
38.9025
11.3069
38.9033
11.5155
38.9121
11.7174
38.9251
11.9305
38.9283
12.1384
38.9368
12.3335
38.9569
12.5367
38.9629
12.7299
38.9766
38.9888
12.9226
0.606755
29.1624
1.23856
29.8148
1.89627
30.5013
2.57962
31.2168
3.28807
31.9547
4.02058
32.708
4.77519
33.4699
5.54905
34.2329
6.33803
34.9893
7.13607
35.7309
7.93375
36.4479
8.71392
37.1279
9.42962
37.7522
9.94618
38.2835
10.2531
38.5657
10.4927
38.6297
10.7437
38.6279
10.9918
38.6337
11.2206
38.6541
11.4676
38.6555
11.7104
38.6604
11.9451
38.6775
12.1859
38.6843
12.4189
38.6952
12.6364
38.7193
12.8645
38.7288
13.0889
38.7386
13.3095
38.7559
38.7671
13.5313
0.599363
28.5631
1.22089
29.1933
1.86425
29.858
2.52874
30.5523
3.21292
31.2705
3.91532
32.0056
4.63421
32.751
5.36713
33.5
6.11079
34.2457
6.86097
34.9807
7.61186
35.697
8.3548
36.385
9.07478
37.0322
9.73652
37.6218
10.2026
38.0996
10.5295
38.3028
10.8231
38.3343
11.1003
38.3564
11.3916
38.3629
11.6836
38.3635
11.9546
38.3894
12.2317
38.4003
12.5064
38.4096
12.771
38.4306
13.0419
38.4484
13.3162
38.4545
13.5709
38.4838
13.8199
38.507
38.5162
14.0708
0.594471
27.9686
1.20791
28.5799
1.83988
29.226
2.48994
29.9023
3.15673
30.6037
3.83796
31.3244
4.53136
32.0576
5.23482
32.7965
5.94569
33.5348
6.66055
34.2658
7.37514
34.9824
8.08376
35.6764
8.77833
36.3376
9.44744
36.9527
10.0412
37.5058
10.4622
37.8818
10.8007
37.9958
11.1382
38.0189
11.4852
38.0159
11.8006
38.048
12.1157
38.0744
12.4406
38.0754
12.756
38.0942
13.0616
38.1251
13.3827
38.1272
13.6698
38.1674
13.9527
38.2009
14.2533
38.2064
38.2271
14.5424
0.595384
27.3732
1.20758
27.9677
1.83571
28.5979
2.47904
29.2589
3.13684
29.9459
3.8076
30.6536
4.48879
31.3764
5.1777
32.1076
5.87192
32.8406
6.56881
33.5689
7.26502
34.2862
7.95657
34.9848
8.6383
35.6559
9.30297
36.288
9.94177
36.867
10.4722
37.3514
10.8707
37.5973
11.2603
37.6293
11.6147
37.6615
11.9618
37.701
12.351
37.6852
12.7178
37.7085
13.0485
37.7636
13.4039
37.7696
13.7288
37.8023
14.0501
37.8462
14.403
37.848
14.7279
37.8814
37.9339
15.0212
0.602819
26.7704
1.22112
27.3494
1.85396
27.965
2.50023
28.6126
3.15888
29.2872
3.82905
29.9835
4.5094
30.696
5.19756
31.4195
5.89067
32.1475
6.58625
32.8733
7.28169
33.5907
7.97357
34.2929
8.65744
34.972
9.32706
35.6184
9.97382
36.2202
10.5603
36.7649
11.0569
37.1007
11.48
37.2063
11.8707
37.2708
12.3167
37.2549
12.7196
37.2824
13.0759
37.3522
13.4802
37.3592
13.8704
37.3795
14.2317
37.4411
14.6258
37.452
14.977
37.4968
15.3026
37.5558
37.5712
15.6652
0.616269
26.1541
1.24725
26.7184
1.89198
27.3203
2.54932
27.9553
3.21796
28.6186
3.89654
29.3049
4.58389
30.0087
5.27869
30.7247
5.97862
31.4475
6.68073
32.1712
7.38216
32.8893
8.07989
33.5952
8.77021
34.2817
9.44879
34.9398
10.1112
35.5579
10.7502
36.1259
11.2948
36.5561
11.7468
36.7543
12.2495
36.7682
12.6942
36.8102
13.1108
36.8658
13.5666
36.8963
13.9941
36.9317
14.3884
36.9852
14.82
37.0095
15.2207
37.0513
15.5982
37.1193
15.9937
37.1602
37.2066
16.3583
0.633727
25.5204
1.28188
26.0703
1.94329
26.6589
2.6167
27.2819
3.30073
27.9346
3.99386
28.6118
4.69445
29.3081
5.40102
30.0181
6.11216
30.7364
6.82573
31.4577
7.53905
32.176
8.24963
32.8846
8.95481
33.5765
9.65157
34.2431
10.3357
34.8737
11.0017
35.4599
11.6003
35.9574
12.1545
36.2001
12.6268
36.2958
13.096
36.341
13.5629
36.3989
14.034
36.4252
14.5142
36.4516
14.979
36.5204
15.4017
36.5868
15.8087
36.6444
16.2184
36.7096
16.6221
36.7565
36.8044
17.0243
0.656256
24.8641
1.32688
25.3996
2.01069
25.9751
2.70639
26.5862
3.41258
27.2284
4.12775
27.8966
4.8503
28.5856
5.57856
29.2898
6.31094
30.004
7.04597
30.7226
7.78157
31.4404
8.51511
32.1511
9.24368
32.8479
9.96335
33.5234
10.6683
34.1688
11.3512
34.777
11.972
35.3367
12.5199
35.6522
13.0635
35.7522
13.5824
35.8221
14.1347
35.8467
14.6596
35.9003
15.108
36.0032
15.5493
36.079
16.0139
36.1222
16.4772
36.1811
16.9486
36.2383
17.4013
36.3037
36.3929
17.8128
0.682773
24.1814
1.38019
24.7022
2.091
25.2642
2.81385
25.8633
3.54728
26.495
4.28974
27.1541
5.03956
27.8357
5.79496
28.5345
6.55399
29.245
7.31469
29.9619
8.0749
30.6802
8.83188
31.3941
9.58223
32.0976
10.3217
32.7839
11.0447
33.4457
11.7457
34.076
12.4337
34.6487
13.0689
35.017
13.632
35.1891
14.1904
35.2637
14.7045
35.3326
15.178
35.4267
15.6875
35.4937
16.2113
35.5552
16.709
35.6245
17.1902
35.6998
17.6299
35.7987
18.053
35.8805
35.9672
18.4788
0.711514
23.4698
1.43804
23.9757
2.17829
24.524
2.93084
25.1108
3.69415
25.7316
4.46657
26.3817
5.24633
27.056
6.03152
27.7493
6.82008
28.4564
7.60984
29.1722
8.39861
29.8914
9.18407
30.6086
9.96353
31.3181
10.7344
32.0131
11.4947
32.6854
12.2459
33.3247
12.963
33.9316
13.6046
34.3754
14.2078
34.586
14.7592
34.7122
15.3091
34.7827
15.8644
34.8714
16.3964
34.9617
16.923
35.0286
17.4395
35.108
17.9137
35.2257
18.3933
35.319
18.83
35.4438
35.549
19.2482
0.741011
22.7288
1.49758
23.2191
2.26833
23.7532
3.05179
24.3273
3.84638
24.9371
4.65039
25.5777
5.46201
26.2443
6.27933
26.9319
7.10031
27.6354
7.92285
28.3496
8.74478
29.0695
9.56393
29.7895
10.3781
30.504
11.1848
31.2064
11.9812
31.889
12.7621
32.5439
13.5334
33.1603
14.2102
33.6986
14.7991
33.9971
15.4096
34.1017
15.974
34.2184
16.5465
34.2989
17.1419
34.3663
17.6684
34.5021
18.1386
34.6378
18.63
34.7343
19.1308
34.8182
19.6593
34.9153
35.052
20.1563
0.770983
21.9578
1.55809
22.432
2.36
22.9513
3.17525
23.5121
4.00228
24.11
4.83941
24.7406
5.68485
25.3989
6.5367
26.0801
7.39296
26.7792
8.25154
27.4911
9.11026
28.2107
9.96678
28.933
10.8185
29.6522
11.6624
30.3626
12.494
31.0574
13.3079
31.73
14.0748
32.3933
14.793
32.9804
15.4868
33.3033
16.1083
33.4802
16.7255
33.6012
17.2834
33.7409
17.788
33.8617
18.3365
33.9535
18.8846
34.0897
19.4243
34.1946
19.9123
34.3303
20.3574
34.4702
34.6116
20.7978
0.799912
21.1579
1.61653
21.6154
2.44861
22.1193
3.29472
22.666
4.15332
23.2514
5.02274
23.8712
5.90116
24.5205
6.7866
25.1947
7.67695
25.8888
8.56996
26.5981
9.46314
27.3176
10.3538
28.0423
11.2389
28.7672
12.1145
29.4869
12.9759
30.196
13.8158
30.8902
14.6397
31.5693
15.3995
32.2207
16.053
32.6498
16.7027
32.8305
17.3048
32.999
17.9436
33.1022
18.5602
33.2451
19.1057
33.408
19.6299
33.5655
20.1526
33.6718
20.6846
33.7983
21.2198
33.935
34.142
21.6893
0.82631
20.3316
1.66991
20.7718
2.52958
21.2596
3.40395
21.7916
4.29151
22.3639
5.19056
22.9721
6.09927
23.6118
7.01558
24.2783
7.93731
24.9671
8.86203
25.6733
9.78711
26.3925
10.7097
27.1198
11.6264
27.8504
12.5338
28.5795
13.4279
29.3019
14.3055
30.0125
15.1586
30.7162
16.0099
31.3694
16.7946
31.8651
17.4539
32.1713
18.0658
32.3871
18.6183
32.5498
19.1582
32.7052
19.7849
32.7813
20.3844
32.9659
20.9233
33.133
21.3938
33.3278
21.8435
33.4853
33.6139
22.3716
0.849608
19.482
1.717
19.9044
2.60106
20.3755
3.50053
20.8921
4.41394
21.4505
5.33966
22.0464
6.27588
22.6756
7.22058
23.3336
8.17156
24.0161
9.12646
24.7184
10.0827
25.4362
11.0377
26.1648
11.9883
26.8998
12.9316
27.6362
13.8646
28.3689
14.7841
29.093
15.6952
29.8052
16.5385
30.526
17.2806
31.123
18.0076
31.4442
18.6932
31.7015
19.4009
31.8421
20.0104
32.0957
20.4973
32.2944
21.0124
32.4508
21.6024
32.543
22.185
32.7453
22.6538
33.0165
33.2126
23.0551
0.869251
18.6128
1.75673
19.0169
2.66146
19.4708
3.58233
19.9713
4.51801
20.5148
5.46698
21.0974
6.42752
21.715
7.39769
22.3635
8.37541
23.0384
9.35838
23.7355
10.3442
24.4504
11.3302
25.1788
12.3137
25.9163
13.2918
26.6581
14.2615
27.3992
15.22
28.1345
16.1634
28.8618
17.12
29.5695
17.9597
30.2833
18.6196
30.7844
19.2454
31.0756
19.8367
31.2509
20.5078
31.4246
21.2229
31.5794
21.782
31.8917
22.1879
32.1371
22.6849
32.2482
23.2437
32.4578
32.6924
23.7639
0.884735
17.728
1.78803
18.1136
2.70913
18.5497
3.64709
19.0333
4.60077
19.5611
5.56881
20.1294
6.54962
20.7342
7.54139
21.3717
8.54213
22.0376
9.54966
22.7279
10.5616
23.4385
11.5754
24.1651
12.5881
24.9035
13.5967
25.6495
14.5974
26.3985
15.5855
27.1465
16.5561
27.8912
17.4713
28.6543
18.3656
29.3889
19.184
29.9659
19.9125
30.3471
20.5855
30.5779
21.1336
30.8764
21.6098
31.1032
22.3078
31.1936
22.9304
31.5146
23.4274
31.7512
23.903
31.9821
32.2575
24.3379
0.895562
16.8325
1.80991
17.1993
2.7425
17.6171
3.69262
18.0832
4.65931
18.5944
5.64139
19.1473
6.63741
19.7382
7.64572
20.3634
8.66445
21.0189
9.69149
21.7009
10.7245
22.4055
11.761
23.1286
12.7981
23.8664
13.8327
24.6149
14.8609
25.3703
15.8785
26.1288
16.8806
26.8892
17.8756
27.6593
18.7806
28.4839
19.5833
29.1632
20.3498
29.5806
21.0203
29.9075
21.8031
30.0936
22.4188
30.4876
22.8246
30.7877
23.4184
30.9208
23.9555
31.2142
24.486
31.4515
31.7719
24.9717
0.901494
15.931
1.82187
16.2789
2.7608
16.6782
3.7178
17.1262
4.69213
17.6201
5.68276
18.1567
6.68841
18.7326
7.70757
19.3442
8.73846
19.988
9.77909
20.6603
10.8272
21.3574
11.8802
22.0756
12.9352
22.8113
13.9893
23.5608
15.0388
24.3208
16.0795
25.088
17.1077
25.861
18.1185
26.6484
19.1449
27.4575
20.0349
28.2732
20.8225
28.793
21.5009
29.2291
22.0443
29.5502
22.8094
29.7225
23.4635
30.1336
23.9409
30.4435
24.484
30.6711
24.9748
30.9608
31.2849
25.4617
0.902609
15.0284
1.82406
15.3574
2.76425
15.738
3.72295
16.1675
4.69963
16.6434
5.69348
17.1628
6.70338
17.7227
7.72799
18.3196
8.7657
18.9503
9.81466
19.6113
10.8727
20.2993
11.9375
21.0109
13.0062
21.7426
14.076
22.4911
15.1438
23.253
16.2061
24.0257
17.2596
24.8075
18.3066
25.6015
19.3369
26.4272
20.336
27.2741
21.1733
27.9557
21.9787
28.4237
22.6439
28.8849
23.0965
29.2699
23.7805
29.4496
24.4158
29.8082
24.92
30.1668
25.4693
30.4115
30.8258
25.9284
0.899086
14.1293
1.81683
14.4397
2.7534
14.8014
3.7088
15.2121
4.68276
15.6694
5.67467
16.1709
6.68364
16.7137
7.70853
17.2947
8.74794
17.9109
9.80023
18.559
10.8635
19.236
11.9356
19.9387
13.0141
20.6642
14.0961
21.409
15.1788
22.1703
16.2594
22.9452
17.3354
23.7315
18.4071
24.5298
19.4875
25.3468
20.5186
26.2429
21.4205
27.0539
22.173
27.6712
22.9722
28.0857
23.666
28.5761
24.1116
29.004
24.7241
29.1957
25.3079
29.5829
25.7547
29.9648
30.2731
26.3074
0.89118
13.2381
1.80071
13.5302
2.72902
13.8731
3.6764
14.2647
4.6428
14.703
5.62786
15.1858
6.63094
15.7106
7.65112
16.2745
8.68723
16.8748
9.73786
17.5084
10.8013
18.1726
11.8755
18.8645
12.9584
19.5813
14.0476
20.3199
15.1402
21.0777
16.2334
21.852
17.3245
22.6404
18.4119
23.4423
19.4978
24.2609
20.611
25.1297
21.587
26.0779
22.4087
26.8496
23.103
27.3914
23.8814
27.7977
24.5839
28.3015
25.0104
28.7693
25.5928
29.0006
26.1234
29.4342
29.8579
26.5386
0.879186
12.3589
1.7763
12.6331
2.69201
12.9574
3.62691
13.3298
4.58118
13.7487
5.55471
14.2123
6.5471
14.7182
7.55767
15.264
8.58547
15.847
9.6293
16.4646
10.6876
17.1142
11.7587
17.7934
12.8405
18.4995
13.9307
19.2297
15.0271
19.9813
16.1268
20.7522
17.2269
21.5404
18.3243
22.3449
19.4174
23.1679
20.52
24.027
21.618
24.9799
22.5295
25.9381
23.315
26.6059
23.9875
27.1252
24.7197
27.5692
25.387
28.102
25.7941
28.5935
26.3381
28.8901
29.4144
26.7816
0.863434
11.4955
1.74426
11.7522
2.64339
12.0583
3.56169
12.4115
4.49958
12.8108
5.45719
13.2547
6.43434
13.7411
7.43059
14.2677
8.44521
14.8323
9.47723
15.4326
10.5254
16.066
11.5883
16.7304
12.6643
17.4236
13.7507
18.1432
14.8452
18.8868
15.945
19.6524
17.0473
20.4381
18.1494
21.2429
19.2491
22.0682
20.3486
22.9275
21.47
23.8585
22.5304
24.8777
23.3494
25.7869
24.116
26.3586
24.7702
26.9151
25.4636
27.4086
26.0819
27.9752
26.4988
28.4732
28.9084
27.0048
0.844286
10.6512
1.70532
10.8912
2.58428
11.1793
3.48226
11.5135
4.39995
11.8932
5.3377
12.317
6.29557
12.7832
7.27338
13.2899
8.27066
13.8351
9.2867
14.4165
10.3205
15.0323
11.3707
15.6802
12.4358
16.3585
13.5134
17.0656
14.6013
17.7989
15.6969
18.5567
16.7973
19.3377
17.8995
20.1407
19.0014
20.9662
20.1082
21.8208
21.228
22.7387
22.3636
23.7421
23.3762
24.7743
24.1063
25.6285
24.857
26.1644
25.4847
26.7809
26.1036
27.3562
26.6547
27.9221
28.5239
27.0392
0.822088
9.8291
1.66021
10.0531
2.51577
10.3238
3.39012
10.6392
4.28418
10.9991
5.19853
11.4026
6.13351
11.8482
7.08917
12.3343
8.06531
12.8589
9.06146
13.4204
10.0768
14.0169
11.1103
14.6468
12.1604
15.3084
13.2257
16.0004
14.3036
16.7211
15.3915
17.4688
16.4868
18.2424
17.5863
19.0411
18.6877
19.8648
19.7916
20.7168
20.918
21.6123
22.0593
22.6008
23.1801
23.6534
24.1194
24.6892
24.7746
25.5092
25.5023
26.0531
26.101
26.7575
26.6386
27.3846
28.0281
27.1344
0.797161
9.03194
1.60957
9.24067
2.43886
9.49448
3.28662
9.79143
4.154
10.1317
5.04182
10.5148
5.95065
10.9394
6.88082
11.4041
7.8324
11.9073
8.80518
12.4476
9.79864
13.0234
10.812
13.6334
11.8442
14.2762
12.8938
14.9507
13.9584
15.6565
15.0356
16.3916
16.1228
17.1552
17.217
17.9469
18.3153
18.7666
19.4158
19.6163
20.524
20.5042
21.6732
21.4516
22.8136
22.5131
23.8972
23.6056
24.7607
24.6456
25.3475
25.4663
26.0627
26.0423
26.6066
26.8407
27.5554
27.0792
0.769797
8.26214
1.55401
8.45647
2.35448
8.694
3.17304
8.97287
4.01103
9.29373
4.86953
9.65629
5.74936
10.0596
6.65114
10.5023
7.5752
10.9833
8.52165
11.5012
9.49027
12.0548
10.4806
12.6431
11.4916
13.2651
12.5222
13.9201
13.571
14.6078
14.635
15.3276
15.7117
16.0785
16.7982
16.8604
17.8911
17.6737
18.9877
18.5196
20.0884
19.4035
21.2029
20.3371
22.3656
21.3503
23.4877
22.4835
24.5222
23.6112
25.2988
24.6897
25.8386
25.5025
26.5147
26.1646
27.088
26.9821
0.740263
7.52188
1.49407
7.70266
2.26348
7.92459
3.05052
8.18583
3.85676
8.48749
4.68348
8.82957
5.5318
9.21125
6.40259
9.63152
7.29651
10.0893
8.21393
10.5837
9.15497
11.1138
10.1194
11.6787
11.1067
12.2778
12.116
12.9108
13.1461
13.5776
14.1946
14.2791
15.2586
15.0145
16.3354
15.7837
17.4213
16.5877
18.5131
17.4279
19.6086
18.308
20.7095
19.2363
21.8291
20.2307
22.989
21.3236
24.0762
22.524
25.0463
23.7196
25.7357
24.8132
26.2413
25.659
26.4769
26.8524
0.708809
6.81307
1.43028
6.98119
2.16666
7.18821
2.92017
7.43232
3.69257
7.71509
4.48539
8.03675
5.29999
8.39665
6.13754
8.79398
6.99898
9.22791
7.88503
9.69768
8.79611
10.2027
9.73234
10.7424
10.6935
11.3167
11.6789
11.9255
12.6875
12.569
13.7184
13.2482
14.7684
13.9645
15.8342
14.7179
16.9121
15.5098
17.9981
16.3418
19.0887
17.2174
20.1819
18.1431
21.2844
19.1282
22.4027
20.2052
23.5444
21.3823
24.5911
22.6728
25.473
23.9313
26.0931
25.039
26.0223
26.5477
0.675688
6.13739
1.36315
6.29372
2.06482
6.48654
2.78307
6.71406
3.51987
6.97829
4.27697
7.27965
5.05596
7.61765
5.85831
7.99163
6.68525
8.40096
7.53783
8.84511
8.4168
9.3237
9.32265
9.83658
10.2555
10.3839
11.215
10.9659
12.2006
11.5834
13.2113
12.2375
14.2452
12.9306
15.2986
13.6645
16.3678
14.4406
17.4484
15.2612
18.5356
16.1302
19.6251
17.0536
20.7169
18.0364
21.821
19.1011
22.9283
20.275
24.0448
21.5564
25.0346
22.9414
25.7987
24.2749
25.4669
26.3541
0.641161
5.49622
1.29322
5.64167
1.95877
5.82099
2.64037
6.03247
3.34012
6.27854
4.05998
6.55979
4.80181
6.87583
5.56731
7.22613
6.35803
7.61025
7.1753
8.02783
8.02027
8.47874
8.89376
8.96309
9.79631
9.48131
10.728
10.0342
11.6885
10.6229
12.6769
11.2491
13.6923
11.9152
14.7321
12.6247
15.7922
13.3805
16.8677
14.1857
17.9535
15.0445
19.0435
15.9635
20.1324
16.9476
21.2224
18.0112
22.3211
19.1763
23.4016
20.4759
24.486
21.8571
25.3821
23.3788
24.82
26.029
0.605512
4.89071
1.22106
5.02612
1.84943
5.19262
2.49327
5.38862
3.15486
5.61696
3.83634
5.87831
4.53977
6.17239
5.26711
6.49879
6.02017
6.85718
6.80061
7.2474
7.60987
7.66948
8.44918
8.12377
9.31948
8.61102
10.2213
9.13238
11.1547
9.68951
12.1192
10.2846
13.1141
10.9203
14.1381
11.6007
15.188
12.3307
16.2585
13.1152
17.3441
13.9589
18.438
14.8696
19.532
15.8536
20.6203
16.9229
21.7058
18.0908
22.7858
19.3959
23.8239
20.8189
24.8447
22.358
24.0495
25.6151
0.569042
4.32167
1.14729
4.44787
1.73772
4.6022
2.34309
4.78325
2.96577
4.99428
3.60807
5.23602
4.27224
5.50822
4.96046
5.81057
5.67477
6.14288
6.4171
6.50507
7.18922
6.89735
7.99273
7.32026
8.82896
7.77479
9.69892
8.26242
10.6032
8.78522
11.5419
9.34586
12.5146
9.94763
13.5204
10.5949
14.5576
11.2935
15.6221
12.0507
16.7078
12.8732
17.8078
13.7696
18.9127
14.7487
20.0121
15.8235
21.0987
17.0042
22.1722
18.3223
23.2118
19.7793
24.1956
21.3742
23.1414
25.1038
0.532068
3.7896
1.07256
3.90737
1.62465
4.0501
2.19118
4.21672
2.77458
4.41088
3.37729
4.6333
4.00173
4.88378
4.65022
5.16208
5.32504
5.46806
6.02835
5.80176
6.7622
6.1635
7.52853
6.55393
8.32906
6.97425
9.16526
7.42622
10.0383
7.91221
10.9488
8.43532
11.897
8.9994
12.8824
9.60949
13.9041
10.2718
14.9599
10.9948
16.045
11.7882
17.1518
12.6627
18.2708
13.6297
19.3895
14.7048
20.4937
15.9
21.5742
17.2418
22.6115
18.742
23.5842
20.4015
22.2322
24.4934
0.494907
3.2947
0.997508
3.40477
1.51125
3.53636
2.03895
3.68902
2.58309
3.86673
3.1462
4.0702
3.7308
4.29919
4.33936
4.55351
4.97433
4.83309
5.63805
5.13804
6.33282
5.46872
7.06088
5.82587
7.82431
6.21082
8.625
6.62554
9.4646
7.07262
10.3444
7.55547
11.2655
8.07837
12.228
8.64699
13.2315
9.2683
14.275
9.95133
15.3561
10.7071
16.4686
11.5502
17.6031
12.4952
18.7459
13.562
19.8795
14.7664
20.9842
16.1371
22.0408
17.6855
23.0006
19.4417
21.3379
23.8948
0.457858
2.83684
0.922771
2.93986
1.39851
3.06063
1.88778
3.19975
2.39307
3.36145
2.91692
3.54634
3.46196
3.75414
4.03078
3.9847
4.62593
4.23794
5.24989
4.51408
5.90515
4.81346
6.59421
5.13681
7.31945
5.48558
8.08312
5.86187
8.8873
6.26843
9.73393
6.70884
10.6247
7.18756
11.561
7.71078
12.5433
8.28593
13.5713
8.92338
14.644
9.63442
15.7582
10.4359
16.9068
11.3466
18.0755
12.3933
19.2463
13.5955
20.3913
14.9922
21.4849
16.5919
22.4688
18.4578
20.4812
23.3256
0.421183
2.41566
0.848936
2.51211
1.28739
2.62217
1.73899
2.74815
2.20615
2.89428
2.69147
3.06103
3.19761
3.248
3.72723
3.45507
4.28301
3.68216
4.86745
3.92964
5.48316
4.19776
6.13288
4.48708
6.81923
4.79924
7.5447
5.1364
8.31177
5.50136
9.12283
5.89778
9.98041
6.32998
10.8866
6.80459
11.8436
7.32896
12.852
7.91491
13.9125
8.57392
15.0228
9.32563
16.1808
10.1886
17.374
11.2001
18.586
12.3835
19.7823
13.7959
20.9322
15.442
21.9665
17.4235
19.6213
22.8264
0.385085
2.03057
0.77653
2.12066
1.17877
2.21993
1.59374
2.33318
2.02385
2.46418
2.47164
2.61324
2.93986
2.77978
3.43122
2.96371
3.94846
3.16493
4.49401
3.38409
5.07055
3.62122
5.68101
3.87662
6.32821
4.15204
7.01471
4.44989
7.74331
4.77276
8.51675
5.12434
9.33828
5.50845
10.2107
5.93215
11.1377
6.40197
12.1211
6.93149
13.1644
7.53069
14.2651
8.22487
15.4257
9.02808
16.6371
9.98876
17.8903
11.1304
19.1454
12.5407
20.3723
14.2151
21.4788
16.317
18.7134
22.3867
0.349715
1.68086
0.706017
1.76436
1.07342
1.85253
1.45306
1.95353
1.84741
2.06983
2.25897
2.20168
2.69056
2.34819
3.14492
2.50934
3.62483
2.68503
4.1325
2.87642
4.67067
3.08305
5.24232
3.30496
5.85046
3.5439
6.4976
3.80275
7.18675
4.08362
7.92086
4.39023
8.70384
4.72547
9.53894
5.09705
10.4313
5.50963
11.3833
5.97946
12.4018
6.51219
13.4855
7.14117
14.6423
7.87128
15.8619
8.76919
17.1514
9.84086
18.4666
11.2254
19.7825
12.8993
20.9772
15.1223
17.7155
21.975
0.315179
1.36568
0.637802
1.44174
0.971954
1.51838
1.31774
1.60775
1.67782
1.70975
2.05466
1.82484
2.45118
1.95167
2.87011
2.09041
3.31422
2.24093
3.78536
2.40528
4.28622
2.58219
4.81981
2.77137
5.38923
2.97448
5.9969
3.19508
6.64593
3.43459
7.33923
3.69693
8.08129
3.98341
8.87546
4.30289
9.7284
4.65669
10.6426
5.06528
11.6281
5.52669
12.6841
6.08513
13.827
6.72836
15.0438
7.55248
16.3579
8.52667
17.7208
9.86253
19.1299
11.4902
20.4288
13.8235
16.5865
21.5578
0.281589
1.08409
0.572237
1.15109
0.874833
1.21578
1.18829
1.29429
1.51576
1.38228
1.85961
1.48099
2.22282
1.58846
2.60812
1.70511
3.01817
1.83087
3.45431
1.96914
3.91897
2.11753
4.41543
2.27491
4.94667
2.44324
5.51485
2.62689
6.1232
2.82625
6.77435
3.04577
7.47328
3.28448
8.22311
3.55306
9.03201
3.84779
9.90205
4.19524
10.8465
4.58221
11.8641
5.06756
12.9794
5.61309
14.1788
6.35308
15.501
7.20441
16.8917
8.47181
18.3899
9.99204
19.7915
12.4219
15.3056
21.0725
0.249123
0.834963
0.509616
0.890595
0.782266
0.943133
1.06495
1.0116
1.36158
1.08566
1.67432
1.16824
2.00619
1.25659
2.3597
1.35161
2.73741
1.45316
3.13998
1.56656
3.56969
1.68783
4.03
1.81459
4.52369
1.94955
5.05247
2.09811
5.61988
2.25884
6.22799
2.43766
6.88241
2.63006
7.5858
2.84967
8.34738
3.0862
9.16926
3.37337
10.0669
3.68457
11.0386
4.09588
12.1136
4.53808
13.2785
5.18819
14.5899
5.89301
15.9875
7.07422
17.5608
8.41874
19.0667
10.916
13.8329
20.5394
0.218099
0.616864
0.450147
0.658546
0.694163
0.699117
0.947653
0.758113
1.21527
0.818039
1.49891
0.884602
1.80142
0.954084
2.12483
1.02819
2.47181
1.10619
2.84222
1.19615
3.23835
1.2917
3.66375
1.38919
4.12096
1.49235
4.61118
1.60788
5.13834
1.73168
5.70399
1.87202
6.31466
2.01939
6.97263
2.1917
7.68673
2.37211
8.45969
2.6004
9.30661
2.83764
10.2286
3.17389
11.256
3.51066
12.3785
4.06566
13.6635
4.60801
15.0675
5.67026
16.7128
6.77345
18.3845
9.24429
12.0779
20.1395
0.189055
0.427809
0.393927
0.453674
0.610098
0.482947
0.836089
0.532121
1.07652
0.577605
1.33298
0.628149
1.60804
0.679023
1.90298
0.733248
2.22088
0.788288
2.56064
0.856392
2.92522
0.927121
3.31772
0.996689
3.7405
1.06957
4.19444
1.15394
4.68367
1.24245
5.20938
1.34631
5.77848
1.45028
6.39381
1.57637
7.0622
1.70372
7.78922
1.87339
8.58641
2.04045
9.4641
2.2962
10.4411
2.53362
11.5381
2.96874
12.7829
3.36313
14.2491
4.20411
15.9355
5.0871
18.0328
7.1469
9.82706
20.2837
0.162833
0.264976
0.340966
0.275541
0.529366
0.294546
0.729887
0.3316
0.944812
0.36268
1.1759
0.39706
1.42559
0.429333
1.69363
0.465212
1.98441
0.497503
2.29521
0.545592
2.63108
0.591254
2.99365
0.63412
3.38463
0.678588
3.80458
0.733988
4.25771
0.78933
4.74671
0.857299
5.27674
0.92026
5.85158
1.00152
6.47592
1.07938
7.15719
1.19212
7.90328
1.29436
8.73237
1.46711
9.65485
1.61113
10.7133
1.91029
11.9209
2.1555
13.3934
2.73164
15.1623
3.31816
17.7778
4.53145
6.94157
20.6633
0.14063
0.124346
0.291583
0.124588
0.451676
0.134454
0.629087
0.154189
0.820219
0.171549
1.02808
0.189198
1.2542
0.203218
1.49694
0.222465
1.76236
0.232085
2.04629
0.261667
2.35574
0.281802
2.68966
0.300199
3.04859
0.319654
3.43394
0.34864
3.84999
0.37328
4.29935
0.407936
4.78492
0.434698
5.31021
0.476229
5.88016
0.50943
6.50398
0.568298
7.18765
0.610686
7.95212
0.702645
8.80496
0.758291
9.79383
0.921425
10.9358
1.01354
12.3384
1.32906
14.0613
1.59524
16.7915
1.8013
3.75239
19.9806
0.124346
0.248934
0.383388
0.537577
0.709126
0.898324
1.10154
1.32401
1.55609
1.81776
2.09956
2.39976
2.71941
3.06805
3.44133
3.84927
4.28397
4.7602
5.26963
5.83793
6.44861
7.15126
7.90955
8.83097
9.84451
11.1736
12.7688
14.5701
18.3225
1.19797
54.1258
1.21159
54.1266
1.22447
54.1274
1.23671
54.128
1.24842
54.1285
1.25959
54.1291
1.27019
54.1296
1.28021
54.1302
1.28972
54.1307
1.29876
54.1312
1.30733
54.1317
1.31532
54.1322
1.32264
54.1329
1.32927
54.1336
1.33523
54.1343
1.34053
54.1349
1.34518
54.1356
1.34923
54.1362
1.35268
54.1368
1.35557
54.1373
1.3579
54.1379
1.35965
54.1385
1.36083
54.1391
1.36142
54.1397
1.36139
54.1403
1.36073
54.1409
1.35943
54.1415
1.35749
54.1422
1.35492
54.1428
1.3517
54.1435
1.34783
54.1441
1.34335
54.1447
1.33824
54.1453
1.33248
54.146
1.32621
54.1465
1.31953
54.1469
1.3125
54.1473
1.30511
54.1476
1.29737
54.148
1.28927
54.1483
1.28084
54.1487
1.27209
54.149
1.26302
54.1493
1.25366
54.1496
1.24402
54.1499
1.23411
54.1501
1.22396
54.1504
1.21358
54.1506
1.20299
54.1508
1.1922
54.151
1.18122
54.1512
1.17006
54.1514
1.15874
54.1516
1.14726
54.1517
1.13561
54.1519
1.12381
54.152
1.11185
54.1522
1.09975
54.1523
1.08747
54.1525
1.07503
54.1527
1.06241
54.1529
1.0496
54.153
1.03663
54.1532
1.02348
54.1534
1.01016
54.1536
0.996664
54.1537
0.983006
54.1539
0.969192
54.1541
0.955218
54.1542
0.941098
54.1544
0.926832
54.1545
0.912429
54.1546
0.897883
54.1548
0.883212
54.1549
0.868406
54.155
0.853474
54.1552
0.838451
54.1553
0.823345
54.1553
0.808165
54.1554
0.79292
54.1555
0.777624
54.1555
0.762297
54.1556
0.746976
54.1556
0.731684
54.1555
0.716451
54.1555
0.701293
54.1554
0.686255
54.1553
0.671395
54.1551
0.656493
54.1551
0.641376
54.1554
0.625997
54.1556
0.610345
54.1559
0.594431
54.1561
0.578261
54.1564
0.561854
54.1566
0.545219
54.1569
0.528382
54.1571
0.511359
54.1573
0.494179
54.1574
0.476861
54.1576
0.459429
54.1577
0.441907
54.1578
0.424298
54.1578
0.406623
54.1579
0.388879
54.158
0.371081
54.158
0.353235
54.1581
0.335368
54.1581
0.317497
54.1581
0.299676
54.1581
0.282079
54.1578
0.264754
54.1576
0.247698
54.1573
0.231036
54.1569
0.214959
54.1563
0.199553
54.1556
0.184576
54.1552
0.169737
54.1551
0.154639