/*--------------------------------*- C++ -*----------------------------------*\
| =========                 |                                                 |
| \\      /  F ield         | OpenFOAM: The Open Source CFD Toolbox           |
|  \\    /   O peration     | Version:  5.x                                   |
|   \\  /    A nd           | Web:      www.OpenFOAM.org                      |
|    \\/     M anipulation  |                                                 |
\*---------------------------------------------------------------------------*/
/*   Windows 32 and 64 bit porting by blueCAPE: http://www.bluecape.com.pt   *\
|  Based on Windows porting (2.0.x v4) by Symscape: http://www.symscape.com   |
\*---------------------------------------------------------------------------*/
FoamFile
{
    version     2.0;
    format      ascii;
    class       volVectorField;
    location    "180";
    object      U;
}
// * * * * * * * * * * * * * * * * * * * * * * * * * * * * * * * * * * * * * //

dimensions      [0 1 -1 0 0 0 0];

internalField   nonuniform List<vector> 
43900
(
(1.16164 -0.000720525 -1.81129e-027)
(1.16724 0.0021495 -4.85446e-027)
(1.16978 0.000349203 1.41827e-030)
(1.16847 0.00177352 2.7349e-030)
(1.16974 0.000794002 3.64408e-030)
(1.16998 0.00186212 3.65402e-030)
(1.17014 0.00116093 6.48228e-027)
(1.16982 0.00171682 -1.29465e-026)
(1.17021 0.00162383 9.62064e-030)
(1.1699 0.00169659 -1.29158e-026)
(1.16982 0.00188871 1.29385e-026)
(1.1698 0.00191932 1.14093e-029)
(1.1698 0.00199115 -1.28811e-026)
(1.16984 0.00206549 2.45247e-029)
(1.16988 0.00212534 2.51669e-029)
(1.16992 0.0021777 2.57719e-029)
(1.16995 0.00222693 -2.56582e-026)
(1.16998 0.0022715 5.37651e-029)
(1.16999 0.0023134 2.5685e-026)
(1.16999 0.00235312 2.78383e-029)
(1.16998 0.00239066 2.82676e-029)
(1.16998 0.00242657 2.86706e-029)
(1.16998 0.00246046 2.90511e-029)
(1.16997 0.00249214 2.94114e-029)
(1.16997 0.00252271 2.97522e-029)
(1.16996 0.00255189 -2.53971e-026)
(1.16995 0.00257955 6.07723e-029)
(1.16995 0.0026059 6.13691e-029)
(1.16995 0.00263105 1.01401e-025)
(1.15879 0.0113502 0)
(1.16565 -0.00488637 0)
(1.17153 0.00897531 0)
(1.16668 -0.000116989 0)
(1.16875 0.00613854 0)
(1.16824 0.00277695 0)
(1.16853 0.00487991 0)
(1.16816 0.00463022 0)
(1.16791 0.00458638 0)
(1.16811 0.00521832 0)
(1.16833 0.00516005 0)
(1.16857 0.00537456 0)
(1.16875 0.00559078 0)
(1.16885 0.00575903 0)
(1.16892 0.00589991 0)
(1.16897 0.00604122 0)
(1.16901 0.00617864 0)
(1.16904 0.00631052 0)
(1.16907 0.00643355 0)
(1.1691 0.00654731 0)
(1.16913 0.00665346 0)
(1.16917 0.00675293 0)
(1.1692 0.00684598 0)
(1.16923 0.00693513 0)
(1.16926 0.00701801 0)
(1.16928 0.0070967 0)
(1.16931 0.00717214 0)
(1.16934 0.00724487 0)
(1.16936 0.00731362 0)
(1.10224 0.032121 0)
(1.145 -0.0176027 0)
(1.16318 0.0287728 0)
(1.16341 -0.00375446 0)
(1.1665 0.0208257 0)
(1.16453 0.0039643 0)
(1.16612 0.0149764 0)
(1.16681 0.00837447 0)
(1.16723 0.0118312 0)
(1.1674 0.0105244 0)
(1.16747 0.0107481 0)
(1.16753 0.010887 0)
(1.16762 0.010945 0)
(1.1677 0.0109897 0)
(1.16777 0.0110506 0)
(1.16784 0.0111319 0)
(1.16791 0.0112126 0)
(1.16796 0.0112892 0)
(1.16804 0.0113646 0)
(1.16812 0.011441 0)
(1.16819 0.0115156 0)
(1.16827 0.0115884 0)
(1.16833 0.0116628 0)
(1.16839 0.0117365 0)
(1.16845 0.0118121 0)
(1.16849 0.0118872 0)
(1.16854 0.0119589 0)
(1.16859 0.0120322 0)
(1.16863 0.0121076 1.78155e-027)
(1.04127 0.0199405 0)
(1.08722 -0.00678659 0)
(1.13015 0.0200365 0)
(1.15606 0.00796344 0)
(1.16356 0.0220758 0)
(1.16613 0.0103776 0)
(1.16484 0.0203495 0)
(1.16401 0.0132894 0)
(1.16483 0.0177495 0)
(1.1653 0.0154452 0)
(1.16574 0.0164229 0)
(1.16586 0.0163159 0)
(1.16584 0.0163149 0)
(1.16587 0.0162886 0)
(1.16595 0.0163289 0)
(1.16604 0.0163887 0)
(1.16612 0.0164379 0)
(1.16623 0.0164958 0)
(1.16631 0.0165688 0)
(1.1664 0.0166451 0)
(1.16649 0.0167307 0)
(1.16654 0.0168245 0)
(1.16661 0.0169166 0)
(1.16667 0.0170171 0)
(1.1667 0.0171187 0)
(1.16676 0.0172203 0)
(1.16681 0.0173306 0)
(1.16683 0.0174327 0)
(1.16688 0.0175367 1.89655e-027)
(1.00461 0.0100797 3.79799e-027)
(1.04023 -0.00100136 0)
(1.07719 0.0106564 0)
(1.1155 0.0125805 0)
(1.14563 0.0179675 0)
(1.16083 0.0168137 0)
(1.16379 0.0222632 0)
(1.16473 0.0178091 0)
(1.16394 0.0211601 0)
(1.16397 0.0194812 0)
(1.16376 0.020261 0)
(1.16395 0.0203497 0)
(1.16414 0.0203597 0)
(1.1643 0.0204428 0)
(1.16438 0.0205749 0)
(1.16445 0.0206616 0)
(1.16458 0.0207505 0)
(1.16462 0.0208555 0)
(1.16472 0.020959 0)
(1.1648 0.021077 0)
(1.1648 0.0212035 0)
(1.16491 0.0213257 0)
(1.16495 0.0214773 0)
(1.16497 0.0216182 0)
(1.16509 0.0217626 0)
(1.16513 0.021925 0)
(1.16518 0.0220721 0)
(1.1653 0.0222339 0)
(1.16534 0.0223934 -7.98583e-027)
(0.9782 0.00675666 -3.96417e-027)
(1.00826 0.000526063 0)
(1.03966 0.00737598 0)
(1.07219 0.0106691 0)
(1.1047 0.0144276 0)
(1.13499 0.0175814 0)
(1.15467 0.021497 0)
(1.16222 0.0212256 0)
(1.16318 0.0235824 0)
(1.16295 0.0220843 0)
(1.16329 0.0232897 0)
(1.16304 0.0232093 0)
(1.16316 0.0233601 0)
(1.16321 0.0236171 0)
(1.16333 0.0238284 0)
(1.16344 0.0240294 0)
(1.16338 0.0242402 0)
(1.16355 0.0244366 0)
(1.16354 0.024648 0)
(1.16352 0.0248457 0)
(1.16371 0.0250237 0)
(1.16365 0.0252413 0)
(1.16371 0.0254076 0)
(1.16388 0.025597 0)
(1.16382 0.0258023 0)
(1.16394 0.0259565 0)
(1.1641 0.0261586 0)
(1.16406 0.0263434 0)
(1.16421 0.0265194 4.22289e-027)
(0.956237 0.00506025 0)
(0.982749 0.0013509 0)
(1.01051 0.0061894 0)
(1.03931 0.00928496 0)
(1.06854 0.0124911 0)
(1.09747 0.0159752 0)
(1.1254 0.0195937 0)
(1.14797 0.0222169 0)
(1.15856 0.0247666 0)
(1.16118 0.0247449 0)
(1.16085 0.0251111 0)
(1.16147 0.0256456 0)
(1.16139 0.0258284 0)
(1.16149 0.0261915 0)
(1.16141 0.0265264 0)
(1.16127 0.0268554 0)
(1.16157 0.0271743 0)
(1.16136 0.0275191 0)
(1.16142 0.0278338 0)
(1.16165 0.0281321 0)
(1.16141 0.0284957 0)
(1.16163 0.0287458 0)
(1.16177 0.029068 0)
(1.16158 0.0293922 0)
(1.16187 0.0296126 0)
(1.16194 0.0299557 0)
(1.16183 0.0302095 0)
(1.16214 0.0304542 0)
(1.16218 0.0307553 0)
(0.935779 0.00431127 0)
(0.960057 0.00174765 0)
(0.985513 0.0057512 0)
(1.01195 0.00866247 0)
(1.03899 0.0115678 0)
(1.06615 0.0147131 0)
(1.09291 0.0180879 0)
(1.1184 0.021414 0)
(1.14149 0.0245561 0)
(1.15449 0.0265832 0)
(1.15794 0.0278453 0)
(1.15739 0.0277367 0)
(1.15776 0.0283626 0)
(1.1576 0.0287956 0)
(1.15766 0.0291976 0)
(1.15801 0.0296183 0)
(1.15758 0.0300858 0)
(1.15784 0.0304779 0)
(1.15795 0.0308837 0)
(1.15761 0.0313909 0)
(1.15807 0.0316989 0)
(1.15803 0.0321821 0)
(1.15784 0.0326112 0)
(1.15834 0.0329189 0)
(1.1582 0.0334339 0)
(1.15817 0.0337611 0)
(1.15866 0.0341379 0)
(1.15848 0.0345819 0)
(1.15857 0.0348951 0)
(0.917117 0.00374635 0)
(0.939629 0.0020738 0)
(0.963234 0.00553494 0)
(0.98778 0.00833071 0)
(1.01298 0.0110875 0)
(1.0385 0.0140146 0)
(1.06398 0.0171386 0)
(1.08895 0.0204013 0)
(1.11277 0.0237005 0)
(1.13475 0.0266961 0)
(1.14921 0.029173 0)
(1.15356 0.0305812 0)
(1.15291 0.0306763 0)
(1.1532 0.0314079 0)
(1.15325 0.0319817 0)
(1.15264 0.0326103 0)
(1.15319 0.033093 0)
(1.15313 0.033617 0)
(1.15289 0.0342792 0)
(1.15354 0.0347071 0)
(1.15326 0.0352999 0)
(1.15325 0.0358348 0)
(1.15388 0.0362583 0)
(1.15354 0.0369758 0)
(1.15372 0.0372818 0)
(1.15425 0.0378593 0)
(1.15391 0.0384917 0)
(1.15422 0.0387641 0)
(1.1547 0.039367 0)
(0.899209 0.00308739 0)
(0.920515 0.002506 0)
(0.94284 0.00556196 0)
(0.966042 0.00831246 0)
(0.989882 0.0110183 0)
(1.0141 0.013843 0)
(1.0384 0.016826 0)
(1.06247 0.0199435 0)
(1.08592 0.023155 0)
(1.10825 0.0263897 0)
(1.12869 0.0294248 0)
(1.14365 0.032019 0)
(1.14845 0.03366 0)
(1.14783 0.0339355 0)
(1.14775 0.0348026 0)
(1.14875 0.0355417 0)
(1.1484 0.0361242 0)
(1.14826 0.0369871 0)
(1.14902 0.0374898 0)
(1.14861 0.0383658 0)
(1.14888 0.0389589 0)
(1.14951 0.0395265 0)
(1.14906 0.0405355 0)
(1.14948 0.0408107 0)
(1.14992 0.0416642 0)
(1.14966 0.0424083 0)
(1.15027 0.0427524 0)
(1.1506 0.0436654 0)
(1.15036 0.0442157 -1.10228e-026)
(0.881574 0.00292984 0)
(0.901864 0.00283924 0)
(0.923169 0.0058401 0)
(0.945319 0.00865246 0)
(0.968107 0.011411 0)
(0.991301 0.0142577 0)
(1.01466 0.0172337 0)
(1.03792 0.020323 0)
(1.06079 0.0235014 0)
(1.08295 0.0267407 0)
(1.10392 0.0299791 0)
(1.12299 0.0330322 0)
(1.13792 0.0357401 0)
(1.1427 0.0374102 0)
(1.14288 0.0380294 0)
(1.1422 0.0388483 0)
(1.14261 0.0397217 0)
(1.1436 0.0402678 0)
(1.14316 0.0414472 0)
(1.14358 0.0421058 0)
(1.14412 0.0427646 0)
(1.14372 0.0439727 0)
(1.14447 0.0442781 0)
(1.14486 0.0454516 0)
(1.14475 0.0461472 0)
(1.14542 0.0467013 0)
(1.14565 0.0478836 0)
(1.14559 0.0483166 0)
(1.1465 0.0491149 1.16424e-026)
(0.863742 0.00279694 0)
(0.883209 0.00314587 0)
(0.903681 0.00615203 0)
(0.924991 0.00904518 0)
(0.946946 0.0118807 0)
(0.969341 0.0147817 0)
(0.991956 0.0177876 0)
(1.01456 0.0208856 0)
(1.03693 0.0240558 0)
(1.05878 0.0272781 0)
(1.07981 0.0305232 0)
(1.09959 0.033728 0)
(1.11744 0.0367752 0)
(1.1315 0.0394977 0)
(1.13507 0.0411328 0)
(1.13577 0.0422359 0)
(1.13611 0.0427548 0)
(1.13534 0.044232 0)
(1.1359 0.0448123 0)
(1.13674 0.0458934 0)
(1.13645 0.0471463 0)
(1.13731 0.0475742 0)
(1.13743 0.0491277 0)
(1.13742 0.0497245 0)
(1.13797 0.0505808 0)
(1.1386 0.051886 0)
(1.13881 0.0523094 0)
(1.13964 0.0535122 0)
(1.13973 0.0543687 1.27422e-026)
(0.846042 0.00258337 0)
(0.86482 0.00343338 0)
(0.884602 0.00642592 0)
(0.905247 0.00937904 0)
(0.926558 0.0122844 0)
(0.948337 0.0152384 0)
(0.970392 0.0182751 0)
(0.992518 0.0213838 0)
(1.0145 0.0245473 0)
(1.03612 0.027749 0)
(1.05712 0.030969 0)
(1.07718 0.034174 0)
(1.0959 0.0372977 0)
(1.11265 0.0403025 0)
(1.12442 0.0429406 0)
(1.127 0.0445169 0)
(1.12663 0.0459462 0)
(1.12769 0.0466373 0)
(1.12832 0.0482188 0)
(1.12771 0.0495066 0)
(1.12826 0.0502222 0)
(1.12849 0.0521496 0)
(1.12898 0.0526632 0)
(1.12958 0.0540777 0)
(1.1304 0.0554185 0)
(1.13035 0.0560818 0)
(1.13079 0.0577824 0)
(1.13113 0.0585113 0)
(1.13195 0.0595734 -1.34641e-026)
(0.828586 0.00241265 0)
(0.846771 0.00371851 0)
(0.86596 0.00674044 0)
(0.886028 0.0097686 0)
(0.906824 0.0127674 0)
(0.928145 0.015807 0)
(0.949787 0.0189118 0)
(0.971567 0.0220729 0)
(0.993292 0.0252746 0)
(1.01476 0.0285027 0)
(1.03574 0.031741 0)
(1.05598 0.0349669 0)
(1.07516 0.0381417 0)
(1.09282 0.0411995 0)
(1.10831 0.0441663 0)
(1.1166 0.0467305 0)
(1.11836 0.0480095 0)
(1.11859 0.0499177 0)
(1.11835 0.0509994 0)
(1.11881 0.052534 0)
(1.11982 0.0544355 0)
(1.12028 0.0551223 0)
(1.12037 0.0571691 0)
(1.12102 0.0584757 0)
(1.12109 0.0594498 0)
(1.12148 0.0615475 0)
(1.12283 0.0622531 0)
(1.12382 0.0637122 0)
(1.12385 0.0652923 -1.47984e-026)
(0.811196 0.00231149 0)
(0.828862 0.00402566 0)
(0.847556 0.00714435 0)
(0.867138 0.0102924 0)
(0.887467 0.0134205 0)
(0.908398 0.0165903 0)
(0.929737 0.0198209 0)
(0.951273 0.0230977 0)
(0.972822 0.026407 0)
(0.994204 0.0297357 0)
(1.01522 0.0330702 0)
(1.03564 0.0363939 0)
(1.05519 0.0396807 0)
(1.07352 0.0428789 0)
(1.09013 0.0459704 0)
(1.10299 0.0489702 0)
(1.10748 0.0514627 0)
(1.1084 0.0525924 0)
(1.10837 0.0549037 0)
(1.10991 0.0564785 0)
(1.11029 0.0576448 0)
(1.10997 0.0603858 0)
(1.11104 0.0614861 0)
(1.11203 0.0629589 0)
(1.11216 0.0652638 0)
(1.1141 0.0661208 0)
(1.11469 0.0679226 0)
(1.11415 0.0699731 0)
(1.11551 0.0707418 1.56307e-026)
(0.793696 0.00228929 0)
(0.810895 0.00437095 0)
(0.829148 0.00765627 0)
(0.848323 0.0109839 0)
(0.86827 0.0142994 0)
(0.888832 0.0176516 0)
(0.909863 0.0210628 0)
(0.931191 0.024525 0)
(0.952604 0.0280189 0)
(0.973913 0.0315313 0)
(0.994936 0.0350507 0)
(1.01546 0.0385622 0)
(1.03523 0.0420447 0)
(1.05393 0.0454608 0)
(1.07113 0.0487508 0)
(1.08616 0.0519909 0)
(1.09527 0.0546662 0)
(1.09616 0.0575349 0)
(1.09816 0.0588317 0)
(1.09884 0.0608362 0)
(1.09783 0.063871 0)
(1.09952 0.0647968 0)
(1.10153 0.0669365 0)
(1.10121 0.0696885 0)
(1.10298 0.0704714 0)
(1.10362 0.0730378 0)
(1.10337 0.0751704 0)
(1.10576 0.0759704 0)
(1.10774 0.0785178 0)
(0.775873 0.00234022 0)
(0.792631 0.00476634 0)
(0.810472 0.00828354 0)
(0.829266 0.0118504 0)
(0.848868 0.0154112 0)
(0.869122 0.0190076 0)
(0.889863 0.0226563 0)
(0.910942 0.0263516 0)
(0.932202 0.0300837 0)
(0.95344 0.0338347 0)
(0.974464 0.037589 0)
(0.995095 0.0413339 0)
(1.01512 0.0450504 0)
(1.03429 0.0487083 0)
(1.05227 0.0522455 0)
(1.06869 0.0556389 0)
(1.07877 0.0595195 0)
(1.0836 0.0613697 0)
(1.08529 0.0641248 0)
(1.08416 0.0673848 0)
(1.08666 0.0681462 0)
(1.08894 0.0715042 0)
(1.08787 0.0742564 0)
(1.08923 0.0749418 0)
(1.09107 0.0786559 0)
(1.09136 0.080339 0)
(1.09405 0.0818388 0)
(1.09536 0.0849305 0)
(1.09486 0.086423 0)
(0.757594 0.00245618 0)
(0.773928 0.00520988 0)
(0.791375 0.00901429 0)
(0.809811 0.0128721 0)
(0.829096 0.0167265 0)
(0.849075 0.0206162 0)
(0.869592 0.0245552 0)
(0.890483 0.0285352 0)
(0.911596 0.0325454 0)
(0.932779 0.0365766 0)
(0.953843 0.040615 0)
(0.974585 0.0446441 0)
(0.994792 0.0486507 0)
(1.01419 0.0526109 0)
(1.03239 0.0564824 0)
(1.04897 0.0603719 0)
(1.06298 0.0636274 0)
(1.06941 0.0678405 0)
(1.06898 0.0705297 0)
(1.07222 0.0717126 0)
(1.07315 0.0761937 0)
(1.0731 0.0780757 0)
(1.0757 0.0798058 0)
(1.07766 0.0844449 0)
(1.07762 0.0856228 0)
(1.07949 0.0878497 0)
(1.08104 0.0911125 0)
(1.08226 0.0924327 0)
(1.08565 0.0950986 0)
(0.738742 0.00264038 4.50567e-026)
(0.754657 0.00572154 0)
(0.771721 0.009877 0)
(0.78981 0.0140894 0)
(0.808789 0.0183 0)
(0.828508 0.0225479 0)
(0.848811 0.0268472 0)
(0.869538 0.0311889 0)
(0.890526 0.0355604 0)
(0.91162 0.0399524 0)
(0.932655 0.0443539 0)
(0.953441 0.0487529 0)
(0.973775 0.0531336 0)
(0.993422 0.0574687 0)
(1.0121 0.0616929 0)
(1.02951 0.0657148 0)
(1.04429 0.0702831 0)
(1.05151 0.0732207 0)
(1.05673 0.0759529 0)
(1.05687 0.080948 0)
(1.05948 0.0821008 0)
(1.06065 0.0861283 0)
(1.06019 0.0898184 0)
(1.06203 0.0908809 0)
(1.06572 0.0947115 0)
(1.0676 0.0973438 0)
(1.06974 0.0995689 0)
(1.07132 0.102959 0)
(1.07138 0.105473 0)
(0.719156 0.00288442 1.59428e-027)
(0.734647 0.00630548 0)
(0.751322 0.0108748 0)
(0.769061 0.0155049 0)
(0.787732 0.0201332 0)
(0.807185 0.0248013 0)
(0.82727 0.0295242 0)
(0.847828 0.0342915 0)
(0.8687 0.0390886 0)
(0.889729 0.0439018 0)
(0.910762 0.04872 0)
(0.931629 0.0535283 0)
(0.952135 0.0583056 0)
(0.972073 0.0630283 0)
(0.991205 0.0676539 0)
(1.00931 0.0721364 0)
(1.02628 0.0761206 0)
(1.03692 0.081297 0)
(1.03852 0.0851774 0)
(1.042 0.0872157 0)
(1.04098 0.0921803 0)
(1.04322 0.0944719 0)
(1.04894 0.0971469 0)
(1.052 0.10179 0)
(1.05124 0.103919 0)
(1.05253 0.107129 0)
(1.05391 0.11058 0)
(1.0563 0.112673 0)
(1.06164 0.115721 0)
(0.698749 0.00317762 -5.21998e-026)
(0.713805 0.00695622 0)
(0.730084 0.0119943 0)
(0.747468 0.0170969 0)
(0.765826 0.0221962 0)
(0.785016 0.027338 0)
(0.804886 0.0325382 0)
(0.825285 0.0377849 0)
(0.846059 0.0430619 0)
(0.867055 0.048354 0)
(0.888117 0.0536472 0)
(0.90909 0.0589264 0)
(0.929808 0.0641774 0)
(0.950079 0.069376 0)
(0.969674 0.0744756 0)
(0.988245 0.0793765 0)
(1.00486 0.0848455 0)
(1.01544 0.0890446 0)
(1.02258 0.0927489 0)
(1.02426 0.098493 0)
(1.02936 0.0995697 0)
(1.03248 0.104932 0)
(1.03153 0.108399 0)
(1.03161 0.110976 0)
(1.03629 0.115677 0)
(1.03973 0.118562 0)
(1.04397 0.121121 0)
(1.04656 0.125342 0)
(1.04683 0.127183 0)
(0.677486 0.00351121 0)
(0.692095 0.00766838 0)
(0.707965 0.0132252 0)
(0.724986 0.0188504 0)
(0.743026 0.0244709 0)
(0.761947 0.0301378 0)
(0.781602 0.0358688 0)
(0.801844 0.0416512 0)
(0.82252 0.0474676 0)
(0.843481 0.0533023 0)
(0.864573 0.0591402 0)
(0.885638 0.0649664 0)
(0.906502 0.0707657 0)
(0.926964 0.0765227 0)
(0.946779 0.0822133 0)
(0.965679 0.0877616 0)
(0.9838 0.0928606 0)
(0.998573 0.0991268 0)
(1.00476 0.103531 0)
(1.0096 0.106102 0)
(1.00912 0.112727 0)
(1.01147 0.114639 0)
(1.01688 0.119151 0)
(1.02154 0.1246 0)
(1.02176 0.1267 0)
(1.02509 0.130087 0)
(1.02676 0.134387 0)
(1.03166 0.136895 0)
(1.0377 0.141835 0)
(0.655346 0.00388367 -6.45328e-026)
(0.66949 0.00844532 0)
(0.684937 0.0145718 0)
(0.701577 0.0207715 0)
(0.719284 0.026966 0)
(0.73792 0.0332137 0)
(0.757344 0.0395346 0)
(0.777409 0.0459154 0)
(0.797967 0.0523378 0)
(0.818869 0.0587852 0)
(0.839965 0.0652418 0)
(0.861098 0.0716916 0)
(0.882102 0.0781171 0)
(0.902792 0.0844927 0)
(0.922945 0.0907738 0)
(0.942261 0.0968713 0)
(0.96045 0.103184 0)
(0.976812 0.108275 0)
(0.986778 0.113485 0)
(0.989082 0.120281 0)
(0.996006 0.121749 0)
(0.99862 0.12903 0)
(0.998331 0.13173 0)
(1.00082 0.134819 0)
(1.00861 0.140741 0)
(1.01135 0.14363 0)
(1.01472 0.14796 0)
(1.016 0.151097 0)
(1.01791 0.154828 5.93912e-026)
(0.632329 0.00428585 -2.14507e-027)
(0.645991 0.00927682 0)
(0.660996 0.0160153 0)
(0.677234 0.0228319 0)
(0.694585 0.0296433 0)
(0.712915 0.0365156 0)
(0.732085 0.0434715 0)
(0.751952 0.0504963 0)
(0.772372 0.0575698 0)
(0.793198 0.0646732 0)
(0.814285 0.071788 0)
(0.835483 0.0788939 0)
(0.856634 0.0859696 0)
(0.877577 0.0929909 0)
(0.898152 0.0999177 0)
(0.918265 0.106645 0)
(0.938308 0.112835 0)
(0.95615 0.12033 0)
(0.966023 0.125744 0)
(0.972658 0.129099 0)
(0.97337 0.137217 0)
(0.978775 0.138724 0)
(0.985725 0.146137 0)
(0.98994 0.150247 0)
(0.989968 0.153421 0)
(0.993316 0.158963 0)
(0.998134 0.161925 0)
(1.00519 0.166978 0)
(1.01146 0.170909 1.16719e-027)
(0.608493 0.00470832 7.47603e-026)
(0.621656 0.0101491 0)
(0.636199 0.0175311 0)
(0.652017 0.0249956 0)
(0.668992 0.032455 0)
(0.686995 0.039984 0)
(0.705893 0.0476077 0)
(0.725547 0.0553099 0)
(0.745817 0.0630682 0)
(0.766565 0.070862 0)
(0.78765 0.0786702 0)
(0.808932 0.08647 0)
(0.830264 0.0942362 0)
(0.851496 0.101939 0)
(0.872464 0.10954 0)
(0.892983 0.116975 0)
(0.913 0.124459 0)
(0.932495 0.130574 0)
(0.946568 0.139092 0)
(0.952168 0.145672 0)
(0.960841 0.148382 0)
(0.96211 0.156193 0)
(0.963733 0.158554 0)
(0.968105 0.163479 0)
(0.978187 0.170884 0)
(0.981652 0.173443 0)
(0.984813 0.178959 0)
(0.986085 0.181944 0)
(0.991325 0.186076 -6.79214e-026)
(0.583925 0.00514703 0)
(0.596573 0.0110553 0)
(0.610636 0.0191068 0)
(0.626014 0.0272451 0)
(0.642593 0.0353796 0)
(0.660249 0.0435944 0)
(0.678855 0.0519175 0)
(0.698276 0.0603315 0)
(0.718379 0.0688129 0)
(0.739031 0.0773398 0)
(0.760096 0.0858905 0)
(0.781442 0.0944416 0)
(0.802932 0.102969 0)
(0.824425 0.11145 0)
(0.845782 0.119845 0)
(0.866879 0.128077 0)
(0.887728 0.13595 0)
(0.907285 0.145074 0)
(0.922858 0.151052 0)
(0.932839 0.15698 0)
(0.937462 0.166078 0)
(0.945362 0.168054 0)
(0.953761 0.17815 0)
(0.955266 0.180847 0)
(0.955366 0.184963 0)
(0.961466 0.190825 0)
(0.969924 0.194994 0)
(0.978388 0.201995 0)
(0.980277 0.203488 0)
(0.558722 0.0055964 0)
(0.570841 0.0119874 0)
(0.584408 0.0207287 0)
(0.599324 0.0295608 0)
(0.615482 0.0383922 0)
(0.632765 0.0473174 0)
(0.651049 0.0563675 0)
(0.670207 0.0655249 0)
(0.690111 0.074765 0)
(0.710631 0.0840657 0)
(0.731637 0.0934046 0)
(0.753 0.102759 0)
(0.774585 0.112102 0)
(0.796249 0.12141 0)
(0.817838 0.130656 0)
(0.839189 0.139794 0)
(0.860229 0.148798 0)
(0.881725 0.156851 0)
(0.900754 0.167995 0)
(0.912066 0.173565 0)
(0.921813 0.178961 0)
(0.922782 0.186302 0)
(0.928327 0.189657 0)
(0.937582 0.197618 0)
(0.948042 0.205912 0)
(0.948173 0.207738 0)
(0.951942 0.212468 0)
(0.958966 0.216531 0)
(0.967285 0.223981 8.01233e-026)
(0.532999 0.00605027 0)
(0.544577 0.0129357 0)
(0.55763 0.0223791 0)
(0.572063 0.0319171 0)
(0.587774 0.0414592 0)
(0.604653 0.0511111 0)
(0.622581 0.0609073 0)
(0.641439 0.0708301 0)
(0.661101 0.0808545 0)
(0.681446 0.090958 0)
(0.702348 0.101118 0)
(0.723682 0.11131 0)
(0.745321 0.121508 0)
(0.767133 0.131682 0)
(0.788975 0.141792 0)
(0.810709 0.151783 0)
(0.832204 0.161529 0)
(0.853258 0.171662 0)
(0.87569 0.179107 0)
(0.891342 0.189347 0)
(0.899933 0.197868 0)
(0.909344 0.20202 0)
(0.915383 0.211913 0)
(0.916128 0.214333 0)
(0.922321 0.218995 0)
(0.93601 0.229512 0)
(0.939667 0.232238 0)
(0.946531 0.238773 0)
(0.951227 0.241563 1.10475e-027)
(0.506884 0.00650123 0)
(0.517914 0.0138884 0)
(0.530438 0.024037 0)
(0.544367 0.0342829 0)
(0.559604 0.0445394 0)
(0.576047 0.0549232 0)
(0.593584 0.0654724 0)
(0.612101 0.0761693 0)
(0.631479 0.0869886 0)
(0.651603 0.097908 0)
(0.672353 0.108905 0)
(0.693609 0.119951 0)
(0.715252 0.13102 0)
(0.737164 0.142083 0)
(0.75922 0.153105 0)
(0.781317 0.164027 0)
(0.803447 0.174736 0)
(0.826256 0.184942 0)
(0.84788 0.197171 0)
(0.867596 0.203653 0)
(0.879987 0.213175 0)
(0.884623 0.222198 0)
(0.895005 0.225354 0)
(0.907655 0.239276 0)
(0.908158 0.240883 0)
(0.913663 0.244979 0)
(0.923878 0.254382 0)
(0.930251 0.256513 0)
(0.941005 0.265767 -1.83447e-025)
(0.480521 0.00694283 0)
(0.490998 0.0148351 0)
(0.502982 0.0256835 0)
(0.516389 0.0366308 0)
(0.531129 0.0475961 0)
(0.547107 0.0587075 0)
(0.56422 0.0700064 0)
(0.582359 0.0814747 0)
(0.601413 0.0930876 0)
(0.621273 0.104822 0)
(0.641827 0.116655 0)
(0.662963 0.128557 0)
(0.684569 0.140501 0)
(0.706535 0.152452 0)
(0.728756 0.164376 0)
(0.75113 0.176232 0)
(0.773608 0.187926 0)
(0.796424 0.199434 0)
(0.821803 0.210005 0)
(0.841553 0.224125 0)
(0.856033 0.230402 0)
(0.870154 0.240031 0)
(0.871439 0.247464 0)
(0.881328 0.251163 0)
(0.896773 0.265027 0)
(0.900075 0.267665 0)
(0.90797 0.27309 0)
(0.916291 0.281304 0)
(0.923133 0.283763 -9.27328e-028)
(0.454053 0.00737031 0)
(0.463977 0.0157685 0)
(0.475414 0.0273056 0)
(0.488284 0.0389419 0)
(0.502506 0.0506051 0)
(0.517995 0.0624347 0)
(0.534652 0.0744752 0)
(0.552378 0.086709 0)
(0.57107 0.0991116 0)
(0.590625 0.111661 0)
(0.610938 0.124332 0)
(0.63191 0.1371 0)
(0.653432 0.149934 0)
(0.675401 0.162797 0)
(0.697725 0.175659 0)
(0.720321 0.188476 0)
(0.743141 0.201199 0)
(0.766338 0.213612 0)
(0.789628 0.226798 0)
(0.817043 0.237041 0)
(0.831414 0.251691 0)
(0.845147 0.258703 0)
(0.861874 0.268166 0)
(0.86248 0.276605 0)
(0.871963 0.279134 0)
(0.885782 0.29173 0)
(0.89197 0.295968 0)
(0.901113 0.301753 0)
(0.912549 0.310873 1.05018e-025)
(0.42762 0.00777909 0)
(0.436993 0.0166824 0)
(0.44788 0.0288919 0)
(0.460201 0.0411994 0)
(0.473888 0.0535446 0)
(0.488862 0.0660782 0)
(0.505034 0.0788474 0)
(0.522312 0.0918358 0)
(0.5406 0.10502 0)
(0.559802 0.118379 0)
(0.579822 0.13189 0)
(0.600568 0.145531 0)
(0.621945 0.159271 0)
(0.643849 0.173071 0)
(0.666191 0.186902 0)
(0.688892 0.20073 0)
(0.711899 0.214507 0)
(0.735292 0.228143 0)
(0.759647 0.24131 0)
(0.783683 0.257296 0)
(0.809337 0.26579 0)
(0.822039 0.280304 0)
(0.834345 0.287559 0)
(0.854008 0.297124 0)
(0.854916 0.30699 0)
(0.863724 0.309586 0)
(0.878694 0.320727 0)
(0.884799 0.325423 0)
(0.896303 0.331071 1.13034e-025)
(0.401355 0.00816496 0)
(0.410185 0.0175711 0)
(0.420519 0.0304319 0)
(0.432284 0.0433882 0)
(0.44542 0.0563946 0)
(0.459857 0.0696129 0)
(0.475515 0.0830931 0)
(0.492309 0.0968201 0)
(0.510151 0.110773 0)
(0.528951 0.124932 0)
(0.548622 0.139276 0)
(0.569077 0.153785 0)
(0.59023 0.168424 0)
(0.611993 0.183164 0)
(0.634279 0.197973 0)
(0.657002 0.212813 0)
(0.680097 0.227649 0)
(0.703559 0.242445 0)
(0.727493 0.256894 0)
(0.754525 0.271331 0)
(0.777806 0.289181 0)
(0.802269 0.295921 0)
(0.813572 0.310798 0)
(0.824848 0.317831 0)
(0.846404 0.327606 0)
(0.848338 0.339055 0)
(0.857999 0.340791 0)
(0.874332 0.35184 0)
(0.880527 0.356456 -1.19969e-025)
(0.375381 0.00852402 0)
(0.383678 0.0184293 0)
(0.393464 0.0319157 0)
(0.404668 0.0454935 0)
(0.41724 0.0591357 0)
(0.431121 0.0730142 0)
(0.446238 0.0871815 0)
(0.462515 0.101624 0)
(0.47987 0.116324 0)
(0.498224 0.131264 0)
(0.517496 0.146425 0)
(0.537608 0.161784 0)
(0.558479 0.17731 0)
(0.580019 0.192978 0)
(0.602157 0.208752 0)
(0.624823 0.224596 0)
(0.647949 0.240467 0)
(0.67151 0.256344 0)
(0.695602 0.272067 0)
(0.720424 0.287659 0)
(0.751286 0.303213 0)
(0.772703 0.3213 0)
(0.79461 0.328068 0)
(0.806568 0.343018 0)
(0.816956 0.350479 0)
(0.840061 0.359709 0)
(0.84298 0.371427 0)
(0.854408 0.373932 0)
(0.871585 0.383488 1.28311e-025)
(0.349814 0.00885281 0)
(0.357594 0.0192521 0)
(0.366838 0.0333343 0)
(0.377479 0.0475022 0)
(0.389479 0.06175 0)
(0.402788 0.0762593 0)
(0.417342 0.0910845 0)
(0.433071 0.106214 0)
(0.449904 0.121633 0)
(0.467768 0.137326 0)
(0.486589 0.153278 0)
(0.506296 0.169464 0)
(0.526824 0.185868 0)
(0.548093 0.202457 0)
(0.570024 0.219183 0)
(0.592558 0.236015 0)
(0.615641 0.252909 0)
(0.639247 0.269819 0)
(0.663435 0.286707 0)
(0.68879 0.303343 0)
(0.715184 0.320576 0)
(0.748987 0.336593 0)
(0.766816 0.354817 0)
(0.786684 0.361235 0)
(0.800962 0.37633 0)
(0.811494 0.384942 0)
(0.835599 0.392894 0)
(0.840592 0.405609 0)
(0.854987 0.408072 -2.72619e-025)
(0.32476 0.00914853 0)
(0.332039 0.0200352 0)
(0.340751 0.0346796 0)
(0.350832 0.0494025 0)
(0.362255 0.0642228 0)
(0.374981 0.0793304 0)
(0.388953 0.0947813 0)
(0.40411 0.110567 0)
(0.420388 0.126676 0)
(0.437722 0.143096 0)
(0.456046 0.159816 0)
(0.475296 0.176813 0)
(0.495414 0.194074 0)
(0.516343 0.211553 0)
(0.538005 0.229219 0)
(0.560352 0.247038 0)
(0.583332 0.26496 0)
(0.606918 0.282935 0)
(0.631134 0.300919 0)
(0.656308 0.31885 0)
(0.683957 0.336612 0)
(0.711607 0.35593 0)
(0.746315 0.372079 0)
(0.760795 0.389763 0)
(0.780556 0.396514 0)
(0.797595 0.412052 0)
(0.80922 0.420723 0)
(0.832565 0.427751 0)
(0.841575 0.440239 4.13212e-028)
(0.300312 0.00940869 0)
(0.307111 0.0207738 0)
(0.315304 0.0359433 0)
(0.32483 0.0511828 0)
(0.335675 0.0665389 0)
(0.347809 0.0822088 0)
(0.361183 0.0982501 0)
(0.375745 0.114658 0)
(0.391437 0.131424 0)
(0.408203 0.148541 0)
(0.425986 0.166001 0)
(0.444733 0.183787 0)
(0.464388 0.201873 0)
(0.484915 0.220237 0)
(0.506245 0.23885 0)
(0.52833 0.257655 0)
(0.551134 0.276613 0)
(0.57463 0.295675 0)
(0.598821 0.314786 0)
(0.623836 0.333943 0)
(0.650435 0.353036 0)
(0.680892 0.372344 0)
(0.708765 0.393648 0)
(0.743699 0.409158 0)
(0.755883 0.426582 0)
(0.776604 0.433142 0)
(0.797163 0.449483 0)
(0.809146 0.457371 0)
(0.833203 0.464745 7.9547e-028)
(0.276556 0.00963104 0)
(0.282896 0.0214625 0)
(0.290586 0.0371159 0)
(0.299565 0.0528298 0)
(0.309833 0.0686814 0)
(0.321369 0.0848739 0)
(0.334133 0.101466 0)
(0.348079 0.118457 0)
(0.363157 0.135844 0)
(0.379319 0.153625 0)
(0.396518 0.171795 0)
(0.414708 0.190342 0)
(0.433844 0.209243 0)
(0.453894 0.22849 0)
(0.474827 0.248035 0)
(0.496579 0.267832 0)
(0.51913 0.287843 0)
(0.542459 0.308014 0)
(0.566565 0.328281 0)
(0.591516 0.348609 0)
(0.617574 0.369011 0)
(0.645921 0.389537 0)
(0.679001 0.410386 0)
(0.706926 0.432823 0)
(0.742127 0.448264 0)
(0.75336 0.464279 0)
(0.776157 0.472598 0)
(0.799281 0.48723 0)
(0.81275 0.495083 1.62944e-025)
(0.253568 0.00981357 0)
(0.259473 0.022095 0)
(0.266676 0.0381868 0)
(0.275118 0.0543289 0)
(0.284814 0.0706315 0)
(0.29575 0.0873028 0)
(0.307893 0.104403 0)
(0.321204 0.121935 0)
(0.335642 0.139904 0)
(0.351166 0.158313 0)
(0.367737 0.177163 0)
(0.385318 0.196445 0)
(0.403876 0.216148 0)
(0.423381 0.236247 0)
(0.44383 0.256719 0)
(0.465176 0.27753 0)
(0.487395 0.298611 0)
(0.510479 0.319916 0)
(0.534432 0.341376 0)
(0.559299 0.362941 0)
(0.585275 0.384514 0)
(0.612644 0.406412 0)
(0.643156 0.428434 0)
(0.678548 0.450421 0)
(0.706756 0.474364 0)
(0.742799 0.487936 0)
(0.753652 0.504927 0)
(0.779664 0.513459 0)
(0.804529 0.526019 -1.70404e-025)
(0.231414 0.00995445 0)
(0.236909 0.0226641 0)
(0.243644 0.039144 0)
(0.251563 0.0556634 0)
(0.260692 0.0723681 0)
(0.271026 0.0894699 0)
(0.28254 0.10703 0)
(0.2952 0.125058 0)
(0.308972 0.143565 0)
(0.323824 0.162562 0)
(0.339725 0.182055 0)
(0.356646 0.202044 0)
(0.374566 0.222519 0)
(0.393465 0.243462 0)
(0.413342 0.264866 0)
(0.434204 0.28668 0)
(0.456008 0.30885 0)
(0.478765 0.331321 0)
(0.502487 0.354023 0)
(0.527217 0.376881 0)
(0.553086 0.399821 0)
(0.580386 0.422711 0)
(0.609573 0.446432 0)
(0.642404 0.469339 0)
(0.679724 0.493281 0)
(0.709604 0.516941 0)
(0.745253 0.529311 0)
(0.758009 0.547501 0)
(0.787643 0.554114 1.81562e-025)
(0.210154 0.0100521 0)
(0.215265 0.0231618 0)
(0.221553 0.0399741 0)
(0.228962 0.0568152 0)
(0.237532 0.0738684 0)
(0.247267 0.0913473 0)
(0.258144 0.109315 0)
(0.270139 0.127787 0)
(0.283222 0.146784 0)
(0.297369 0.166325 0)
(0.312557 0.186422 0)
(0.328768 0.207083 0)
(0.345988 0.228306 0)
(0.364212 0.250082 0)
(0.383439 0.272387 0)
(0.403708 0.295207 0)
(0.425015 0.318502 0)
(0.447358 0.34218 0)
(0.470769 0.366174 0)
(0.495297 0.390396 0)
(0.521041 0.414768 0)
(0.548224 0.439107 0)
(0.57723 0.463594 0)
(0.608883 0.48887 0)
(0.643943 0.512787 0)
(0.683986 0.538644 0)
(0.715181 0.560381 0)
(0.750701 0.573881 0)
(0.767517 0.590564 0)
(0.189842 0.0101054 0)
(0.194595 0.0235796 0)
(0.200455 0.0406635 0)
(0.20737 0.0577659 0)
(0.215391 0.075109 0)
(0.224529 0.0929069 0)
(0.234766 0.111224 0)
(0.246082 0.130085 0)
(0.258454 0.149519 0)
(0.271865 0.169554 0)
(0.286299 0.190211 0)
(0.301748 0.211506 0)
(0.31821 0.233446 0)
(0.335688 0.256029 0)
(0.354197 0.27924 0)
(0.373763 0.303071 0)
(0.394458 0.327482 0)
(0.41629 0.352406 0)
(0.439297 0.377756 0)
(0.463545 0.403431 0)
(0.489131 0.429327 0)
(0.516244 0.455316 0)
(0.545059 0.48118 0)
(0.576528 0.507518 0)
(0.610951 0.533717 0)
(0.648915 0.559739 0)
(0.691782 0.585431 0)
(0.723907 0.606417 0)
(0.761118 0.619735 1.96143e-025)
(0.170522 0.0101136 0)
(0.174943 0.0239095 0)
(0.180397 0.041199 0)
(0.186833 0.0584979 0)
(0.194316 0.0760681 0)
(0.202862 0.0941223 0)
(0.212456 0.112727 0)
(0.223082 0.131917 0)
(0.234724 0.151729 0)
(0.24737 0.172203 0)
(0.261012 0.193369 0)
(0.275649 0.215253 0)
(0.29129 0.237873 0)
(0.307951 0.261237 0)
(0.325659 0.285344 0)
(0.344449 0.310171 0)
(0.364404 0.335705 0)
(0.385603 0.361904 0)
(0.408093 0.388675 0)
(0.431953 0.415905 0)
(0.457302 0.443457 0)
(0.484322 0.471234 0)
(0.513158 0.498882 0)
(0.544281 0.526738 0)
(0.578816 0.55423 0)
(0.616625 0.582278 0)
(0.657789 0.609104 0)
(0.703879 0.634405 0)
(0.73716 0.654821 -5.15854e-027)
(0.152233 0.0100765 0)
(0.156346 0.0241438 0)
(0.161415 0.0415688 0)
(0.167389 0.0589958 0)
(0.174346 0.0767267 0)
(0.182304 0.0949709 0)
(0.191255 0.113798 0)
(0.201183 0.133251 0)
(0.212078 0.15338 0)
(0.223933 0.174233 0)
(0.236747 0.195851 0)
(0.250525 0.218273 0)
(0.265286 0.241527 0)
(0.281058 0.265635 0)
(0.297883 0.290606 0)
(0.315816 0.316432 0)
(0.334927 0.343095 0)
(0.355336 0.370577 0)
(0.377165 0.398818 0)
(0.400504 0.4277 0)
(0.425495 0.457061 0)
(0.452339 0.48677 0)
(0.481205 0.516544 0)
(0.512442 0.546204 0)