/*--------------------------------*- C++ -*----------------------------------*\
| =========                 |                                                 |
| \\      /  F ield         | OpenFOAM: The Open Source CFD Toolbox           |
|  \\    /   O peration     | Version:  5.x                                   |
|   \\  /    A nd           | Web:      www.OpenFOAM.org                      |
|    \\/     M anipulation  |                                                 |
\*---------------------------------------------------------------------------*/
/*   Windows 32 and 64 bit porting by blueCAPE: http://www.bluecape.com.pt   *\
|  Based on Windows porting (2.0.x v4) by Symscape: http://www.symscape.com   |
\*---------------------------------------------------------------------------*/
FoamFile
{
    version     2.0;
    format      ascii;
    class       volScalarField;
    location    "160";
    object      epsilon;
}
// * * * * * * * * * * * * * * * * * * * * * * * * * * * * * * * * * * * * * //

dimensions      [0 2 -3 0 0 0 0];

internalField   nonuniform List<scalar> 
43900
(
0.00152925
0.00151914
0.00151979
0.00151971
0.00151968
0.00151967
0.00151967
0.00151968
0.00151967
0.00151967
0.00151968
0.00151968
0.00151968
0.00151968
0.00151968
0.00151968
0.00151968
0.00151968
0.00151969
0.00151969
0.00151969
0.00151969
0.00151969
0.00151969
0.00151969
0.00151969
0.00151969
0.00151969
0.00151969
0.00039931
3.77749e-005
3.16586e-005
3.15268e-005
3.27498e-005
3.28041e-005
3.28078e-005
3.27988e-005
3.279e-005
3.2796e-005
3.27975e-005
3.28003e-005
3.28027e-005
3.28044e-005
3.28057e-005
3.28069e-005
3.2808e-005
3.28089e-005
3.28098e-005
3.28107e-005
3.28115e-005
3.28123e-005
3.28131e-005
3.28137e-005
3.28143e-005
3.28149e-005
3.28154e-005
3.28159e-005
3.28162e-005
0.0501315
0.00556634
0.000268884
1.03763e-005
1.64212e-006
1.32638e-006
1.33401e-006
1.41344e-006
1.4198e-006
1.41767e-006
1.41731e-006
1.41779e-006
1.41816e-006
1.41843e-006
1.4187e-006
1.41894e-006
1.41916e-006
1.41936e-006
1.41956e-006
1.41975e-006
1.41991e-006
1.42006e-006
1.42018e-006
1.42029e-006
1.42039e-006
1.42048e-006
1.42056e-006
1.42064e-006
1.42068e-006
0.145905
0.0432886
0.00942663
0.00123829
7.19473e-005
2.7384e-006
2.84659e-007
1.16433e-007
1.08414e-007
1.18286e-007
1.20503e-007
1.19836e-007
1.19563e-007
1.19634e-007
1.19692e-007
1.1973e-007
1.19765e-007
1.19797e-007
1.19826e-007
1.19853e-007
1.19876e-007
1.19896e-007
1.19913e-007
1.19929e-007
1.19944e-007
1.19957e-007
1.1997e-007
1.19981e-007
1.19989e-007
0.196932
0.0834949
0.0330435
0.0106963
0.00239806
0.000288824
1.50083e-005
5.62988e-007
5.07324e-008
1.85104e-008
1.64565e-008
1.82124e-008
1.87571e-008
1.86327e-008
1.8591e-008
1.85934e-008
1.85987e-008
1.86036e-008
1.86081e-008
1.86123e-008
1.86161e-008
1.86195e-008
1.86227e-008
1.86257e-008
1.86286e-008
1.86316e-008
1.86342e-008
1.86368e-008
1.86392e-008
0.222814
0.108397
0.0524823
0.0244066
0.00995762
0.0029709
0.000554756
4.71313e-005
1.97783e-006
8.14195e-008
9.28168e-009
4.3462e-009
4.20831e-009
4.57259e-009
4.64733e-009
4.64995e-009
4.65105e-009
4.65221e-009
4.65328e-009
4.65424e-009
4.65496e-009
4.65572e-009
4.65646e-009
4.65725e-009
4.65801e-009
4.65847e-009
4.65936e-009
4.66028e-009
4.66104e-009
0.234546
0.122827
0.0650675
0.0343328
0.0175584
0.00826106
0.00308902
0.000739813
8.91682e-005
4.80682e-006
1.92686e-007
1.03563e-008
2.12412e-009
1.47249e-009
1.55331e-009
1.57243e-009
1.57413e-009
1.57451e-009
1.57488e-009
1.57524e-009
1.57556e-009
1.57585e-009
1.57611e-009
1.57641e-009
1.5767e-009
1.57687e-009
1.57725e-009
1.57759e-009
1.57782e-009
0.237229
0.129791
0.0722521
0.0405499
0.0226199
0.0122558
0.00617088
0.00260013
0.000720919
0.000106279
6.97906e-006
3.0532e-007
1.3819e-008
1.60596e-009
7.7912e-010
7.58678e-010
7.63478e-010
7.64178e-010
7.64306e-010
7.6444e-010
7.64633e-010
7.64803e-010
7.64973e-010
7.65115e-010
7.65286e-010
7.65621e-010
7.65822e-010
7.65928e-010
7.66031e-010
0.238668
0.135514
0.0784711
0.0460554
0.0271548
0.0158812
0.00902633
0.00480033
0.00218922
0.00067325
0.000115608
8.58205e-006
3.80615e-007
1.61056e-008
1.25691e-009
5.78116e-010
5.37633e-010
5.3581e-010
5.35811e-010
5.35818e-010
5.3585e-010
5.35944e-010
5.3616e-010
5.36263e-010
5.36449e-010
5.36971e-010
5.36911e-010
5.36914e-010
5.36932e-010
0.234305
0.135521
0.0802102
0.048311
0.0294196
0.017959
0.0108552
0.00637146
0.00350773
0.00168346
0.000553288
9.46221e-005
6.80318e-006
2.94779e-007
1.22296e-008
9.94319e-010
5.5008e-010
5.32613e-010
5.32087e-010
5.32087e-010
5.32097e-010
5.32163e-010
5.32436e-010
5.32539e-010
5.32731e-010
5.33308e-010
5.32965e-010
5.32965e-010
5.32976e-010
0.227467
0.133654
0.0802668
0.0491722
0.0305496
0.0191264
0.0119646
0.00738576
0.00441069
0.00245859
0.00118151
0.000378014
5.67211e-005
3.50835e-006
1.45232e-007
6.26416e-009
8.67632e-010
6.62265e-010
6.54991e-010
6.54951e-010
6.54951e-010
6.54998e-010
6.55753e-010
6.55595e-010
6.55631e-010
6.56054e-010
6.54833e-010
6.54835e-010
6.54844e-010
0.219752
0.130599
0.0794003
0.0491827
0.0309662
0.019705
0.0125855
0.00799492
0.00498316
0.00298028
0.00164034
0.000755076
0.000207213
2.3223e-005
1.14561e-006
4.58312e-008
2.85867e-009
1.2305e-009
1.17084e-009
1.16948e-009
1.16949e-009
1.16955e-009
1.17086e-009
1.169e-009
1.16729e-009
1.16695e-009
1.16408e-009
1.16406e-009
1.16409e-009
0.211387
0.12672
0.0777264
0.0486285
0.0308809
0.0198494
0.0128482
0.00830666
0.00530766
0.0032975
0.00193689
0.00101725
0.000413715
8.15618e-005
5.90931e-006
2.46243e-007
1.20426e-008
3.12151e-009
2.7886e-009
2.778e-009
2.77798e-009
2.77811e-009
2.7746e-009
2.7722e-009
2.76133e-009
2.7546e-009
2.7487e-009
2.74855e-009
2.74857e-009
0.20265
0.122235
0.0754635
0.0475495
0.0304584
0.019731
0.0128715
0.00841562
0.00546166
0.00347042
0.00211259
0.00118348
0.00055808
0.000168124
1.92484e-005
9.42533e-007
4.42662e-008
8.80714e-009
7.43493e-009
7.38805e-009
7.38205e-009
7.38217e-009
7.35832e-009
7.34759e-009
7.3049e-009
7.2823e-009
7.26352e-009
7.25971e-009
7.25976e-009
0.193612
0.117342
0.0727934
0.046105
0.0297115
0.0194009
0.0127622
0.00840407
0.00550803
0.0035513
0.00220955
0.00128412
0.000651715
0.000238282
4.06617e-005
2.64192e-006
1.3244e-007
2.49044e-008
2.04765e-008
2.03079e-008
2.0265e-008
2.02361e-008
2.01804e-008
2.0106e-008
1.99671e-008
1.99474e-008
1.98502e-008
1.98176e-008
1.98175e-008
0.184368
0.112188
0.0698816
0.04445
0.0287749
0.0188876
0.0125141
0.00831523
0.00549213
0.00357491
0.00225743
0.00134291
0.000711231
0.000288666
6.12137e-005
5.23351e-006
3.22122e-007
6.96046e-008
5.82226e-008
5.77935e-008
5.73752e-008
5.72617e-008
5.71176e-008
5.67439e-008
5.66627e-008
5.64727e-008
5.59552e-008
5.57769e-008
5.57767e-008
0.174968
0.106863
0.0668188
0.0426726
0.0277416
0.018291
0.012178
0.008143
0.00542816
0.00356492
0.00227556
0.00137642
0.000749953
0.000324408
7.91271e-005
8.17614e-006
6.16717e-007
1.68207e-007
1.4388e-007
1.42566e-007
1.42442e-007
1.42019e-007
1.41763e-007
1.41125e-007
1.40192e-007
1.39774e-007
1.39232e-007
1.39139e-007
1.3915e-007
0.165461
0.10143
0.0636631
0.0408211
0.0266511
0.0176515
0.0118091
0.0079383
0.00532497
0.00352962
0.00227488
0.00139521
0.000777012
0.000352075
9.56782e-005
1.15701e-005
9.86622e-007
2.68068e-007
2.26684e-007
2.24262e-007
2.23548e-007
2.23845e-007
2.2273e-007
2.21716e-007
2.21926e-007
2.21039e-007
2.20894e-007
2.20103e-007
2.19189e-007
0.155863
0.0959188
0.0604472
0.0389253
0.0255289
0.0169897
0.0114247
0.00772231
0.00521175
0.00347967
0.00226644
0.00140685
0.000798695
0.000376388
0.000111849
1.55506e-005
1.46145e-006
3.67348e-007
2.94238e-007
2.88715e-007
2.89136e-007
2.87491e-007
2.87008e-007
2.87946e-007
2.86158e-007
2.85418e-007
2.85395e-007
2.84366e-007
2.84555e-007
0.146162
0.0903329
0.0571787
0.0369934
0.0243825
0.016312
0.0110299
0.00749969
0.00509413
0.00342585
0.00225123
0.00141496
0.00081812
0.000398729
0.000128196
2.04425e-005
2.12716e-006
4.70596e-007
3.45592e-007
3.3904e-007
3.36754e-007
3.36993e-007
3.36877e-007
3.34762e-007
3.3502e-007
3.35041e-007
3.33726e-007
3.33457e-007
3.32948e-007
0.136403
0.084698
0.0538727
0.0350346
0.0232177
0.0156223
0.0106279
0.00727316
0.0049749
0.00337188
0.00223625
0.00142237
0.00083687
0.000421217
0.000146263
2.64957e-005
3.01675e-006
5.90615e-007
3.90834e-007
3.7301e-007
3.71982e-007
3.71223e-007
3.71348e-007
3.72009e-007
3.70309e-007
3.6928e-007
3.69254e-007
3.6867e-007
3.68775e-007
0.126625
0.0790372
0.0505437
0.0330582
0.0220409
0.0149254
0.0102224
0.00704585
0.00485679
0.00332029
0.00222434
0.00143323
0.000859442
0.000447616
0.000167658
3.45711e-005
4.38692e-006
7.71427e-007
4.28808e-007
4.00817e-007
3.97449e-007
3.97548e-007
3.96323e-007
3.93529e-007
3.9506e-007
3.95207e-007
3.9465e-007
3.94769e-007
3.92841e-007
0.116864
0.0733682
0.0471995
0.0310668
0.0208518
0.0142196
0.00981116
0.00681552
0.00473773
0.00326924
0.00221409
0.00144624
0.000884026
0.000475503
0.00019108
4.46005e-005
6.41822e-006
1.0602e-006
4.80617e-007
4.19741e-007
4.14453e-007
4.12711e-007
4.13518e-007
4.15851e-007
4.13419e-007
4.11881e-007
4.11067e-007
4.10204e-007
4.11975e-007
0.107201
0.0677313
0.04386
0.0290694
0.0196538
0.0135054
0.00939336
0.00658072
0.00461618
0.00321739
0.00220439
0.00146087
0.000911094
0.000506616
0.000218113
5.75755e-005
9.25408e-006
1.47839e-006
5.40719e-007
4.3867e-007
4.28708e-007
4.28121e-007
4.25208e-007
4.23339e-007
4.25671e-007
4.25754e-007
4.24843e-007
4.24594e-007
4.22469e-007
0.0977093
0.0621671
0.0405472
0.0270781
0.0184535
0.0127865
0.00897116
0.006343
0.00449348
0.00316604
0.0021965
0.00147825
0.000941481
0.000541238
0.000249988
7.49511e-005
1.39946e-005
2.29197e-006
6.63777e-007
4.62263e-007
4.37868e-007
4.34818e-007
4.36582e-007
4.36548e-007
4.33238e-007
4.33234e-007
4.33155e-007
4.33578e-007
4.34969e-007
0.0884576
0.0567122
0.0372804
0.0251022
0.0172548
0.0120639
0.00854402
0.00610101
0.00436795
0.00311348
0.00218893
0.00149727
0.000974649
0.000579577
0.000285821
9.67282e-005
2.04285e-005
3.47701e-006
8.58627e-007
4.96549e-007
4.50985e-007
4.45208e-007
4.41696e-007
4.41151e-007
4.42991e-007
4.42145e-007
4.41207e-007
4.38956e-007
4.38857e-007
0.0795216
0.0514074
0.0340813
0.0231527
0.0160626
0.0113388
0.00811129
0.00585308
0.00423744
0.0030574
0.00217934
0.00151564
0.00100836
0.000619588
0.000324868
0.000122682
3.01448e-005
5.71315e-006
1.25669e-006
5.64895e-007
4.64575e-007
4.51399e-007
4.51962e-007
4.50326e-007
4.46923e-007
4.47178e-007
4.48616e-007
4.49377e-007
4.46345e-007
0.0709749
0.0462944
0.0309729
0.0212421
0.0148833
0.0106142
0.0076739
0.00559912
0.00410141
0.00299718
0.00216725
0.00153321
0.00104284
0.00066165
0.000367177
0.000154923
4.32389e-005
8.86849e-006
1.89057e-006
6.85906e-007
4.91217e-007
4.59467e-007
4.55185e-007
4.56566e-007
4.57239e-007
4.53622e-007
4.52104e-007
4.52424e-007
4.53828e-007
0.0628818
0.0414106
0.0279774
0.0193831
0.0137237
0.00989359
0.00723325
0.00533935
0.00395943
0.00293203
0.00215175
0.00154905
0.00107732
0.0007054
0.000412957
0.000192071
6.26952e-005
1.49445e-005
3.2216e-006
9.36145e-007
5.40279e-007
4.76227e-007
4.66262e-007
4.61464e-007
4.60156e-007
4.62505e-007
4.6104e-007
4.58487e-007
4.58086e-007
0.0552949
0.0367887
0.0251143
0.0175872
0.0125905
0.00918032
0.00679077
0.00507395
0.00381095
0.00286105
0.00213191
0.00156227
0.00111093
0.000750069
0.000461444
0.000236018
8.72221e-005
2.28855e-005
5.23752e-006
1.39646e-006
6.38258e-007
4.99048e-007
4.73483e-007
4.74264e-007
4.68966e-007
4.65854e-007
4.66789e-007
4.65844e-007
4.67306e-007
0.0482547
0.032455
0.0224006
0.0158651
0.0114899
0.00847767
0.00634771
0.0048028
0.00365498
0.0027827
0.0021059
0.00157104
0.00114179
0.000793828
0.000511056
0.000283315
0.000120686
3.73751e-005
9.34264e-006
2.35568e-006
8.46067e-007
5.48771e-007
4.88225e-007
4.78112e-007
4.81928e-007
4.7743e-007
4.72231e-007
4.7315e-007
4.72195e-007
0.0417894
0.0284304
0.0198509
0.0142264
0.0104281
0.00778928
0.00590584
0.00452642
0.00349114
0.00269603
0.00207215
0.00157252
0.00116793
0.000834747
0.000559404
0.000332726
0.00015767
5.53735e-005
1.52109e-005
3.94225e-006
1.24458e-006
6.44475e-007
5.24565e-007
4.90039e-007
4.85417e-007
4.88603e-007
4.85793e-007
4.79922e-007
4.81652e-007
0.0359133
0.0247286
0.0174763
0.0126797
0.00941102
0.00711913
0.00546763
0.00424611
0.0033199
0.00260093
0.0020304
0.00156838
0.00118913
0.000872927
0.000607293
0.000384088
0.00020341
8.15995e-005
2.54524e-005
7.0016e-006
2.04211e-006
8.44071e-007
5.73365e-007
5.21219e-007
4.9796e-007
4.93409e-007
4.9734e-007
4.94555e-007
4.88633e-007
0.0306273
0.0213559
0.0152841
0.0112314
0.00844399
0.00647103
0.00503555
0.00396324
0.00314179
0.00249734
0.00198036
0.00155723
0.0012043
0.000906545
0.000652803
0.000435668
0.000252262
0.000116528
4.12145e-005
1.22587e-005
3.57378e-006
1.2566e-006
6.80689e-007
5.49137e-007
5.26752e-007
5.08542e-007
5.03845e-007
5.08408e-007
5.03612e-007
0.0259199
0.018312
0.013278
0.00988625
0.0075313
0.00584846
0.00461213
0.00367936
0.00295749
0.00238516
0.00192099
0.00153662
0.0012117
0.000934338
0.000694019
0.000485297
0.000304175
0.000157134
6.42515e-005
2.12402e-005
6.3682e-006
2.07667e-006
9.10262e-007
6.13294e-007
5.4494e-007
5.35928e-007
5.22555e-007
5.16642e-007
5.20279e-007
0.0217693
0.0155904
0.0114581
0.008647
0.0066764
0.00525462
0.0041999
0.00339627
0.00276802
0.00226468
0.00185194
0.00150606
0.00120945
0.000954151
0.000729719
0.000531078
0.000355684
0.000204673
9.38155e-005
3.52267e-005
1.16273e-005
3.74756e-006
1.4023e-006
7.55401e-007
5.89381e-007
5.5097e-007
5.47165e-007
5.39091e-007
5.3111e-007
0.0181453
0.0131792
0.00982132
0.00751455
0.00588173
0.00469227
0.00380137
0.00311593
0.00257473
0.00213668
0.00177364
0.00146604
0.00120006
0.00096634
0.000758468
0.000571909
0.000403652
0.000254391
0.000132925
5.52771e-005
1.97768e-005
6.59882e-006
2.35054e-006
1.05643e-006
6.83431e-007
5.90402e-007
5.64038e-007
5.61249e-007
5.5606e-007
0.0150113
0.0110623
0.00836179
0.006488
0.00514868
0.00416367
0.00341888
0.00284039
0.00237921
0.00200221
0.00168655
0.00141626
0.00118026
0.0009679
0.000778934
0.00060628
0.000448077
0.0003029
0.000177314
8.50093e-005
3.34304e-005
1.19369e-005
4.17873e-006
1.66608e-006
8.86427e-007
6.58109e-007
6.07479e-007
5.82434e-007
5.77351e-007
0.0123262
0.0092202
0.00707114
0.00556483
0.00447764
0.00367048
0.00305452
0.00257168
0.00218318
0.00186257
0.00159145
0.00135684
0.0011495
0.00096182
0.000790973
0.0006332
0.000486272
0.000349279
0.000223437
0.00012115
5.44056e-005
2.09203e-005
7.67896e-006
2.89057e-006
1.31031e-006
8.05175e-007
6.56696e-007
6.32461e-007
6.03773e-007
0.0100468
0.00763093
0.00593912
0.00474108
0.00386796
0.00321374
0.00271002
0.0023117
0.0019884
0.0017192
0.00148941
0.00128859
0.00110924
0.000946117
0.000792102
0.000650951
0.000517304
0.00039001
0.000269904
0.00016235
8.24559e-005
3.55796e-005
1.37734e-005
5.33814e-006
2.18555e-006
1.12112e-006
7.6998e-007
6.7066e-007
6.58131e-007
0.00812887
0.00627124
0.00495406
0.00401159
0.00331813
0.00279386
0.00238676
0.00206221
0.00179664
0.00157367
0.00138169
0.00121236
0.00105957
0.000918917
0.00078582
0.00065953
0.000539661
0.000424207
0.000311845
0.000206658
0.000117348
5.68889e-005
2.40328e-005
9.42309e-006
3.85673e-006
1.75963e-006
1.01696e-006
7.62345e-007
6.93191e-007
0.00652879
0.00511728
0.00410339
0.00337032
0.00282584
0.00241067
0.00208573
0.00182474
0.00160961
0.00142765
0.00126975
0.00112928
0.00100134
0.00088235
0.000769817
0.000657894
0.000552433
0.000448911
0.000347859
0.000247794
0.000157203
8.52091e-005
4.01961e-005
1.70485e-005
6.91019e-006
3.00313e-006
1.51569e-006
9.66815e-007
7.75699e-007
0.00520476
0.00414541
0.00337411
0.00281055
0.00238814
0.00206346
0.00180752
0.0016006
0.00142896
0.00128284
0.00115518
0.00104074
0.000935622
0.000836869
0.000742286
0.000649026
0.000555177
0.000464893
0.000374255
0.00028484
0.000195897
0.000119796
6.26856e-005
2.93744e-005
1.27954e-005
5.39119e-006
2.51544e-006
1.38605e-006
9.5475e-007
0.00411762
0.0033328
0.0027532
0.00232523
0.00200164
0.00175109
0.00155237
0.00139083
0.00125615
0.00114092
0.00103967
0.000948329
0.000863768
0.000783594
0.000705974
0.000629811
0.000550575
0.000471252
0.000392697
0.000312394
0.000233051
0.000154963
9.24503e-005
4.7295e-005
2.2218e-005
9.97454e-006
4.45188e-006
2.27059e-006
1.32459e-006
0.00323143
0.00265794
0.00222797
0.00190716
0.0016626
0.00147205
0.00132016
0.00119621
0.00109251
0.00100348
0.000924937
0.000853714
0.000787342
0.00072388
0.00066181
0.000600028
0.000537257
0.00046898
0.000401666
0.000332592
0.000261284
0.000191035
0.000123992
7.2922e-005
3.70148e-005
1.753e-005
7.99193e-006
3.81965e-006
2.07668e-006
0.00251392
0.002101
0.0017864
0.00154926
0.00136716
0.00122455
0.00111051
0.00101725
0.000939136
0.000871984
0.000812631
0.000758625
0.000708029
0.000659285
0.00061114
0.000562561
0.00051274
0.000459617
0.000401027
0.000343193
0.000282852
0.000219018
0.000158299
0.000101255
5.93249e-005
3.03027e-005
1.45107e-005
6.81583e-006
3.39364e-006
0.00193662
0.00164412
0.00141736
0.00124475
0.00111139
0.00100661
0.000922751
0.000854225
0.00079692
0.00074774
0.000704313
0.000664757
0.000627558
0.000591489
0.000555529
0.000518782
0.000480494
0.000440299
0.000394831
0.000344694
0.000294893
0.000242024
0.000185578
0.000134032
8.51677e-005
5.02704e-005
2.59078e-005
1.2571e-005
5.99869e-006
0.00147488
0.00127145
0.00111071
0.000987254
0.000891465
0.000816167
0.00075605
0.000707157
0.000666511
0.000631836
0.000601381
0.000573701
0.000547618
0.0005222
0.000496639
0.00047019
0.000442145
0.000412134
0.000379703
0.000340497
0.000298248
0.000255619
0.000209899
0.000160759
0.000116967
7.43364e-005
4.47391e-005
2.29277e-005
1.10882e-005
0.00110771
0.000969218
0.000857434
0.000770933
0.000703733
0.000651099
0.000609407
0.000575863
0.000548322
0.000525126
0.000505018
0.000486873
0.000469772
0.000453053
0.00043612
0.000418365
0.00039912
0.000378102
0.000354815
0.000328437
0.000295451
0.000260132
0.000225226
0.000185677
0.000144249
0.00010591
6.79193e-005
4.16666e-005
2.08223e-005
0.000817512
0.000725608
0.000649591
0.000590504
0.000544771
0.000509326
0.000481715
0.000459964
0.000442525
0.000428201
0.000416149
0.000405441
0.000395369
0.000385512
0.000375514
0.000364824
0.000352913
0.000339388
0.000324164
0.000306381
0.000285831
0.000258303
0.000230706
0.000202676
0.000170151
0.000134893
0.000100856
6.54765e-005
3.89326e-005
0.000589771
0.000530654
0.000480322
0.00044128
0.000411446
0.000388844
0.000371805
0.000358918
0.000349058
0.00034138
0.000335402
0.000330272
0.000325477
0.000320791
0.000316136
0.000310924
0.000304891
0.000297274
0.000288835
0.00027779
0.000266585
0.000250382
0.000229668
0.000208169
0.000188634
0.000162702
0.000133305
0.000102797
6.45032e-005
0.000412656
0.000376032
0.000343777
0.000319185
0.000300948
0.000287769
0.000278473
0.000272041
0.00026764
0.000264724
0.000263092
0.000261907
0.000260856
0.00025982
0.000259002
0.00025778
0.000256163
0.000252934
0.000249752
0.000244295
0.000238853
0.00023268
0.00022255
0.000207487
0.000192851
0.000181736
0.000162786
0.000141897
0.000114728
0.000276645
0.000254875
0.000235064
0.00022076
0.000210819
0.000204367
0.000200519
0.000198534
0.000197786
0.000198073
0.000199211
0.00020058
0.000201977
0.00020327
0.000204864
0.000206236
0.000207282
0.000207344
0.000207267
0.000205911
0.000204764
0.000202469
0.000202107
0.000199367
0.000192326
0.000184862
0.000178907
0.000164963
0.000151541
0.000174144
0.000161631
0.000150226
0.000143165
0.000138955
0.000137061
0.000136771
0.000137513
0.000138999
0.000141134
0.00014384
0.00014644
0.000149259
0.000151779
0.000154569
0.000157399
0.000160719
0.000162723
0.000164988
0.000165756
0.000168784
0.000171706
0.00017743
0.000184749
0.000195957
0.000199627
0.000208155
0.000207559
0.000203164
9.91885e-005
9.20038e-005
8.62492e-005
8.41594e-005
8.36074e-005
8.44579e-005
8.61034e-005
8.83384e-005
9.07351e-005
9.37123e-005
9.68797e-005
0.000100116
0.000104421
0.000108292
0.000113167
0.000119094
0.000130096
0.000139606
0.000158631
0.000174774
0.000201879
0.000232764
0.000277109
0.000347284
0.000417479
0.000525176
0.000604484
0.000710505
0.00070519
4.72933e-005
4.3016e-005
4.10864e-005
4.2011e-005
4.32521e-005
4.56031e-005
4.7826e-005
5.0579e-005
5.33981e-005
5.71737e-005
6.14189e-005
6.71617e-005
7.81905e-005
9.18696e-005
0.000118233
0.000148425
0.000208789
0.000279853
0.00042294
0.000589724
0.000897362
0.00131502
0.0018833
0.00280932
0.0036764
0.00543781
0.00658145
0.0093699
0.00985254
1.56398e-005
1.33822e-005
1.35707e-005
1.57058e-005
1.71128e-005
1.97288e-005
2.22338e-005
2.58625e-005
3.12338e-005
4.10218e-005
6.19177e-005
8.96886e-005
0.000148611
0.000239371
0.000423452
0.000692304
0.0011746
0.00178853
0.00284644
0.00419072
0.00627993
0.00898697
0.0127487
0.017969
0.0241635
0.034321
0.0438893
0.0650962
0.0783928
2.96231e-006
2.45777e-006
2.8342e-006
4.21485e-006
6.55036e-006
1.0453e-005
2.15168e-005
3.50404e-005
6.49494e-005
0.000126447
0.000265052
0.000464122
0.000840749
0.00141904
0.00238541
0.00373447
0.00575481
0.00841496
0.0123472
0.0174424
0.0247784
0.0341478
0.047462
0.0645582
0.0886619
0.121494
0.166371
0.241085
0.320693
9.15929e-007
1.16687e-006
1.91592e-006
4.50291e-006
1.51386e-005
3.47497e-005
9.38801e-005
0.000171863
0.000341422
0.000658761
0.00124219
0.00203242
0.00339566
0.00536641
0.00835158
0.0124011
0.0181508
0.0257353
0.0365242
0.0504101
0.0701406
0.0949049
0.130991
0.175331
0.243973
0.327952
0.473116
0.653833
0.944295
0.00151969
0.00151969
0.00151969
0.00151969
0.00151969
0.00151969
0.00151969
0.00151969
0.00151969
0.00151969
0.00151969
0.00151969
0.00151969
0.00151969
0.00151969
0.00151969
0.00151969
0.00151969
0.00151969
0.00151969
0.00151969
0.00151969
0.0015197
0.0015197
0.0015197
0.0015197
0.0015197
0.0015197
0.0015197
0.0015197
0.0015197
0.0015197
0.0015197
0.0015197
0.0015197
0.0015197
0.0015197
0.0015197
0.0015197
0.0015197
0.0015197
0.0015197
0.0015197
0.0015197
0.0015197
0.0015197
0.0015197
0.0015197
0.0015197
0.0015197
0.0015197
0.0015197
0.0015197
0.0015197
0.0015197
0.0015197
0.0015197
0.0015197
0.0015197
0.0015197
0.0015197
0.0015197
0.0015197
0.0015197
0.0015197
0.0015197
0.0015197
0.0015197
0.0015197
0.0015197
0.0015197
0.0015197
0.00151971
0.00151971
0.00151971
0.00151971
0.00151971
0.00151971
0.00151971
0.00151971
0.00151971
0.00151971
0.00151971
0.00151971
0.00151971
0.00151971
0.00151971
0.00151971
0.00151971
0.00151971
0.00151971
0.00151971
0.00151971
0.00151971
0.00151971
0.00151971
0.00151971
0.00151971
0.00151971
0.00151971
0.00151971
0.00151971
0.00151971
0.00151971
0.00151971
0.00151971
0.00151971
0.00151971
0.00151971
0.00151971
0.00151971
0.00151971
0.00151971
0.00151971
0.00151971
0.00151971
0.00151971
0.00151971
0.00151971
0.00151971
0.00151971
0.00151971
0.00151971
0.00151971
0.00151971
0.00151971
0.00151971
0.00151971
0.00151971
0.00151971
0.00151971
0.00151971
0.00151971
0.00151971
0.00151971
0.00151972
0.00151972
0.00151973
0.00154202
3.28166e-005
3.28171e-005
3.28174e-005
3.28177e-005
3.28179e-005
3.28181e-005
3.28183e-005
3.28185e-005
3.28186e-005
3.28188e-005
3.2819e-005
3.28192e-005
3.28194e-005
3.28196e-005
3.28199e-005
3.28202e-005
3.28204e-005
3.28207e-005
3.2821e-005
3.28212e-005
3.28216e-005
3.28219e-005
3.28222e-005
3.28226e-005
3.2823e-005
3.28234e-005
3.28238e-005
3.28242e-005
3.28246e-005
3.28251e-005
3.28255e-005
3.2826e-005
3.28264e-005
3.28269e-005
3.28274e-005
3.28278e-005
3.28281e-005
3.28285e-005
3.28288e-005
3.28292e-005
3.28295e-005
3.28298e-005
3.28301e-005
3.28303e-005
3.28306e-005
3.28308e-005
3.2831e-005
3.28312e-005
3.28314e-005
3.28315e-005
3.28317e-005
3.28319e-005
3.2832e-005
3.28321e-005
3.28322e-005
3.28324e-005
3.28325e-005
3.28326e-005
3.28327e-005
3.28329e-005
3.28331e-005
3.28333e-005
3.28335e-005
3.28337e-005
3.28339e-005
3.28341e-005
3.28342e-005
3.28344e-005
3.28345e-005
3.28347e-005
3.28348e-005
3.2835e-005
3.28351e-005
3.28352e-005
3.28354e-005
3.28355e-005
3.28356e-005
3.28357e-005
3.28358e-005
3.28359e-005
3.2836e-005
3.2836e-005
3.2836e-005
3.28361e-005
3.28361e-005
3.28361e-005
3.2836e-005
3.2836e-005
3.2836e-005
3.2836e-005
3.28361e-005
3.28363e-005
3.28364e-005
3.28366e-005
3.28368e-005
3.2837e-005
3.28373e-005
3.28375e-005
3.28377e-005
3.2838e-005
3.28382e-005
3.28385e-005
3.28387e-005
3.28389e-005
3.28392e-005
3.28394e-005
3.28396e-005
3.28398e-005
3.284e-005
3.28401e-005
3.28402e-005
3.284e-005
3.28398e-005
3.28394e-005
3.28389e-005
3.28384e-005
3.28379e-005
3.28375e-005
3.28375e-005
3.28377e-005
3.28379e-005
3.2838e-005
3.28381e-005
3.28383e-005
3.28381e-005
3.28386e-005
3.28379e-005
3.28387e-005
3.28387e-005
3.28384e-005
3.28409e-005
3.28401e-005
3.28421e-005
3.28451e-005
3.28432e-005
3.28476e-005
3.28616e-005
3.28304e-005
3.3739e-005
1.42076e-006
1.42085e-006
1.42091e-006
1.42096e-006
1.42101e-006
1.42106e-006
1.4211e-006
1.42114e-006
1.42118e-006
1.42121e-006
1.42124e-006
1.42128e-006
1.42131e-006
1.42135e-006
1.42138e-006
1.42142e-006
1.42145e-006
1.42149e-006
1.42153e-006
1.42157e-006
1.42161e-006
1.42165e-006
1.4217e-006
1.42174e-006
1.42179e-006
1.42184e-006
1.42189e-006
1.42195e-006
1.422e-006
1.42206e-006
1.42212e-006
1.42217e-006
1.42223e-006
1.42229e-006
1.42236e-006
1.42242e-006
1.42248e-006
1.42255e-006
1.42261e-006
1.42268e-006
1.42274e-006
1.4228e-006
1.42286e-006
1.42292e-006
1.42298e-006
1.42304e-006
1.4231e-006
1.42315e-006
1.42321e-006
1.42327e-006
1.42332e-006
1.42338e-006
1.42343e-006
1.42349e-006
1.42354e-006
1.42359e-006
1.42365e-006
1.4237e-006
1.42375e-006
1.4238e-006
1.42386e-006
1.42391e-006
1.42396e-006
1.42402e-006
1.42407e-006
1.42412e-006
1.42417e-006
1.42422e-006
1.42426e-006
1.42431e-006
1.42436e-006
1.4244e-006
1.42444e-006
1.42449e-006
1.42453e-006
1.42457e-006
1.42461e-006
1.42464e-006
1.42468e-006
1.42472e-006
1.42475e-006
1.42478e-006
1.42482e-006
1.42485e-006
1.42488e-006
1.42491e-006
1.42494e-006
1.42497e-006
1.42499e-006
1.42501e-006
1.42502e-006
1.42504e-006
1.42505e-006
1.42507e-006
1.42508e-006
1.4251e-006
1.42512e-006
1.42513e-006
1.42515e-006
1.42517e-006
1.42518e-006
1.42519e-006
1.4252e-006
1.42521e-006
1.42521e-006
1.42521e-006
1.42521e-006
1.42521e-006
1.4252e-006
1.42518e-006
1.42516e-006
1.42513e-006
1.42507e-006
1.42501e-006
1.42494e-006
1.42486e-006
1.42479e-006
1.42472e-006
1.42467e-006
1.42465e-006
1.42462e-006
1.42459e-006
1.42453e-006
1.42451e-006
1.42443e-006
1.42436e-006
1.42432e-006
1.42417e-006
1.42423e-006
1.42408e-006
1.42421e-006
1.42425e-006
1.42402e-006
1.4245e-006
1.42591e-006
1.42581e-006
1.33387e-006
1.49725e-006
4.48076e-005
1.20001e-007
1.20014e-007
1.20025e-007
1.20035e-007
1.20045e-007
1.20054e-007
1.20063e-007
1.20071e-007
1.2008e-007
1.20088e-007
1.20096e-007
1.20105e-007
1.20114e-007
1.20122e-007
1.20131e-007
1.2014e-007
1.20149e-007
1.20158e-007
1.20168e-007
1.20178e-007
1.20187e-007
1.20197e-007
1.20208e-007
1.20218e-007
1.20229e-007
1.2024e-007
1.20251e-007
1.20262e-007
1.20273e-007
1.20284e-007
1.20296e-007
1.20308e-007
1.2032e-007
1.20332e-007
1.20344e-007
1.20357e-007
1.2037e-007
1.20383e-007
1.20395e-007
1.20408e-007
1.20421e-007
1.20434e-007
1.20447e-007
1.20459e-007
1.20472e-007
1.20485e-007
1.20498e-007
1.2051e-007
1.20523e-007
1.20535e-007
1.20548e-007
1.2056e-007
1.20573e-007
1.20585e-007
1.20597e-007
1.2061e-007
1.20622e-007
1.20634e-007
1.20646e-007
1.20658e-007
1.2067e-007
1.20682e-007
1.20693e-007
1.20705e-007
1.20716e-007
1.20727e-007
1.20737e-007
1.20748e-007
1.20758e-007
1.20768e-007
1.20778e-007
1.20787e-007
1.20797e-007
1.20806e-007
1.20815e-007
1.20824e-007
1.20833e-007
1.20841e-007
1.2085e-007
1.20858e-007
1.20866e-007
1.20874e-007
1.20881e-007
1.20889e-007
1.20896e-007
1.20902e-007
1.20909e-007
1.20915e-007
1.2092e-007
1.20925e-007
1.20928e-007
1.20932e-007
1.20935e-007
1.20937e-007
1.2094e-007
1.20942e-007
1.20944e-007
1.20945e-007
1.20947e-007
1.20947e-007
1.20947e-007
1.20947e-007
1.20946e-007
1.20945e-007
1.20944e-007
1.20941e-007
1.20939e-007
1.20935e-007
1.20931e-007
1.20927e-007
1.20922e-007
1.20916e-007
1.20908e-007
1.20898e-007
1.20887e-007
1.20875e-007
1.20863e-007
1.20849e-007
1.20837e-007
1.20826e-007
1.20814e-007
1.20802e-007
1.20787e-007
1.20771e-007
1.20755e-007
1.20731e-007
1.20715e-007
1.20689e-007
1.20662e-007
1.20663e-007
1.20651e-007
1.20513e-007
1.20826e-007
1.21396e-007
1.15398e-007
1.11668e-007
5.65208e-007
6.95377e-005
0.00470488
1.8642e-008
1.86448e-008
1.86475e-008
1.86503e-008
1.8653e-008
1.86556e-008
1.86583e-008
1.86608e-008
1.86635e-008
1.86661e-008
1.86687e-008
1.86714e-008
1.86741e-008
1.86768e-008
1.86796e-008
1.86824e-008
1.86853e-008
1.86882e-008
1.86912e-008
1.86942e-008
1.86973e-008
1.87004e-008
1.87036e-008
1.87068e-008
1.87101e-008
1.87133e-008
1.87167e-008
1.872e-008
1.87234e-008
1.87268e-008
1.87303e-008
1.87337e-008
1.87372e-008
1.87407e-008
1.87443e-008
1.87478e-008
1.87514e-008
1.8755e-008
1.87586e-008
1.87622e-008
1.87657e-008
1.87693e-008
1.87729e-008
1.87765e-008
1.87801e-008
1.87837e-008
1.87872e-008
1.87908e-008
1.87943e-008
1.87978e-008
1.88013e-008
1.88048e-008
1.88083e-008
1.88117e-008
1.88152e-008
1.88186e-008
1.88219e-008
1.88252e-008
1.88285e-008
1.88318e-008
1.8835e-008
1.8838e-008
1.88411e-008
1.88441e-008
1.88471e-008
1.885e-008
1.88529e-008
1.88557e-008
1.88584e-008
1.88611e-008
1.88638e-008
1.88664e-008
1.8869e-008
1.88715e-008
1.88739e-008
1.88763e-008
1.88786e-008
1.88808e-008
1.8883e-008
1.88851e-008
1.88872e-008
1.88892e-008
1.88911e-008
1.8893e-008
1.88948e-008
1.88965e-008
1.88981e-008
1.88997e-008
1.89012e-008
1.89025e-008
1.89038e-008
1.89049e-008
1.89059e-008
1.89068e-008
1.89075e-008
1.89082e-008
1.89087e-008
1.89092e-008
1.89095e-008
1.89096e-008
1.89097e-008
1.89096e-008
1.89093e-008
1.8909e-008
1.89085e-008
1.89079e-008
1.89072e-008
1.89063e-008
1.89052e-008
1.8904e-008
1.89027e-008
1.89013e-008
1.88997e-008
1.88978e-008
1.88957e-008
1.88934e-008
1.88908e-008
1.88879e-008
1.8885e-008
1.8882e-008
1.88787e-008
1.88749e-008
1.88707e-008
1.8866e-008
1.88605e-008
1.8855e-008
1.88474e-008
1.88425e-008
1.88344e-008
1.88275e-008
1.88593e-008
1.90663e-008
1.86822e-008
1.64612e-008
2.52378e-008
4.40727e-007
4.11758e-005
0.00202577
0.0282618
4.66181e-009
4.66314e-009
4.66436e-009
4.66549e-009
4.66655e-009
4.66775e-009