/*--------------------------------*- C++ -*----------------------------------*\
| =========                 |                                                 |
| \\      /  F ield         | OpenFOAM: The Open Source CFD Toolbox           |
|  \\    /   O peration     | Version:  5.x                                   |
|   \\  /    A nd           | Web:      www.OpenFOAM.org                      |
|    \\/     M anipulation  |                                                 |
\*---------------------------------------------------------------------------*/
/*   Windows 32 and 64 bit porting by blueCAPE: http://www.bluecape.com.pt   *\
|  Based on Windows porting (2.0.x v4) by Symscape: http://www.symscape.com   |
\*---------------------------------------------------------------------------*/
FoamFile
{
    version     2.0;
    format      ascii;
    class       volScalarField;
    location    "160";
    object      k;
}
// * * * * * * * * * * * * * * * * * * * * * * * * * * * * * * * * * * * * * //

dimensions      [0 2 -2 0 0 0 0];

internalField   nonuniform List<scalar> 
43900
(
0.000985407
0.000989491
0.000990249
0.000990185
0.000990131
0.000990124
0.000990123
0.000990127
0.000990119
0.000990124
0.000990125
0.000990127
0.000990129
0.00099013
0.000990131
0.000990132
0.000990133
0.000990134
0.000990134
0.000990135
0.000990136
0.000990136
0.000990137
0.000990137
0.000990138
0.000990138
0.000990139
0.000990139
0.000990139
0.00158582
5.48479e-005
3.89144e-005
3.81532e-005
4.08512e-005
4.09807e-005
4.09896e-005
4.09658e-005
4.09545e-005
4.09626e-005
4.09647e-005
4.09682e-005
4.09711e-005
4.09732e-005
4.09749e-005
4.09765e-005
4.09779e-005
4.0979e-005
4.09802e-005
4.09814e-005
4.09825e-005
4.09835e-005
4.09845e-005
4.09853e-005
4.09861e-005
4.09868e-005
4.09875e-005
4.0988e-005
4.09884e-005
0.290255
0.0522668
0.00378407
0.000103687
4.62821e-006
3.07706e-006
2.99983e-006
3.35861e-006
3.38467e-006
3.37441e-006
3.37215e-006
3.37366e-006
3.37472e-006
3.37535e-006
3.37596e-006
3.37654e-006
3.37707e-006
3.37754e-006
3.37802e-006
3.37846e-006
3.37885e-006
3.37918e-006
3.37948e-006
3.37974e-006
3.37997e-006
3.38018e-006
3.38038e-006
3.38055e-006
3.38066e-006
0.875535
0.37259
0.117103
0.0223926
0.00177858
6.13839e-005
3.07092e-006
5.37049e-007
4.46461e-007
5.20538e-007
5.38559e-007
5.32934e-007
5.30522e-007
5.30989e-007
5.31312e-007
5.31485e-007
5.31634e-007
5.31771e-007
5.31898e-007
5.32011e-007
5.32109e-007
5.32193e-007
5.32268e-007
5.32335e-007
5.32398e-007
5.32455e-007
5.32508e-007
5.32556e-007
5.32592e-007
1.27942
0.728663
0.385342
0.168565
0.0512365
0.008409
0.00054415
2.01954e-005
9.18085e-007
1.62298e-007
1.19529e-007
1.41823e-007
1.50086e-007
1.48038e-007
1.47318e-007
1.47313e-007
1.4735e-007
1.47387e-007
1.47421e-007
1.47452e-007
1.4748e-007
1.47506e-007
1.4753e-007
1.47553e-007
1.47574e-007
1.47598e-007
1.47617e-007
1.47635e-007
1.47653e-007
1.53821
0.973541
0.606006
0.359593
0.189002
0.0745949
0.0183404
0.00199331
9.43802e-005
3.6379e-006
2.12913e-007
6.07255e-008
4.93502e-008
5.78395e-008
6.00082e-008
6.00572e-008
6.0064e-008
6.00794e-008
6.00938e-008
6.01062e-008
6.0114e-008
6.01235e-008
6.01323e-008
6.01424e-008
6.01519e-008
6.01538e-008
6.01661e-008
6.01793e-008
6.01891e-008
1.70009
1.13611
0.758781
0.499663
0.317
0.185494
0.0885714
0.0272791
0.00422027
0.000265597
1.12595e-005
4.91126e-007
5.74784e-008
2.95425e-008
2.79931e-008
2.85957e-008
2.87026e-008
2.87136e-008
2.87208e-008
2.8728e-008
2.87347e-008
2.874e-008
2.8744e-008
2.87492e-008
2.87538e-008
2.87545e-008
2.87626e-008
2.87687e-008
2.87732e-008
1.78947
1.23413
0.85591
0.592191
0.403846
0.266196
0.163465
0.0860523
0.0301451
0.00564308
0.000435683
2.02778e-005
8.98354e-007
6.03159e-008
2.39008e-008
2.119e-008
2.10072e-008
2.10021e-008
2.10022e-008
2.10029e-008
2.10048e-008
2.1009e-008
2.10156e-008
2.10189e-008
2.10248e-008
2.104e-008
2.10413e-008
2.1042e-008
2.10436e-008
1.8724
1.32486
0.945386
0.676719
0.4823
0.338571
0.230115
0.146807
0.0822133
0.0326905
0.007033
0.000614652
2.88344e-005
1.22232e-006
6.95074e-008
2.29052e-008
2.10807e-008
2.10162e-008
2.10162e-008
2.10162e-008
2.10171e-008
2.10205e-008
2.1028e-008
2.10313e-008
2.10379e-008
2.10573e-008
2.10559e-008
2.10559e-008
2.10564e-008
1.88587
1.35368
0.982446
0.717964
0.525466
0.382382
0.273815
0.189828
0.123799
0.0713732
0.0299763
0.00640908
0.000536958
2.44207e-005
1.01546e-006
6.28842e-008
2.54606e-008
2.40382e-008
2.39939e-008
2.39938e-008
2.3994e-008
2.39968e-008
2.4011e-008
2.40148e-008
2.40225e-008
2.40469e-008
2.40222e-008
2.4022e-008
2.40221e-008
1.88172
1.36425
1.00105
0.741058
0.551094
0.40951
0.301882
0.218473
0.152663
0.0999555
0.0573962
0.0233856
0.00435066
0.000304247
1.30058e-005
5.52015e-007
5.95448e-008
4.0658e-008
3.99811e-008
3.99748e-008
3.99753e-008
3.99773e-008
4.00377e-008
4.00134e-008
4.00135e-008
4.00319e-008
3.99006e-008
3.98998e-008
3.99001e-008
1.86495
1.36227
1.0073
0.752223
0.565278
0.42559
0.319231
0.236742
0.171618
0.11937
0.0769465
0.0424294
0.014885
0.0020243
0.000107703
4.38028e-006
2.65768e-007
1.07972e-007
1.02136e-007
1.02024e-007
1.02025e-007
1.02015e-007
1.02171e-007
1.01855e-007
1.01684e-007
1.01685e-007
1.01341e-007
1.01339e-007
1.01276e-007
1.83547
1.34924
1.00368
0.753831
0.57033
0.433084
0.328469
0.24726
0.183114
0.131616
0.0897126
0.0553663
0.0274208
0.00686274
0.000572974
2.46417e-005
1.24177e-006
3.42099e-007
3.08293e-007
3.07438e-007
3.0744e-007
3.07253e-007
3.07526e-007
3.06152e-007
3.0453e-007
3.04041e-007
3.03792e-007
3.03481e-007
3.03478e-007
1.79688
1.32639
0.991734
0.748996
0.569472
0.434755
0.332089
0.252376
0.189367
0.138745
0.0975024
0.0635825
0.0357337
0.0134511
0.00186652
9.74045e-005
4.76367e-006
1.07367e-006
9.3013e-007
9.25557e-007
9.24485e-007
9.24483e-007
9.24917e-007
9.20365e-007
9.12162e-007
9.10992e-007
9.10988e-007
9.08889e-007
9.08901e-007
1.75146
1.297
0.972956
0.737844
0.563988
0.432772
0.332097
0.253926
0.192182
0.142533
0.102026
0.0686308
0.0410377
0.0184688
0.0038968
0.000278799
1.46672e-005
3.19832e-006
2.72538e-006
2.70824e-006
2.70238e-006
2.70237e-006
2.7035e-006
2.69022e-006
2.65732e-006
2.65146e-006
2.6515e-006
2.64363e-006
2.64362e-006
1.70135
1.26324
0.950216
0.722648
0.554183
0.427268
0.329786
0.253417
0.192872
0.144236
0.104501
0.0716599
0.0443921
0.0219017
0.00576693
0.000559811
3.65775e-005
9.20312e-006
7.97131e-006
7.91469e-006
7.87904e-006
7.87906e-006
7.88034e-006
7.84246e-006
7.74325e-006
7.70049e-006
7.70046e-006
7.65808e-006
7.64574e-006
1.64791
1.22654
0.924937
0.705292
0.542402
0.419444
0.324998
0.251162
0.192268
0.144636
0.105712
0.0734625
0.0465727
0.024257
0.00733495
0.00087383
7.23933e-005
2.31389e-005
2.04668e-005
2.03123e-005
2.02881e-005
2.02837e-005
2.02862e-005
2.0207e-005
1.99385e-005
1.98931e-005
1.98929e-005
1.98582e-005
1.98021e-005
1.59196
1.18776
0.89793
0.686505
0.529428
0.410632
0.319198
0.247597
0.190566
0.144285
0.106239
0.0746119
0.0481319
0.0260488
0.00873521
0.00122835
0.000116221
3.75132e-005
3.29267e-005
3.26485e-005
3.25865e-005
3.2633e-005
3.25171e-005
3.23302e-005
3.22481e-005
3.22046e-005
3.22092e-005
3.21314e-005
3.1948e-005
1.5339
1.14734
0.86966
0.666741
0.515698
0.40123
0.312933
0.243626
0.188285
0.143357
0.106244
0.0753303
0.0493472
0.0275689
0.0100505
0.00163222
0.000170262
5.10781e-005
4.3016e-005
4.23844e-005
4.24249e-005
4.22592e-005
4.22077e-005
4.22635e-005
4.2008e-005
4.19307e-005
4.19422e-005
4.18055e-005
4.17876e-005
1.47375
1.1054
0.840276
0.646164
0.501377
0.3914
0.306359
0.23943
0.185841
0.142215
0.106151
0.0759432
0.0504433
0.0289458
0.0113431
0.00211533
0.000243299
6.43321e-005
5.06246e-005
4.98769e-005
4.96415e-005
4.96693e-005
4.96487e-005
4.93793e-005
4.93639e-005
4.93639e-005
4.92174e-005
4.91628e-005
4.90679e-005
1.41173
1.0621
0.809906
0.624879
0.486556
0.381229
0.299561
0.235099
0.183324
0.141036
0.105959
0.0764792
0.05149
0.0303161
0.0127295
0.0026978
0.000338299
7.86983e-005
5.6996e-005
5.5026e-005
5.49146e-005
5.48362e-005
5.48455e-005
5.48954e-005
5.46923e-005
5.45425e-005
5.45335e-005
5.44579e-005
5.44544e-005
1.34797
1.01756
0.778646
0.602973
0.471318
0.370794
0.292619
0.230717
0.180827
0.139928
0.105862
0.0771536
0.0527107
0.0318818
0.0143199
0.00345491
0.000481545
9.8993e-005
6.20745e-005
5.90511e-005
5.86873e-005
5.86913e-005
5.85531e-005
5.82241e-005
5.83728e-005
5.83804e-005
5.83089e-005
5.83149e-005
5.80885e-005
1.28256
0.971803
0.746506
0.580434
0.455634
0.360061
0.285494
0.226241
0.178307
0.138859
0.105871
0.0779334
0.0540265
0.0335185
0.0160151
0.00436981
0.000688949
0.000130094
6.8381e-005
6.17709e-005
6.11754e-005
6.09981e-005
6.10935e-005
6.13395e-005
6.10645e-005
6.08705e-005
6.0771e-005
6.06678e-005
6.08442e-005
1.21582
0.925018
0.713579
0.557298
0.439507
0.349009
0.278152
0.221632
0.175726
0.137787
0.105925
0.0788034
0.0554716
0.0353253
0.0179258
0.00552564
0.000975008
0.00017387
7.49753e-005
6.42281e-005
6.31798e-005
6.31114e-005
6.27974e-005
6.25658e-005
6.28167e-005
6.28348e-005
6.2736e-005
6.26901e-005
6.24399e-005
1.14808
0.877413
0.679991
0.533643
0.422986
0.337671
0.27062
0.216919
0.173112
0.136746
0.106058
0.0797992
0.0570764
0.0373145
0.0201073
0.00702247
0.00144206
0.000258318
8.83752e-005
6.70603e-005
6.44445e-005
6.41088e-005
6.43089e-005
6.42981e-005
6.3925e-005
6.39105e-005
6.39039e-005
6.39463e-005
6.40896e-005
1.07966
0.829177
0.645848
0.509516
0.406078
0.32603
0.262863
0.212053
0.170415
0.13568
0.106222
0.080875
0.0588111
0.0394815
0.0224894
0.0088321
0.00206239
0.00037841
0.000108519
7.07684e-005
6.60238e-005
6.54134e-005
6.49793e-005
6.4937e-005
6.51501e-005
6.50648e-005
6.49523e-005
6.47095e-005
6.46771e-005
1.01097
0.780551
0.611285
0.484981
0.388798
0.314067
0.254841
0.206981
0.167567
0.134518
0.106338
0.0819465
0.0605818
0.0417267
0.0250127
0.01092
0.00297495
0.000602823
0.00014948
7.80556e-005
6.75271e-005
6.61851e-005
6.62466e-005
6.60726e-005
6.56608e-005
6.5698e-005
6.58741e-005
6.59497e-005
6.56416e-005
0.942463
0.731818
0.576469
0.460129
0.371187
0.30179
0.246542
0.201679
0.164544
0.133234
0.106367
0.0830072
0.0624001
0.0440713
0.0276866
0.0134099
0.00418102
0.000914201
0.00021348
9.03815e-005
7.04054e-005
6.70823e-005
6.66319e-005
6.67876e-005
6.68639e-005
6.64846e-005
6.62949e-005
6.63262e-005
6.64946e-005
0.87459
0.68327
0.541583
0.435067
0.353299
0.289219
0.237961
0.196129
0.161315
0.131794
0.10631
0.084021
0.0642367
0.0465022
0.0305164
0.0161835
0.00589569
0.00150323
0.00034729
0.000115965
7.54493e-005
6.88994e-005
6.78617e-005
6.7337e-005
6.71999e-005
6.74474e-005
6.73039e-005
6.70379e-005
6.69801e-005
0.807801
0.635198
0.506809
0.409901
0.335191
0.276372
0.229092
0.190305
0.157847
0.130164
0.10613
0.0849568
0.0660453
0.0489709
0.0334538
0.0193151
0.00802163
0.00226779
0.000546757
0.000162063
8.53928e-005
7.12417e-005
6.86349e-005
6.871e-005
6.81739e-005
6.78265e-005
6.79323e-005
6.78344e-005
6.79857e-005
0.742523
0.587888
0.472332
0.384744
0.316918
0.263266
0.219922
0.184173
0.154088
0.12828
0.105747
0.0857405
0.0677483
0.0513879
0.0364034
0.0225548
0.0107288
0.003596
0.000947882
0.000257894
0.000106292
7.63148e-005
7.01649e-005
6.91234e-005
6.95109e-005
6.90681e-005
6.85154e-005
6.86107e-005
6.85071e-005
0.679166
0.54162
0.438338
0.359713
0.298548
0.24993
0.210451
0.177711
0.150001
0.126085
0.105067
0.0862881
0.0692667
0.0536654
0.0392564
0.0258287
0.0136627
0.00522808
0.00151402
0.00041424
0.000146007
8.58904e-005
7.38635e-005
7.03576e-005
6.98825e-005
7.02092e-005
6.9931e-005
6.93243e-005
6.95001e-005
0.6181
0.496656
0.405011
0.334932
0.28016
0.236409
0.200696
0.170917
0.145566
0.123552
0.10408
0.0865458
0.0705833
0.0558184
0.0420553
0.0291249
0.0170672
0.00750473
0.00247875
0.000712123
0.000224722
0.000105705
7.87243e-005
7.35272e-005
7.11711e-005
7.07101e-005
7.11048e-005
7.08341e-005
7.023e-005
0.559646
0.453237
0.372524
0.310523
0.261834
0.222749
0.190678
0.163789
0.140763
0.120645
0.102725
0.086457
0.0715783
0.0577255
0.0446985
0.0323506
0.0205641
0.0103872
0.00392982
0.00122154
0.000376039
0.000146563
8.9367e-005
7.63029e-005
7.40838e-005
7.22836e-005
7.17824e-005
7.2235e-005
7.17781e-005
0.504068
0.411569
0.341036
0.286604
0.243653
0.209003
0.180424
0.156331
0.135581
0.11734
0.100991
0.0860793
0.0722772
0.0593422
0.0470885
0.0353971
0.0241121
0.013617
0.00596137
0.00206743
0.000646403
0.000226746
0.000111925
8.26236e-005
7.58912e-005
7.50043e-005
7.37029e-005
7.3081e-005
7.34424e-005
0.451579
0.37183
0.310692
0.263286
0.225701
0.195231
0.16997
0.148559
0.130015
0.113616
0.0988293
0.0852654
0.0725493
0.0606122
0.0491919
0.0381862
0.0275084
0.0171801
0.00850504
0.00334837
0.00114342
0.000387921
0.000159734
9.64978e-005
8.02572e-005
7.6498e-005
7.61305e-005
7.53609e-005
7.45398e-005
0.402333
0.334166
0.281616
0.240676
0.208063
0.181495
0.159359
0.140498
0.124072
0.10946
0.0962002
0.0839394
0.0723746
0.0614294
0.0508881
0.0406436
0.0306011
0.0207375
0.0116675
0.0051626
0.00191835
0.000662419
0.00025145
0.000125672
8.94121e-005
8.03912e-005
7.77993e-005
7.75328e-005
7.70421e-005
0.356435
0.298687
0.253918
0.218872
0.190822
0.167863
0.148642
0.132182
0.117771
0.104878
0.0931069
0.0821536
0.071793
0.0617907
0.052168
0.0427246
0.0333977
0.0240839
0.0150927
0.00768852
0.0031699
0.00117
0.000427028
0.000184417
0.000108986
8.69132e-005
8.20403e-005
7.96048e-005
7.90772e-005
0.313935
0.265474
0.227685
0.19796
0.174058
0.154405
0.137876
0.123655
0.11114
0.0998847
0.089548
0.0798703
0.0706524
0.0616473
0.0529467
0.044345
0.0357711
0.0271572
0.018502
0.0106534
0.00501612
0.00200088
0.000758498
0.000301065
0.000149436
0.000100944
8.67397e-005
8.43999e-005
8.16797e-005
0.274838
0.234574
0.202984
0.178015
0.157846
0.141191
0.127123
0.114966
0.104219
0.0945041
0.0855329
0.0770824
0.0689776
0.0610691
0.0531802
0.0454539
0.0376801
0.0297931
0.0217599
0.0138774
0.00740991
0.00331959
0.00132357
0.00053064
0.000231969
0.000130753
9.74296e-005
8.80127e-005
8.6851e-005
0.239106
0.206001
0.179862
0.159101
0.142257
0.128291
0.116449
0.106175
0.0970547
0.088773
0.0810863
0.073804
0.0667761
0.0598894
0.052935
0.0460158
0.0390541
0.0319466
0.0245987
0.017147
0.0102513
0.0051761
0.0022641
0.000913513
0.000389031
0.000190566
0.000120478
9.6584e-005
9.01069e-005
0.20666
0.179743
0.158346
0.141266
0.127351
0.115772
0.10592
0.097344
0.0897046
0.08274
0.076246
0.0700607
0.0640542
0.0581232
0.0521755
0.0459699
0.0398323
0.0334987
0.0269454
0.0200694
0.0133179
0.00753961
0.0036736
0.00160817
0.000670528
0.000305543
0.00016655
0.00011544
9.77149e-005
0.177385
0.155757
0.138439
0.124547
0.113184
0.103698
0.095605
0.0885428
0.0822343
0.0764647
0.0710636
0.0658942
0.0608447
0.0558235
0.050752
0.045505
0.0400045
0.0344641
0.0286488
0.0225642
0.0161818
0.0102752
0.00558147
0.00268342
0.00119953
0.000522877
0.000257545
0.000153559
0.00011401
0.151137
0.133977
0.120129
0.108964
0.099799
0.0921288
0.0855731
0.0798433
0.0747162
0.0700163
0.0656028
0.0613605
0.0571939
0.0530229
0.0487803
0.0444212
0.0397192
0.0348099
0.0297658
0.024389
0.0187543
0.0129575
0.00796512
0.004216
0.00202978
0.000930699
0.00043128
0.000232481
0.000146913
0.127746
0.114316
0.103384
0.0945255
0.0872322
0.0811186
0.0758898
0.0713186
0.0672266
0.0634715
0.0599376
0.0565286
0.0531635
0.0497727
0.0462967
0.0426847
0.03888
0.034638
0.0302473
0.0256307
0.0206717
0.015508
0.0104068
0.00626626
0.00328497
0.00159594
0.000746774
0.000369273
0.000212718
0.107025
0.0966688
0.088157
0.0812268
0.0755086
0.0707139
0.0666171
0.0630409
0.0598439
0.0569117
0.0541495
0.0514777
0.0488278
0.0461404
0.0433629
0.0404471
0.0373475
0.0339782
0.0301576
0.0262311
0.0220236
0.0174497
0.0128547
0.00846379
0.00504729
0.00266369
0.00130434
0.000627602
0.000325309
0.0887724
0.0809168
0.0743894
0.0690519
0.0646438
0.0609535
0.0578108
0.0550785
0.0526453
0.0504193
0.0483241
0.0462936
0.0442706
0.0422052
0.0400523
0.0377692
0.0353141
0.0326607
0.0296523
0.0262098
0.0227097
0.0188868
0.0147634
0.0107806
0.00704097
0.00419232
0.00224474
0.00111185
0.000543453
0.0727849
0.0669348
0.0620133
0.0579752
0.0546442
0.0518682
0.0495201
0.0474946
0.045704
0.0440751
0.0425467
0.0410642
0.0395799
0.0380533
0.0364472
0.0347247
0.0328482
0.0307899
0.0285247
0.0258317
0.022773
0.0196554
0.0162621
0.012642
0.00922922
0.00603779
0.00363428
0.0019518
0.00096646
0.0588593
0.0545943
0.0509546
0.0479636
0.0455077
0.0434799
0.0417859
0.0403445
0.0390866
0.037954
0.0368989
0.0358751
0.0348432
0.0337722
0.0326334
0.0313949
0.0300239
0.0284952
0.0267812
0.0248545
0.0224748
0.0197731
0.0171028
0.0141405
0.0110861
0.00813947
0.00535839
0.00328643
0.00171855
0.0468006
0.0437681
0.041136
0.0389782
0.0372254
0.0358029
0.0346407
0.0336751
0.032851
0.0321225
0.031454
0.0308047
0.0301426
0.0294455
0.028695
0.0278616
0.0269197
0.025842
0.0246188
0.0231996
0.02161
0.0195245
0.0172501
0.0150183
0.0125685
0.0100045
0.00747502
0.00498585
0.00297438
0.0364264
0.0343336
0.0324799
0.030977
0.0297829
0.0288448
0.0281085
0.0275233
0.0270443
0.0266363
0.0262745
0.0259206
0.0255502
0.0251487
0.0247085
0.0242014
0.0236113
0.0229002
0.0220922
0.0211071
0.0200236
0.01872
0.0170312
0.0151474
0.0134337
0.0114862
0.00938666
0.00725222
0.00474064
0.0275713
0.0261754
0.0249112
0.0239181
0.0231635
0.0226078
0.0222058
0.0219166
0.0217024
0.0215387
0.0214091
0.0212769
0.0211263
0.0209463
0.0207405
0.0204824
0.0201663
0.0197381
0.0192582
0.0186353
0.0179403
0.0171601
0.0162407
0.0149117
0.0134961
0.0122582
0.0107506
0.0092564
0.00726883
0.020089
0.0191886
0.0183617
0.0177639
0.0173504
0.0170909
0.0169419
0.0168727
0.016849
0.0168601
0.0168915
0.016911
0.0169156
0.0168944
0.0168496
0.0167664
0.0166473
0.0164153
0.0161695
0.0158038
0.0154288
0.014903
0.0145725
0.0139569
0.013146
0.0121521
0.0114673
0.0104876
0.00961761
0.0138548
0.0132825
0.0127759
0.0124862
0.0123307
0.0122915
0.0123205
0.0124027
0.0125055
0.0126314
0.0127581
0.0128695
0.012972
0.0130425
0.0130931
0.0131171
0.0131209
0.0130468
0.0129655
0.0127994
0.0126646
0.0123732
0.0122078
0.0118087
0.0117027
0.0113876
0.011295
0.0109603
0.010569
0.00876857
0.00839064
0.0081213
0.00807185
0.00809855
0.00821444
0.00835099
0.00852184
0.0086886
0.00887993
0.00904151
0.00920131
0.00937894
0.00953077
0.00968066
0.00979549
0.00986592
0.00981993
0.00987986
0.00992794
0.0101013
0.0104363
0.0110332
0.0119097
0.0127292
0.0133813
0.0140645
0.0144023
0.0142823
0.00476782
0.00449114
0.00440692
0.00453134
0.00466471
0.0048808
0.00505376
0.0052639
0.00546229
0.00570948
0.00589905
0.00609079
0.00630846
0.00656897
0.00695479
0.00749498
0.00848096
0.00971441
0.0114179
0.0133488
0.0163661
0.0205544
0.0254264
0.0330635
0.0391385
0.0507911
0.0564168
0.0696932
0.0670884
0.00187143
0.00167188
0.00171313
0.00194751
0.00209646
0.00235182
0.00250948
0.00271969
0.0029337
0.00325486
0.00374122
0.00439481
0.00571546
0.00725908
0.00989899
0.0134623
0.0189948
0.0254666
0.0351892
0.0466129
0.0617544
0.0804011
0.101866
0.131249
0.158436
0.205059
0.236681
0.314441
0.326414
0.000414188
0.0003521
0.000398754
0.00055936
0.000754044
0.000976534
0.00145868
0.00188959
0.00273946
0.00404534
0.00661392
0.00977977
0.0146788
0.0213664
0.031017
0.0430516
0.0587115
0.0773209
0.101276
0.130019
0.165599
0.209
0.260323
0.326289
0.398743
0.505195
0.606012
0.80743
0.913269
0.000125098
0.000145077
0.000204415
0.0003697
0.000954053
0.00155056
0.00320613
0.0046769
0.00768509
0.0122096
0.0189872
0.0273544
0.039011
0.054147
0.0740516
0.0984695
0.128691
0.165019
0.210233
0.264468
0.331207
0.411403
0.509559
0.630001
0.777394
0.970531
1.20832
1.55539
1.87239
0.00099014
0.00099014
0.00099014
0.00099014
0.00099014
0.000990141
0.000990141
0.000990141
0.000990141
0.000990141
0.000990141
0.000990141
0.000990142
0.000990142
0.000990142
0.000990142
0.000990142
0.000990143
0.000990143
0.000990143
0.000990143
0.000990144
0.000990144
0.000990144
0.000990144
0.000990145
0.000990145
0.000990145
0.000990146
0.000990146
0.000990146
0.000990147
0.000990147
0.000990148
0.000990148
0.000990148
0.000990149
0.000990149
0.000990149
0.000990149
0.00099015
0.00099015
0.00099015
0.00099015
0.00099015
0.00099015
0.000990151
0.000990151
0.000990151
0.000990151
0.000990151
0.000990151
0.000990151
0.000990151
0.000990151
0.000990151
0.000990152
0.000990152
0.000990152
0.000990152
0.000990152
0.000990152
0.000990152
0.000990152
0.000990152
0.000990153
0.000990153
0.000990153
0.000990153
0.000990153
0.000990153
0.000990153
0.000990153
0.000990153
0.000990153
0.000990153
0.000990154
0.000990154
0.000990154
0.000990154
0.000990154
0.000990154
0.000990154
0.000990154
0.000990154
0.000990154
0.000990154
0.000990154
0.000990154
0.000990154
0.000990154
0.000990154
0.000990154
0.000990154
0.000990154
0.000990154
0.000990155
0.000990155
0.000990155
0.000990155
0.000990155
0.000990156
0.000990156
0.000990156
0.000990156
0.000990156
0.000990157
0.000990157
0.000990157
0.000990157
0.000990157
0.000990157
0.000990157
0.000990157
0.000990156
0.000990156
0.000990155
0.000990155
0.000990155
0.000990155
0.000990156
0.000990156
0.000990156
0.000990156
0.000990156
0.000990156
0.000990156
0.000990157
0.000990157
0.000990156
0.000990159
0.000990158
0.00099016
0.000990162
0.000990161
0.000990164
0.000990164
0.000990176
0.00100822
4.0989e-005
4.09896e-005
4.099e-005
4.09904e-005
4.09907e-005
4.09909e-005
4.09911e-005
4.09914e-005
4.09916e-005
4.09918e-005
4.0992e-005
4.09922e-005
4.09925e-005
4.09928e-005
4.09931e-005
4.09935e-005
4.09938e-005
4.09941e-005
4.09944e-005
4.09948e-005
4.09952e-005
4.09956e-005
4.0996e-005
4.09965e-005
4.0997e-005
4.09975e-005
4.0998e-005
4.09985e-005
4.09991e-005
4.09996e-005
4.10002e-005
4.10008e-005
4.10014e-005
4.1002e-005
4.10026e-005
4.10031e-005
4.10036e-005
4.1004e-005
4.10045e-005
4.10049e-005
4.10053e-005
4.10057e-005
4.10061e-005
4.10064e-005
4.10067e-005
4.1007e-005
4.10073e-005
4.10076e-005
4.10079e-005
4.10081e-005
4.10083e-005
4.10085e-005
4.10087e-005
4.10089e-005
4.10091e-005
4.10092e-005
4.10094e-005
4.10096e-005
4.10098e-005
4.101e-005
4.10103e-005
4.10106e-005
4.10108e-005
4.10111e-005
4.10113e-005
4.10116e-005
4.10118e-005
4.1012e-005
4.10122e-005
4.10124e-005
4.10126e-005
4.10128e-005
4.1013e-005
4.10132e-005
4.10134e-005
4.10135e-005
4.10137e-005
4.10138e-005
4.1014e-005
4.10141e-005
4.10142e-005
4.10143e-005
4.10144e-005
4.10144e-005
4.10144e-005
4.10144e-005
4.10144e-005
4.10144e-005
4.10144e-005
4.10145e-005
4.10146e-005
4.10147e-005
4.10149e-005
4.10152e-005
4.10154e-005
4.10157e-005
4.1016e-005
4.10163e-005
4.10166e-005
4.10169e-005
4.10172e-005
4.10175e-005
4.10178e-005
4.1018e-005
4.10183e-005
4.10186e-005
4.10189e-005
4.10191e-005
4.10193e-005
4.10195e-005
4.10196e-005
4.10194e-005
4.1019e-005
4.10185e-005
4.10179e-005
4.10172e-005
4.10166e-005
4.10161e-005
4.1016e-005
4.10163e-005
4.10165e-005
4.10167e-005
4.10168e-005
4.1017e-005
4.10167e-005
4.10172e-005
4.10163e-005
4.10173e-005
4.10173e-005
4.10168e-005
4.102e-005
4.10189e-005
4.10214e-005
4.10254e-005
4.10225e-005
4.1028e-005
4.10594e-005
4.09856e-005
4.20921e-005
3.38083e-006
3.38103e-006
3.38118e-006
3.38131e-006
3.38142e-006
3.38153e-006
3.38163e-006
3.38172e-006
3.3818e-006
3.38189e-006
3.38197e-006
3.38205e-006
3.38213e-006
3.38221e-006
3.38229e-006
3.38238e-006
3.38246e-006
3.38255e-006
3.38264e-006
3.38274e-006
3.38284e-006
3.38294e-006
3.38305e-006
3.38316e-006
3.38328e-006
3.3834e-006
3.38352e-006
3.38365e-006
3.38378e-006
3.38391e-006
3.38405e-006
3.38419e-006
3.38433e-006
3.38447e-006
3.38462e-006
3.38477e-006
3.38493e-006
3.38509e-006
3.38524e-006
3.38539e-006
3.38554e-006
3.38569e-006
3.38584e-006
3.38598e-006
3.38613e-006
3.38627e-006
3.38642e-006
3.38656e-006
3.38669e-006
3.38683e-006
3.38697e-006
3.38711e-006
3.38724e-006
3.38737e-006
3.3875e-006
3.38763e-006
3.38776e-006
3.38789e-006
3.38802e-006
3.38815e-006
3.38828e-006
3.38842e-006
3.38855e-006
3.38868e-006
3.3888e-006
3.38893e-006
3.38905e-006
3.38917e-006
3.38928e-006
3.38939e-006
3.3895e-006
3.38961e-006
3.38972e-006
3.38982e-006
3.38992e-006
3.39002e-006
3.39012e-006
3.39021e-006
3.3903e-006
3.39039e-006
3.39047e-006
3.39056e-006
3.39064e-006
3.39072e-006
3.39079e-006
3.39087e-006
3.39094e-006
3.39102e-006
3.39107e-006
3.39111e-006
3.39114e-006
3.39117e-006
3.39121e-006
3.39125e-006
3.39128e-006
3.39132e-006
3.39136e-006
3.3914e-006
3.39143e-006
3.39147e-006
3.3915e-006
3.39152e-006
3.39154e-006
3.39155e-006
3.39156e-006
3.39156e-006
3.39155e-006
3.39153e-006
3.39151e-006
3.39147e-006
3.39143e-006
3.39134e-006
3.39121e-006
3.39105e-006
3.39088e-006
3.39071e-006
3.39053e-006
3.39036e-006
3.39024e-006
3.39017e-006
3.3901e-006
3.39003e-006
3.38989e-006
3.38982e-006
3.38963e-006
3.38946e-006
3.38936e-006
3.38899e-006
3.38911e-006
3.38878e-006
3.38909e-006
3.38918e-006
3.38854e-006
3.3893e-006
3.39656e-006
3.39538e-006
3.01447e-006
3.79985e-006
0.000263076
5.32642e-007
5.32698e-007
5.32746e-007
5.3279e-007
5.32832e-007
5.32872e-007
5.3291e-007
5.32947e-007
5.32984e-007
5.3302e-007
5.33057e-007
5.33094e-007
5.33132e-007
5.3317e-007
5.33208e-007
5.33248e-007
5.33288e-007
5.33329e-007
5.3337e-007
5.33412e-007
5.33456e-007
5.335e-007
5.33544e-007
5.3359e-007
5.33637e-007
5.33684e-007
5.33732e-007
5.33781e-007
5.3383e-007
5.3388e-007
5.33931e-007
5.33982e-007
5.34034e-007
5.34085e-007
5.34139e-007
5.34195e-007
5.3425e-007
5.34307e-007
5.34363e-007
5.34419e-007
5.34475e-007
5.34531e-007
5.34586e-007
5.34642e-007
5.34698e-007
5.34754e-007
5.34809e-007
5.34864e-007
5.3492e-007
5.34975e-007
5.3503e-007
5.35084e-007
5.35139e-007
5.35193e-007
5.35247e-007
5.35301e-007
5.35355e-007
5.35409e-007
5.35462e-007
5.35515e-007
5.35567e-007
5.35618e-007
5.35668e-007
5.35717e-007
5.35766e-007
5.35813e-007
5.3586e-007
5.35905e-007
5.3595e-007
5.35993e-007
5.36036e-007
5.36078e-007
5.3612e-007
5.3616e-007
5.362e-007
5.36239e-007
5.36277e-007
5.36314e-007
5.3635e-007
5.36386e-007
5.3642e-007
5.36454e-007
5.36487e-007
5.36519e-007
5.36549e-007
5.36579e-007
5.36607e-007
5.36635e-007
5.36658e-007
5.36676e-007
5.36692e-007
5.36706e-007
5.36719e-007
5.3673e-007
5.3674e-007
5.36749e-007
5.36756e-007
5.36761e-007
5.36765e-007
5.36767e-007
5.36766e-007
5.36764e-007
5.36759e-007
5.36753e-007
5.36745e-007
5.36734e-007
5.36721e-007
5.36705e-007
5.36687e-007
5.36666e-007
5.36645e-007
5.36619e-007
5.36584e-007
5.36542e-007
5.36496e-007
5.36446e-007
5.36392e-007
5.36335e-007
5.36283e-007
5.36235e-007
5.36184e-007
5.36129e-007
5.36068e-007
5.35998e-007
5.35926e-007
5.35824e-007
5.35754e-007
5.35644e-007
5.35523e-007
5.35527e-007
5.35439e-007
5.34427e-007
5.3679e-007
5.41345e-007
4.91872e-007
4.89348e-007
5.78945e-006
0.00086037
0.0365204
1.47674e-007
1.47693e-007
1.47713e-007
1.47734e-007
1.47753e-007
1.47772e-007
1.47792e-007
1.47811e-007
1.4783e-007
1.47849e-007
1.47868e-007
1.47887e-007
1.47907e-007
1.47927e-007
1.47947e-007
1.47968e-007
1.47988e-007
1.4801e-007
1.48031e-007
1.48052e-007
1.48074e-007
1.48097e-007
1.48119e-007
1.48142e-007
1.48165e-007
1.48189e-007
1.48213e-007
1.48237e-007
1.48261e-007
1.48285e-007
1.4831e-007
1.48335e-007
1.48359e-007
1.48384e-007
1.4841e-007
1.48435e-007
1.4846e-007
1.48486e-007
1.48512e-007
1.48537e-007
1.48563e-007
1.48588e-007
1.48614e-007
1.48639e-007
1.48665e-007
1.4869e-007
1.48716e-007
1.48741e-007
1.48766e-007
1.48791e-007
1.48816e-007
1.48841e-007
1.48866e-007
1.4889e-007
1.48915e-007
1.48939e-007
1.48963e-007
1.48987e-007
1.4901e-007
1.49033e-007
1.49056e-007
1.49077e-007
1.49099e-007
1.4912e-007
1.49141e-007
1.49162e-007
1.49182e-007
1.49202e-007
1.49222e-007
1.49241e-007
1.4926e-007
1.49278e-007
1.49296e-007
1.49314e-007
1.49331e-007
1.49347e-007
1.49364e-007
1.4938e-007
1.49395e-007
1.4941e-007
1.49424e-007
1.49438e-007
1.49452e-007
1.49465e-007
1.49477e-007
1.49489e-007
1.495e-007
1.49511e-007
1.49521e-007
1.49531e-007
1.49539e-007
1.49547e-007
1.49554e-007
1.4956e-007
1.49565e-007
1.49569e-007
1.49572e-007
1.49575e-007
1.49576e-007
1.49577e-007
1.49576e-007
1.49574e-007
1.49572e-007
1.49569e-007
1.49564e-007
1.49559e-007
1.49553e-007
1.49546e-007
1.49537e-007
1.49528e-007
1.49518e-007
1.49507e-007
1.49496e-007
1.49482e-007
1.49468e-007
1.49451e-007
1.49432e-007
1.49412e-007
1.49392e-007
1.49369e-007
1.49346e-007
1.49318e-007
1.49288e-007
1.49254e-007
1.49214e-007
1.49175e-007
1.49119e-007
1.49085e-007
1.49025e-007
1.48978e-007
1.49392e-007
1.52927e-007
1.46585e-007
1.26605e-007
2.81354e-007
8.95321e-006
0.000760879
0.0253436
0.220299
6.01971e-008
6.02165e-008
6.02334e-008
6.02484e-008
6.02618e-008
6.02778e-008
6.02933e-008
6.03085e-008
6.03242e-008
6.034e-008
6.03563e-008
6.03732e-008
6.03903e-008
6.04076e-008
6.04251e-008
6.04433e-008
6.04618e-008
6.04804e-008
6.04994e-008
6.05188e-008
6.05384e-008
6.05586e-008
6.0579e-008
6.05996e-008
6.06206e-008
6.06418e-008
6.06632e-008
6.06849e-008
6.07068e-008
6.07288e-008
6.07511e-008
6.07735e-008
6.0796e-008
6.08186e-008
6.08414e-008
6.08643e-008
6.08872e-008
6.09101e-008
6.0933e-008
6.09559e-008
6.09787e-008
6.10014e-008
6.10242e-008
6.10467e-008
6.10693e-008
6.10917e-008
6.11141e-008
6.11363e-008
6.11583e-008
6.11802e-008
6.12019e-008
6.12235e-008
6.12447e-008
6.12659e-008
6.12868e-008
6.13075e-008
6.1328e-008
6.13482e-008
6.13681e-008
6.13876e-008
6.14069e-008
6.14258e-008
6.14446e-008
6.14631e-008
6.14813e-008
6.14992e-008
6.15168e-008
6.15341e-008
6.15509e-008
6.15676e-008
6.15839e-008
6.15998e-008
6.16154e-008
6.16307e-008
6.16455e-008
6.166e-008
6.16739e-008
6.16879e-008
6.17013e-008
6.17144e-008
6.1727e-008
6.17393e-008
6.1751e-008
6.17626e-008
6.17737e-008
6.17843e-008
6.17945e-008
6.18041e-008
6.18135e-008
6.18227e-008
6.18315e-008
6.18399e-008
6.18476e-008
6.1855e-008
6.18617e-008
6.18679e-008
6.18734e-008
6.18784e-008
6.18826e-008
6.18864e-008
6.18892e-008
6.18916e-008
6.18933e-008
6.18943e-008
6.18947e-008
6.18944e-008
6.18936e-008
6.18921e-008
6.18898e-008
6.18866e-008
6.18826e-008
6.18782e-008
6.18737e-008
6.18687e-008
6.1863e-008
6.18562e-008
6.18484e-008
6.18397e-008
6.18299e-008
6.18185e-008
6.18064e-008
6.17915e-008
6.1776e-008
6.17561e-008
6.17353e-008
6.1712e-008
6.1683e-008
6.16575e-008
6.1645e-008
6.16139e-008
6.10319e-008
5.00764e-008
6.03351e-008
3.76644e-007
2.11532e-005
0.00120521
0.0261824
0.180303
0.63119
2.87795e-008
2.87909e-008