/*--------------------------------*- C++ -*----------------------------------*\
| =========                 |                                                 |
| \\      /  F ield         | OpenFOAM: The Open Source CFD Toolbox           |
|  \\    /   O peration     | Version:  5.x                                   |
|   \\  /    A nd           | Web:      www.OpenFOAM.org                      |
|    \\/     M anipulation  |                                                 |
\*---------------------------------------------------------------------------*/
/*   Windows 32 and 64 bit porting by blueCAPE: http://www.bluecape.com.pt   *\
|  Based on Windows porting (2.0.x v4) by Symscape: http://www.symscape.com   |
\*---------------------------------------------------------------------------*/
FoamFile
{
    version     2.0;
    format      ascii;
    class       volScalarField;
    location    "160";
    object      nut;
}
// * * * * * * * * * * * * * * * * * * * * * * * * * * * * * * * * * * * * * //

dimensions      [0 2 -1 0 0 0 0];

internalField   nonuniform List<scalar> 
43900
(
5.71474e-005
5.80054e-005
5.80695e-005
5.80648e-005
5.80598e-005
5.80592e-005
5.80592e-005
5.80595e-005
5.80589e-005
5.80592e-005
5.80593e-005
5.80595e-005
5.80596e-005
5.80597e-005
5.80598e-005
5.80599e-005
5.80599e-005
5.806e-005
5.806e-005
5.80601e-005
5.80601e-005
5.80602e-005
5.80602e-005
5.80603e-005
5.80603e-005
5.80603e-005
5.80604e-005
5.80604e-005
5.80604e-005
0.000566816
7.16736e-006
4.30498e-006
4.15552e-006
4.5861e-006
4.60758e-006
4.60907e-006
4.60497e-006
4.60367e-006
4.60465e-006
4.60491e-006
4.6053e-006
4.60562e-006
4.60586e-006
4.60606e-006
4.60624e-006
4.6064e-006
4.60653e-006
4.60667e-006
4.60681e-006
4.60694e-006
4.60706e-006
4.60717e-006
4.60727e-006
4.60736e-006
4.60744e-006
4.60751e-006
4.60758e-006
4.60763e-006
0.151248
0.0441697
0.00479287
9.32504e-005
1.17399e-006
6.42458e-007
6.07123e-007
7.18264e-007
7.26189e-007
7.22875e-007
7.2209e-007
7.22495e-007
7.22757e-007
7.22889e-007
7.23017e-007
7.2314e-007
7.23253e-007
7.23354e-007
7.23456e-007
7.23551e-007
7.23634e-007
7.23704e-007
7.23766e-007
7.2382e-007
7.2387e-007
7.23914e-007
7.23955e-007
7.23992e-007
7.24014e-007
0.472847
0.288623
0.130924
0.0364443
0.00395707
0.000123838
2.98164e-006
2.22942e-007
1.65472e-007
2.06164e-007
2.16627e-007
2.13305e-007
2.11863e-007
2.12108e-007
2.12265e-007
2.12334e-007
2.12392e-007
2.12445e-007
2.12494e-007
2.12537e-007
2.12575e-007
2.12607e-007
2.12635e-007
2.12661e-007
2.12685e-007
2.12707e-007
2.12727e-007
2.12746e-007
2.1276e-007
0.748094
0.572316
0.404435
0.239081
0.0985237
0.0220342
0.00177562
6.51999e-005
1.49528e-006
1.28072e-007
7.81361e-008
9.93957e-008
1.08084e-007
1.05855e-007
1.05063e-007
1.05043e-007
1.05066e-007
1.05091e-007
1.05113e-007
1.05134e-007
1.05153e-007
1.0517e-007
1.05187e-007
1.05202e-007
1.05216e-007
1.05233e-007
1.05245e-007
1.05257e-007
1.05269e-007
0.955719
0.786925
0.629773
0.476824
0.322864
0.168567
0.0545704
0.0075872
0.000405336
1.4629e-005
4.39561e-007
7.63615e-008
5.20851e-008
6.58459e-008
6.97364e-008
6.98112e-008
6.98104e-008
6.98288e-008
6.98461e-008
6.98605e-008
6.98679e-008
6.98785e-008
6.98879e-008
6.98996e-008
6.99102e-008
6.99078e-008
6.9923e-008
6.99399e-008
6.99512e-008
1.10906
0.945772
0.796363
0.654467
0.515085
0.374859
0.228565
0.0905278
0.0179768
0.00132078
5.92148e-005
2.09616e-006
1.39982e-007
5.33439e-008
4.54029e-008
4.6803e-008
4.71027e-008
4.71275e-008
4.71398e-008
4.71527e-008
4.71652e-008
4.71736e-008
4.7179e-008
4.71874e-008
4.71937e-008
4.7191e-008
4.72061e-008
4.7216e-008
4.72237e-008
1.21485
1.05614
0.912531
0.778353
0.648908
0.520361
0.389714
0.256314
0.113446
0.0269668
0.00244786
0.000121208
5.25608e-006
2.03878e-007
6.59878e-008
5.32654e-008
5.20213e-008
5.19485e-008
5.19403e-008
5.19345e-008
5.19311e-008
5.19404e-008
5.19612e-008
5.19679e-008
5.19854e-008
5.20379e-008
5.20305e-008
5.2027e-008
5.20277e-008
1.32204
1.16573
1.02506
0.894909
0.770959
0.649619
0.527985
0.404076
0.277867
0.14286
0.0385065
0.00396196
0.000196597
8.34899e-006
3.45938e-007
8.16763e-008
7.43922e-008
7.41895e-008
7.41887e-008
7.41883e-008
7.41902e-008
7.42008e-008
7.42242e-008
7.4233e-008
7.42535e-008
7.43182e-008
7.43168e-008
7.43168e-008
7.43177e-008
1.36611
1.21694
1.08301
0.960289
0.844688
0.732749
0.621612
0.509009
0.393235
0.272339
0.146167
0.0390698
0.00381427
0.00018208
7.58847e-006
3.57931e-007
1.0606e-007
9.76417e-008
9.73782e-008
9.73776e-008
9.73773e-008
9.73877e-008
9.74532e-008
9.74648e-008
9.74925e-008
9.75849e-008
9.74471e-008
9.74459e-008
9.74447e-008
1.40098
1.25327
1.12362
1.00514
0.894725
0.78911
0.685516
0.581626
0.475556
0.365737
0.250941
0.130206
0.0300337
0.00237462
0.000104822
4.37805e-006
3.67785e-007
2.24648e-007
2.19642e-007
2.19586e-007
2.19592e-007
2.19599e-007
2.20009e-007
2.19795e-007
2.19784e-007
2.19844e-007
2.18812e-007
2.18802e-007
2.18803e-007
1.42444
1.27887
1.1501
1.03544
0.928708
0.827271
0.728755
0.630928
0.53194
0.430303
0.324853
0.214578
0.0962328
0.0158809
0.000911292
3.76778e-005
2.22374e-006
8.52664e-007
8.01875e-007
8.01045e-007
8.01048e-007
8.00842e-007
8.0241e-007
7.98719e-007
7.97198e-007
7.97441e-007
7.94014e-007
7.9401e-007
7.92997e-007
1.43437
1.29293
1.16644
1.05172
0.947993
0.850432
0.755768
0.662407
0.568567
0.472798
0.373977
0.271209
0.16357
0.0519698
0.00500007
0.000221933
1.15241e-005
3.37427e-006
3.0675e-006
3.06213e-006
3.06219e-006
3.05834e-006
3.06766e-006
3.04294e-006
3.02262e-006
3.02028e-006
3.02182e-006
3.01579e-006
3.01572e-006
1.43395
1.29536
1.17299
1.06183
0.958255
0.86215
0.771123
0.681168
0.590918
0.499226
0.405002
0.307437
0.205922
0.0968565
0.0162898
0.00090595
4.61375e-005
1.17801e-005
1.04726e-005
1.04356e-005
1.04199e-005
1.04197e-005
1.04633e-005
1.03757e-005
1.02511e-005
1.02566e-005
1.0283e-005
1.02411e-005
1.02413e-005
1.42597
1.29023
1.17041
1.06273
0.963513
0.868838
0.777766
0.690506
0.60349
0.514855
0.423991
0.330123
0.232569
0.128833
0.0336103
0.00264793
0.00014619
3.69667e-005
3.26467e-005
3.25053e-005
3.2433e-005
3.24792e-005
3.2596e-005
3.23961e-005
3.18285e-005
3.17194e-005
3.18758e-005
3.17389e-005
3.1739e-005
1.41301
1.28016
1.16285
1.05737
0.960583
0.869897
0.782183
0.695089
0.609594
0.523751
0.43538
0.344151
0.249369
0.149556
0.0488971
0.00538929
0.00037381
0.000109515
9.82223e-005
9.75508e-005
9.7379e-005
9.75723e-005
9.78504e-005
9.755e-005
9.52341e-005
9.45021e-005
9.53751e-005
9.46299e-005
9.43255e-005
1.39685
1.267
1.15231
1.04914
0.954451
0.865671
0.780599
0.697213
0.612917
0.528138
0.441984
0.352876
0.260298
0.163239
0.0611944
0.00840521
0.000764811
0.000286473
0.000262025
0.000260463
0.000260068
0.000260729
0.000261265
0.000260399
0.000255213
0.000254813
0.000255799
0.000255078
0.000253619
1.37852
1.25179
1.13983
1.03907
0.946545
0.859737
0.776508
0.695032
0.613782
0.530833
0.446531
0.359103
0.268337
0.173454
0.0717756
0.0117367
0.00123215
0.000472461
0.000430447
0.000427773
0.00042751
0.000428163
0.000427256
0.00042429
0.000421738
0.000422291
0.000422687
0.000422158
0.000419092
1.35861
1.23516
1.12607
1.02784
0.937564
0.852791
0.771438
0.691738
0.612195
0.531546
0.448239
0.363022
0.274402
0.181738
0.0812803
0.0154188
0.00178522
0.000639196
0.000565983
0.000559998
0.000560249
0.000559064
0.000558638
0.000558293
0.00055501
0.000554402
0.000554753
0.000553135
0.000552295
1.33738
1.21741
1.11135
1.01579
0.92788
0.845233
0.765825
0.687949
0.610175
0.53133
0.450475
0.36684
0.279919
0.189119
0.0903293
0.0197
0.00250451
0.000791499
0.000667425
0.000660375
0.000658598
0.000658865
0.000658547
0.000655536
0.000654623
0.00065458
0.000653264
0.000652344
0.000650819
1.31498
1.19868
1.09583
1.00309
0.917677
0.837273
0.759913
0.683945
0.60799
0.53092
0.451857
0.370097
0.285121
0.196374
0.0997074
0.0247221
0.00341432
0.000943776
0.000748065
0.000730562
0.00072962
0.000729026
0.000729026
0.000729057
0.000726994
0.000725031
0.000724843
0.000723979
0.000723679
1.29147
1.17904
1.07958
0.989827
0.907071
0.829053
0.753872
0.679936
0.605923
0.530736
0.453443
0.373799
0.290953
0.204372
0.110077
0.0310743
0.00475725
0.00114329
0.000808733
0.000782984
0.00077992
0.00077983
0.000778562
0.000775301
0.000776248
0.000776163
0.000775353
0.000775281
0.000773048
1.26682
1.15849
1.06261
0.976002
0.896048
0.820552
0.747679
0.675903
0.603961
0.530817
0.455618
0.377964
0.297161
0.212647
0.120805
0.0385327
0.00665583
0.00143671
0.000875617
0.000818143
0.000812683
0.00081139
0.000812339
0.000814301
0.000811762
0.000809625
0.000808581
0.000807531
0.000808743
1.24102
1.13698
1.04486
0.961568
0.884562
0.811722
0.741285
0.671792
0.602045
0.531073
0.458088
0.382579
0.303963
0.221685
0.132592
0.0477275
0.0092454
0.00184035
0.000935637
0.000846359
0.000837987
0.00083732
0.000834688
0.0008322
0.000834292
0.000834611
0.000833773
0.00083304
0.000830563
1.21409
1.11453
1.02633
0.946512
0.872602
0.802563
0.734705
0.667638
0.600227
0.53156
0.460893
0.387696
0.311418
0.23153
0.145557
0.0592168
0.0133736
0.00262025
0.00105896
0.000875557
0.000853633
0.000850689
0.000852549
0.000852328
0.000848901
0.000848525
0.000848505
0.000848801
0.000849884
1.186
1.09109
1.00698
0.93078
0.860104
0.792997
0.727847
0.663332
0.598383
0.532141
0.463919
0.393161
0.319383
0.242058
0.159259
0.0725801
0.0187391
0.00370647
0.00123438
0.000907736
0.000869923
0.000864995
0.000860339
0.000860278
0.000862339
0.000861729
0.000860576
0.000858535
0.000857868
1.15674
1.06664
0.986765
0.914304
0.846981
0.782923
0.720595
0.658748
0.596372
0.532661
0.466972
0.398756
0.327575
0.252911
0.173324
0.0874795
0.0264235
0.00572462
0.00160024
0.000970695
0.000883372
0.00087338
0.00087391
0.000872484
0.000868205
0.000868692
0.000870555
0.000871079
0.00086882
1.12633
1.04117
0.965633
0.897025
0.833162
0.77226
0.712866
0.653801
0.594118
0.533042
0.469834
0.404456
0.336044
0.264196
0.187891
0.104466
0.0363859
0.00848157
0.00216953
0.00107186
0.000908198
0.000881462
0.000877847
0.000879286
0.00088
0.000876983
0.000874913
0.000875119
0.000876847
1.09478
1.01465
0.94355
0.878884
0.818573
0.760924
0.704566
0.648393
0.59151
0.533173
0.472717
0.410161
0.344718
0.275902
0.202958
0.122723
0.0498973
0.0136085
0.00336943
0.00129286
0.000948277
0.000897138
0.000888918
0.000884324
0.000883233
0.000885231
0.000884269
0.00088218
0.000881429
1.0621
0.987069
0.920472
0.859816
0.803127
0.74881
0.695574
0.642386
0.58841
0.532962
0.475502
0.415799
0.353379
0.287751
0.21828
0.142263
0.0663958
0.0202251
0.00513695
0.0016927
0.00102823
0.00091531
0.000895423
0.000895905
0.000891943
0.000888775
0.000889763
0.000889001
0.000890178
1.02831
0.958407
0.896347
0.839739
0.786721
0.735791
0.685745
0.635621
0.58465
0.532225
0.477905
0.421139
0.361787
0.299391
0.233377
0.161603
0.0858386
0.0311386
0.00865528
0.00254103
0.00120181
0.000955142
0.000907534
0.00089942
0.000902332
0.000899265
0.000894674
0.000895421
0.000894526
0.99341
0.928641
0.871122
0.818575
0.76925
0.721744
0.674937
0.627939
0.580045
0.530696
0.479462
0.426136
0.369723
0.310511
0.247935
0.180451
0.106553
0.0444247
0.0135629
0.00391743
0.00154158
0.00103021
0.00093606
0.000909146
0.000905451
0.000907976
0.000906006
0.000901245
0.00090257
0.957426
0.897751
0.844746
0.796246
0.750615
0.70655
0.663013
0.619187
0.574427
0.528221
0.480167
0.429816
0.377066
0.321232
0.262111
0.198765
0.128883
0.0621192
0.0217259
0.0065186
0.00222564
0.0011914
0.000972813
0.000933508
0.000915494
0.000912008
0.000914929
0.000913089
0.00090846
0.920366
0.865715
0.817169
0.772674
0.730714
0.690082
0.649828
0.6092
0.567602
0.524545
0.479572
0.432007
0.382888
0.330817
0.275452
0.216198
0.150873
0.0833317
0.0337239
0.010955
0.00356107
0.00153848
0.00105596
0.00095421
0.00093774
0.000924687
0.00092041
0.000923688
0.000920725
0.882243
0.832513
0.788338
0.74778
0.709441
0.672215
0.635231
0.597805
0.559391
0.519535
0.477837
0.433982
0.388017
0.339207
0.287541
0.232364
0.172024
0.106202
0.0497796
0.018111
0.00590516
0.0022282
0.00123859
0.0010018
0.000951211
0.000944731
0.000935576
0.000930383
0.000933038
0.843073
0.798131
0.758211
0.721494
0.686701
0.652827
0.619082
0.584843
0.549615
0.512996
0.474665
0.434457
0.391671
0.346534
0.298451
0.247114
0.191474
0.129788
0.0693938
0.0286442
0.0101198
0.00361394
0.00163756
0.00110943
0.000983591
0.000955905
0.000953326
0.000948139
0.000941529
0.802879
0.762563
0.726754
0.693756
0.662411
0.631813
0.601248
0.570158
0.538092
0.50468
0.469602
0.43254
0.392838
0.351452
0.307283
0.259956
0.20879
0.152143
0.0921703
0.0433944
0.0167471
0.00598469
0.00242091
0.00134548
0.00105279
0.000985171
0.000965796
0.000963957
0.000960677
0.761702
0.72582
0.693952
0.664526
0.636507
0.609084
0.581621
0.553618
0.524667
0.494429
0.462603
0.428897
0.393033
0.355025
0.314449
0.270973
0.224038
0.172344
0.11562
0.0625838
0.0270516
0.0103211
0.00392744
0.00183718
0.00120599
0.00103304
0.000997163
0.000979206
0.000974776
0.719599
0.687935
0.659812
0.633788
0.608949
0.584579
0.560117
0.535115
0.509209
0.48209
0.453484
0.423141
0.390829
0.355613
0.318977
0.279505
0.236825
0.190038
0.137888
0.0843129
0.0416231
0.0172233
0.00674294
0.00282214
0.00153383
0.00113898
0.00103113
0.00101366
0.000994481
0.676656
0.648969
0.624373
0.60156
0.579735
0.558274
0.536687
0.514579
0.491623
0.467539
0.442073
0.41499
0.386042
0.354765
0.321337
0.285651
0.247014
0.204832
0.157887
0.106759
0.0599303
0.0278747
0.0114472
0.00474737
0.00221586
0.00137243
0.00110955
0.00103952
0.00103153
0.632986
0.609015
0.58771
0.567898
0.548902
0.530188
0.511331
0.491985
0.471861
0.450703
0.428278
0.404363
0.378752
0.35129
0.320927
0.28895
0.254364
0.216528
0.174633
0.128046
0.0805979
0.0423858
0.0191968
0.00797038
0.00353177
0.00185743
0.00128457
0.00110129
0.00105416
0.588739
0.568205
0.549937
0.532904
0.516538
0.500392
0.484101
0.467368
0.449935
0.43157
0.412059
0.391193
0.368769
0.344589
0.318264
0.28909
0.258484
0.224978
0.18785
0.146292
0.101544
0.0600419
0.0302163
0.0136528
0.0058558
0.00279777
0.0016471
0.00124055
0.00110782
0.544097
0.526706
0.511214
0.496725
0.482782
0.469013
0.455113
0.440825
0.425922
0.410196
0.393448
0.375485
0.356113
0.335134
0.312304
0.287143
0.259436
0.229944
0.197373
0.160872
0.1203
0.0793205
0.0447273
0.0220624
0.0101206
0.00456411
0.0023732
0.00153114
0.00122529
0.499274
0.484726
0.47174
0.459561
0.447826
0.436238
0.424543
0.412521
0.399973
0.386711
0.372554
0.357323
0.340836
0.322908
0.303349
0.281976
0.257885
0.231417
0.203058
0.171367
0.13583
0.0975117
0.0617616
0.0338243
0.0166893
0.00781571
0.00376026
0.00214229
0.00146648
0.454511
0.442502
0.431758
0.421653
0.411914
0.402309
0.392628
0.382686
0.372306
0.361321
0.349565
0.336873
0.323077
0.308006
0.291481
0.273285
0.253229
0.230247
0.204999
0.177767
0.147191
0.113303
0.0786113
0.048462
0.026238
0.0130766
0.00628015
0.00321303
0.00196103
0.410071
0.400302
0.39154
0.383281
0.375333
0.367515
0.35966
0.351608
0.343205
0.3343
0.324742
0.314379
0.303059
0.290624
0.27691
0.261727
0.244832
0.226073
0.204109
0.180442
0.154333
0.125123
0.0939478
0.0636732
0.0386475
0.0210731
0.010552
0.00520107
0.00280653
0.36623
0.358414
0.351386
0.344757
0.3384
0.332183
0.325969
0.319621
0.313002
0.305975
0.298404
0.29015
0.281073
0.271036
0.259891
0.247475
0.233589
0.218045
0.200424
0.179364
0.157399
0.132647
0.105704
0.0780411
0.0523882
0.0314657
0.0175043
0.00885054
0.00443109
0.323272
0.317136
0.311609
0.306407
0.301458
0.296664
0.291914
0.287088
0.282061
0.276709
0.27091
0.264536
0.257462
0.249568
0.24073
0.230805
0.219634
0.207025
0.192859
0.176374
0.156497
0.136023
0.113392
0.0894736
0.0655406
0.0441364
0.0265701
0.0149539
0.00758137
0.28148
0.276768
0.272527
0.268565
0.264853
0.261319
0.257867
0.254386
0.250762
0.246884
0.242639
0.23791
0.232591
0.226575
0.219766
0.212034
0.203269
0.193276
0.181928
0.169278
0.153868
0.135269
0.116885
0.0969195
0.0766811
0.0562986
0.0380468
0.0233294
0.0127655
0.24113
0.237606
0.234448
0.23156
0.228932
0.226508
0.224194
0.221889
0.219483
0.216878
0.213966
0.210644
0.206824
0.202415
0.197346
0.191501
0.184805
0.177091
0.168271
0.158103
0.147042
0.132824
0.116082
0.100157
0.083556
0.0667792
0.0498616
0.0341693
0.0204514
0.202485
0.199926
0.197669
0.195707
0.194028
0.192576
0.191251
0.189954
0.188581
0.187047
0.185245
0.183089
0.180514
0.17744
0.173805
0.169538
0.164565
0.158769
0.15208
0.144339
0.135361
0.125965
0.113667
0.0991977
0.0861021
0.0729796
0.0594864
0.0460471
0.031357
0.165794
0.163985
0.162463
0.161307
0.160456
0.159851
0.159365
0.158911
0.158383
0.15772
0.156795
0.155565
0.153988
0.151979
0.149479
0.146473
0.142882
0.138627
0.133649
0.127938
0.121276
0.1139
0.106665
0.0964513
0.0850036
0.0744136
0.0638991
0.0543443
0.0414478
0.131292
0.130017
0.129086
0.128647
0.128515
0.128636
0.128828
0.129056
0.12918
0.129163
0.128905
0.12832
0.127501
0.126373
0.124726
0.122675
0.120329
0.116963
0.113529
0.109166
0.104629
0.098726
0.0945645
0.0879364
0.0808706
0.0718953
0.0661512
0.0600078
0.0549348
0.0992052
0.0982378
0.0977864
0.0980082
0.0984794
0.0992062
0.0998868
0.100677
0.101258
0.101745
0.101844
0.10179
0.101464
0.100867
0.0998177
0.0983817
0.0964061
0.0941464
0.0916991
0.0889512
0.085525
0.0802456
0.0755948
0.0679304
0.0629001
0.058464
0.05516
0.0520886
0.0494839
0.0697653
0.0688695
0.0688237
0.0696765
0.0706013
0.0719049
0.0728951
0.0739877
0.0748801
0.0757296
0.0759437
0.0761098
0.075816
0.0754925
0.0745302
0.0725111
0.0673372
0.0621663
0.0553806
0.0507555
0.0454886
0.0421132
0.0395364
0.0367587
0.0349311
0.0306857
0.0294515
0.0262748
0.0260334
0.0432596
0.0422013
0.0425418
0.0439878
0.0452778
0.0470144
0.0480626
0.0493046
0.0502883
0.0513144
0.0509924
0.0497128
0.0458073
0.0422732
0.0368189
0.0340625
0.0310045
0.030349
0.0277417
0.0271942
0.0268637
0.0289146
0.0308954
0.0350218
0.0374997
0.0426966
0.0435249
0.0466539
0.041114
0.0201539
0.0187985
0.0194635
0.0217341
0.0231149
0.0252318
0.0254915
0.0257402
0.0247999
0.023243
0.0203449
0.0193814
0.0197831
0.0198122
0.0208267
0.0235605
0.0276453
0.0326353
0.0391524
0.0466623
0.0546541
0.0647371
0.0732543
0.0862805
0.0934951
0.110266
0.114871
0.136699
0.122322
0.00521204
0.00453975
0.00504919
0.00668103
0.00781215
0.0082106
0.00889985
0.00917082
0.0103991
0.0116478
0.0148535
0.0185467
0.0230653
0.0289542
0.0362977
0.0446676
0.0539086
0.0639417
0.0747625
0.0872264
0.0996065
0.115126
0.128505
0.148422
0.161396
0.189063
0.198668
0.243379
0.234072
0.00153773
0.00162335
0.00196286
0.0027318
0.00541131
0.00622683
0.00985441
0.0114545
0.0155686
0.0203665
0.0261203
0.0331348
0.0403359
0.0491708
0.0590939
0.0703694
0.0821182
0.095232
0.108909
0.124874
0.140758
0.160505
0.178397
0.203735
0.222937
0.258494
0.277739
0.333009
0.334139
5.80604e-005
5.80604e-005
5.80605e-005
5.80605e-005
5.80605e-005
5.80605e-005
5.80605e-005
5.80605e-005
5.80605e-005
5.80605e-005
5.80606e-005
5.80606e-005
5.80606e-005
5.80606e-005
5.80606e-005
5.80606e-005
5.80606e-005
5.80607e-005
5.80607e-005
5.80607e-005
5.80607e-005
5.80607e-005
5.80607e-005
5.80608e-005
5.80608e-005
5.80608e-005
5.80608e-005
5.80609e-005
5.80609e-005
5.80609e-005
5.8061e-005
5.8061e-005
5.8061e-005
5.8061e-005
5.80611e-005
5.80611e-005
5.80611e-005
5.80611e-005
5.80612e-005
5.80612e-005
5.80612e-005
5.80612e-005
5.80612e-005
5.80612e-005
5.80612e-005
5.80613e-005
5.80613e-005
5.80613e-005
5.80613e-005
5.80613e-005
5.80613e-005
5.80613e-005
5.80613e-005
5.80613e-005
5.80613e-005
5.80613e-005
5.80613e-005
5.80613e-005
5.80614e-005
5.80614e-005
5.80614e-005
5.80614e-005
5.80614e-005
5.80614e-005
5.80614e-005
5.80614e-005
5.80614e-005
5.80614e-005
5.80614e-005
5.80615e-005
5.80615e-005
5.80615e-005
5.80615e-005
5.80615e-005
5.80615e-005
5.80615e-005
5.80615e-005
5.80615e-005
5.80615e-005
5.80615e-005
5.80615e-005
5.80615e-005
5.80615e-005
5.80615e-005
5.80615e-005
5.80615e-005
5.80615e-005
5.80615e-005
5.80615e-005
5.80615e-005
5.80615e-005
5.80615e-005
5.80615e-005
5.80615e-005
5.80616e-005
5.80616e-005
5.80616e-005
5.80616e-005
5.80616e-005
5.80616e-005
5.80616e-005
5.80617e-005
5.80617e-005
5.80617e-005
5.80617e-005
5.80617e-005
5.80617e-005
5.80617e-005
5.80618e-005
5.80618e-005
5.80618e-005
5.80618e-005
5.80618e-005
5.80617e-005
5.80617e-005
5.80617e-005
5.80616e-005
5.80616e-005
5.80616e-005
5.80616e-005
5.80617e-005
5.80617e-005
5.80617e-005
5.80617e-005
5.80617e-005
5.80617e-005
5.80617e-005
5.80617e-005
5.80617e-005
5.80617e-005
5.80619e-005
5.80618e-005
5.8062e-005
5.80621e-005
5.80621e-005
5.80623e-005
5.80623e-005
5.80632e-005
5.93284e-005
4.60769e-006
4.60776e-006
4.60781e-006
4.60785e-006
4.60788e-006
4.60791e-006
4.60794e-006
4.60796e-006
4.60798e-006
4.60801e-006
4.60803e-006
4.60806e-006
4.60809e-006
4.60812e-006
4.60816e-006
4.6082e-006
4.60823e-006
4.60827e-006
4.60831e-006
4.60835e-006
4.60839e-006
4.60844e-006
4.60848e-006
4.60854e-006
4.60859e-006
4.60865e-006
4.60871e-006
4.60877e-006
4.60883e-006
4.60889e-006
4.60896e-006
4.60903e-006
4.60909e-006
4.60916e-006
4.60923e-006
4.60929e-006
4.60935e-006
4.6094e-006
4.60945e-006
4.6095e-006
4.60955e-006
4.6096e-006
4.60964e-006
4.60968e-006
4.60972e-006
4.60976e-006
4.60979e-006
4.60983e-006
4.60986e-006
4.60989e-006
4.60991e-006
4.60994e-006
4.60996e-006
4.60999e-006
4.61001e-006
4.61003e-006
4.61005e-006
4.61008e-006
4.6101e-006
4.61013e-006
4.61016e-006
4.61019e-006
4.61023e-006
4.61026e-006
4.61029e-006
4.61032e-006
4.61035e-006
4.61037e-006
4.6104e-006
4.61043e-006
4.61045e-006
4.61047e-006
4.6105e-006
4.61052e-006
4.61054e-006
4.61056e-006
4.61058e-006
4.6106e-006
4.61062e-006
4.61063e-006
4.61065e-006
4.61066e-006
4.61067e-006
4.61067e-006
4.61068e-006
4.61068e-006
4.61068e-006
4.61068e-006
4.61068e-006
4.61069e-006
4.6107e-006
4.61072e-006
4.61074e-006
4.61077e-006
4.61079e-006
4.61083e-006
4.61086e-006
4.61089e-006
4.61092e-006
4.61096e-006
4.61099e-006
4.61102e-006
4.61106e-006
4.61109e-006
4.61112e-006
4.61115e-006
4.61118e-006
4.61121e-006
4.61123e-006
4.61125e-006
4.61126e-006
4.61124e-006
4.61119e-006
4.61113e-006
4.61106e-006
4.61098e-006
4.61091e-006
4.61085e-006
4.61084e-006
4.61086e-006
4.61089e-006
4.61091e-006
4.61091e-006
4.61093e-006
4.61089e-006
4.61095e-006
4.61085e-006
4.61095e-006
4.61096e-006
4.61089e-006
4.61125e-006
4.61113e-006
4.61139e-006
4.61187e-006
4.61148e-006
4.61211e-006
4.61721e-006
4.605e-006
4.7262e-006
7.2405e-007
7.24093e-007
7.24124e-007
7.24151e-007
7.24175e-007
7.24198e-007
7.24218e-007
7.24237e-007
7.24255e-007
7.24273e-007
7.2429e-007
7.24307e-007
7.24324e-007
7.24341e-007
7.2436e-007
7.24378e-007
7.24396e-007
7.24415e-007
7.24435e-007
7.24455e-007
7.24476e-007
7.24499e-007
7.24522e-007
7.24546e-007
7.24571e-007
7.24597e-007
7.24623e-007
7.24651e-007
7.24679e-007
7.24707e-007
7.24737e-007
7.24767e-007
7.24797e-007
7.24828e-007
7.2486e-007
7.24894e-007
7.24928e-007
7.24962e-007
7.24995e-007
7.25028e-007
7.25061e-007
7.25093e-007
7.25125e-007
7.25157e-007
7.25189e-007
7.25221e-007
7.25252e-007
7.25282e-007
7.25313e-007
7.25343e-007
7.25374e-007
7.25403e-007
7.25433e-007
7.25462e-007
7.25492e-007
7.2552e-007
7.25549e-007
7.25578e-007
7.25606e-007
7.25635e-007
7.25665e-007
7.25694e-007
7.25723e-007
7.25751e-007
7.25779e-007
7.25806e-007
7.25833e-007
7.25859e-007
7.25884e-007
7.25909e-007
7.25933e-007
7.25957e-007
7.2598e-007
7.26003e-007
7.26025e-007
7.26046e-007
7.26068e-007
7.26089e-007
7.26109e-007
7.26128e-007
7.26147e-007
7.26166e-007
7.26184e-007
7.26201e-007
7.26218e-007
7.26235e-007
7.26251e-007
7.26268e-007
7.2628e-007
7.26287e-007
7.26295e-007
7.26302e-007
7.26309e-007
7.26317e-007
7.26324e-007
7.26332e-007
7.26339e-007
7.26347e-007
7.26354e-007
7.2636e-007
7.26366e-007
7.2637e-007
7.26373e-007
7.26375e-007
7.26376e-007
7.26375e-007
7.26373e-007
7.26369e-007
7.26362e-007
7.26354e-007
7.26344e-007
7.26326e-007
7.26297e-007
7.26263e-007
7.26227e-007
7.26189e-007
7.2615e-007
7.26113e-007
7.26087e-007
7.2607e-007
7.26054e-007
7.26037e-007
7.26007e-007
7.2599e-007
7.25949e-007
7.2591e-007
7.2589e-007
7.25808e-007
7.2583e-007
7.25765e-007
7.25826e-007
7.25851e-007
7.25693e-007
7.25769e-007
7.28161e-007
7.27707e-007
6.13125e-007
8.67925e-007
0.000139012
2.12779e-007
2.12801e-007
2.12819e-007
2.12836e-007
2.12853e-007
2.12868e-007
2.12883e-007
2.12898e-007
2.12912e-007
2.12927e-007
2.12941e-007
2.12956e-007
2.1297e-007
2.12985e-007
2.13001e-007
2.13016e-007
2.13032e-007
2.13048e-007
2.13065e-007
2.13081e-007
2.13098e-007
2.13116e-007
2.13133e-007
2.13152e-007
2.1317e-007
2.13188e-007
2.13207e-007
2.13226e-007
2.13246e-007
2.13265e-007
2.13285e-007
2.13305e-007
2.13325e-007
2.13346e-007
2.13367e-007
2.13388e-007
2.1341e-007
2.13432e-007
2.13454e-007
2.13476e-007
2.13498e-007
2.1352e-007
2.13542e-007
2.13564e-007
2.13586e-007
2.13608e-007
2.1363e-007
2.13652e-007
2.13673e-007
2.13695e-007
2.13717e-007
2.13738e-007
2.1376e-007
2.13781e-007
2.13803e-007
2.13824e-007
2.13846e-007
2.13867e-007
2.13888e-007
2.13909e-007
2.13929e-007
2.13949e-007
2.13969e-007
2.13988e-007
2.14007e-007
2.14026e-007
2.14044e-007
2.14062e-007
2.14079e-007
2.14097e-007
2.14113e-007
2.1413e-007
2.14146e-007
2.14162e-007
2.14178e-007
2.14193e-007
2.14208e-007
2.14222e-007
2.14236e-007
2.1425e-007
2.14264e-007
2.14277e-007
2.1429e-007
2.14302e-007
2.14314e-007
2.14326e-007
2.14337e-007
2.14348e-007
2.14357e-007
2.14364e-007
2.1437e-007
2.14376e-007
2.14381e-007
2.14385e-007
2.14388e-007
2.14391e-007
2.14394e-007
2.14395e-007
2.14397e-007
2.14397e-007
2.14396e-007
2.14394e-007
2.14392e-007
2.14389e-007
2.14385e-007
2.14381e-007
2.14375e-007
2.14369e-007
2.14361e-007
2.14353e-007
2.14344e-007
2.14334e-007
2.14321e-007
2.14305e-007
2.14287e-007
2.14268e-007
2.14247e-007
2.14225e-007
2.14205e-007
2.14186e-007
2.14166e-007
2.14145e-007
2.14122e-007
2.14094e-007
2.14066e-007
2.14027e-007
2.13998e-007
2.13957e-007
2.13909e-007
2.13909e-007
2.1386e-007
2.13297e-007
2.1463e-007
2.17264e-007
1.88689e-007
1.92996e-007
5.33715e-006
0.000958058
0.0255133
1.05284e-007
1.05295e-007
1.05308e-007
1.05321e-007
1.05334e-007
1.05346e-007
1.05359e-007
1.05371e-007
1.05384e-007
1.05397e-007
1.05409e-007
1.05421e-007
1.05434e-007
1.05447e-007
1.0546e-007
1.05474e-007
1.05487e-007
1.055e-007
1.05514e-007
1.05528e-007
1.05542e-007
1.05556e-007
1.0557e-007
1.05585e-007
1.05599e-007
1.05614e-007
1.05629e-007
1.05645e-007
1.0566e-007
1.05676e-007
1.05691e-007
1.05707e-007
1.05723e-007
1.05738e-007
1.05754e-007
1.05771e-007
1.05787e-007
1.05803e-007
1.05819e-007
1.05835e-007
1.05851e-007
1.05868e-007
1.05884e-007
1.059e-007
1.05916e-007
1.05932e-007
1.05948e-007
1.05964e-007
1.0598e-007
1.05996e-007
1.06012e-007
1.06028e-007
1.06043e-007
1.06059e-007
1.06074e-007
1.0609e-007
1.06105e-007
1.0612e-007
1.06135e-007
1.06149e-007
1.06163e-007
1.06177e-007
1.0619e-007
1.06204e-007
1.06217e-007
1.0623e-007
1.06243e-007
1.06255e-007
1.06267e-007
1.06279e-007
1.06291e-007
1.06303e-007
1.06314e-007
1.06325e-007
1.06336e-007
1.06346e-007
1.06356e-007
1.06366e-007
1.06376e-007
1.06385e-007
1.06394e-007
1.06403e-007
1.06411e-007
1.06419e-007
1.06426e-007
1.06434e-007
1.06441e-007
1.06447e-007
1.06454e-007
1.06459e-007
1.06465e-007
1.06469e-007
1.06473e-007
1.06477e-007
1.0648e-007
1.06482e-007
1.06483e-007
1.06485e-007
1.06485e-007
1.06485e-007
1.06484e-007
1.06482e-007
1.0648e-007
1.06477e-007
1.06473e-007
1.0647e-007
1.06465e-007
1.0646e-007
1.06454e-007
1.06447e-007
1.0644e-007
1.06433e-007
1.06425e-007
1.06417e-007
1.06408e-007
1.06397e-007
1.06386e-007
1.06373e-007
1.0636e-007
1.06345e-007
1.0633e-007
1.06312e-007
1.06293e-007
1.06271e-007
1.06245e-007
1.0622e-007
1.06183e-007
1.06163e-007
1.06123e-007
1.06095e-007
1.06506e-007
1.10394e-007
1.03512e-007
8.76356e-008
2.82291e-007
1.63693e-005
0.00126541
0.0285357
0.154549
6.99584e-008
6.99833e-008
7.00044e-008
7.00222e-008
7.00374e-008
7.00568e-008
7.00752e-008
7.00929e-008
7.01113e-008
7.01299e-008
7.01493e-008
7.01692e-008
7.0189e-008
7.02091e-008
7.02296e-008
7.0251e-008
7.02727e-008
7.02948e-008
7.0317e-008
7.034e-008
7.03633e-008
7.03872e-008
7.04114e-008
7.04357e-008
7.04605e-008
7.04854e-008
7.05107e-008
7.05362e-008
7.0562e-008
7.05878e-008
7.06141e-008
7.06404e-008
7.06667e-008
7.06934e-008
7.07201e-008
7.0747e-008
7.07739e-008
7.08007e-008
7.08277e-008
7.08546e-008
7.08814e-008
7.0908e-008
7.09346e-008
7.0961e-008
7.09876e-008
7.10138e-008
7.104e-008
7.1066e-008
7.10918e-008
7.11174e-008
7.11428e-008
7.1168e-008
7.11928e-008
7.12176e-008
7.12419e-008
7.12662e-008
7.12901e-008
7.13136e-008
7.13368e-008
7.13595e-008
7.1382e-008
7.14041e-008
7.1426e-008
7.14476e-008
7.14688e-008
7.14897e-008
7.15102e-008
7.15303e-008
7.15498e-008
7.15693e-008
7.15882e-008
7.16067e-008
7.1625e-008
7.16427e-008
7.166e-008
7.16768e-008
7.16929e-008
7.17092e-008
7.17249e-008
7.17401e-008
7.17548e-008
7.17691e-008
7.17827e-008
7.17962e-008
7.18092e-008
7.18215e-008
7.18334e-008
7.18445e-008
7.18555e-008
7.18663e-008
7.18767e-008
7.18866e-008
7.18957e-008
7.19045e-008
7.19126e-008
7.192e-008
7.19267e-008
7.19326e-008
7.19378e-008
7.19425e-008
7.1946e-008
7.19491e-008
7.19515e-008
7.1953e-008
7.19539e-008
7.19538e-008
7.19534e-008
7.19523e-008
7.19503e-008
7.19473e-008
7.19432e-008
7.19388e-008
7.19344e-008
7.19298e-008
7.19243e-008
7.19178e-008
7.19102e-008
7.19017e-008
7.18918e-008
7.18802e-008
7.18677e-008
7.18521e-008
7.18364e-008
7.18149e-008
7.17934e-008
7.17681e-008
7.17369e-008
7.171e-008
7.16979e-008
7.16945e-008
7.05756e-008
5.24328e-008
7.38275e-008
6.91384e-007
5.52267e-005
0.00267543
0.0416431
0.190814
0.443779
4.72338e-008
4.72546e-008
4.72709e-008
4.72809e-008
4.7296e-008
4.73135e-008
4.7326e-008
4.73395e-008
4.73531e-008
4.73679e-008
4.73828e-008
4.73982e-008
4.74137e-008
4.74295e-008
4.74468e-008
4.74636e-008
4.74811e-008
4.7499e-008
4.75182e-008
4.75371e-008
4.75567e-008
4.75766e-008
4.75966e-008
4.76172e-008
4.76381e-008
4.76592e-008
4.76805e-008
4.77018e-008
4.77236e-008
4.77458e-008
4.7768e-008
4.77903e-008
4.78132e-008
4.78358e-008
4.78588e-008
4.78819e-008
4.79051e-008
4.79288e-008
4.79522e-008
4.79754e-008
4.79989e-008
4.80226e-008
4.80459e-008
4.80694e-008
4.80927e-008
4.81159e-008
4.81389e-008
4.8162e-008
4.8185e-008
4.8208e-008
4.82307e-008
4.82532e-008
4.82757e-008
4.82979e-008
4.83203e-008
4.8342e-008
4.83633e-008