/*--------------------------------*- C++ -*----------------------------------*\
| =========                 |                                                 |
| \\      /  F ield         | OpenFOAM: The Open Source CFD Toolbox           |
|  \\    /   O peration     | Version:  5.x                                   |
|   \\  /    A nd           | Web:      www.OpenFOAM.org                      |
|    \\/     M anipulation  |                                                 |
\*---------------------------------------------------------------------------*/
/*   Windows 32 and 64 bit porting by blueCAPE: http://www.bluecape.com.pt   *\
|  Based on Windows porting (2.0.x v4) by Symscape: http://www.symscape.com   |
\*---------------------------------------------------------------------------*/
FoamFile
{
    version     2.0;
    format      ascii;
    class       volScalarField;
    location    "160";
    object      p;
}
// * * * * * * * * * * * * * * * * * * * * * * * * * * * * * * * * * * * * * //

dimensions      [0 2 -2 0 0 0 0];

internalField   nonuniform List<scalar> 
43900
(
0.398349
0.397995
0.397963
0.397833
0.397644
0.397401
0.397211
0.396868
0.39662
0.396307
0.395984
0.395659
0.395317
0.394962
0.394599
0.394227
0.393847
0.393458
0.393063
0.39266
0.392252
0.391837
0.391417
0.390992
0.390562
0.390127
0.389687
0.389243
0.388795
0.396229
0.404195
0.398151
0.40137
0.398927
0.399669
0.398783
0.398605
0.398188
0.397762
0.397364
0.396939
0.396515
0.396092
0.395667
0.39524
0.39481
0.394378
0.393942
0.393504
0.393062
0.392618
0.39217
0.39172
0.391266
0.390809
0.390349
0.389886
0.38942
0.389379
0.411087
0.399927
0.406267
0.401085
0.403729
0.40132
0.401696
0.40062
0.400217
0.399661
0.399125
0.39861
0.398106
0.397607
0.397114
0.396625
0.39614
0.395657
0.395176
0.394695
0.394215
0.393734
0.393252
0.392769
0.392285
0.391798
0.39131
0.39082
0.384575
0.411933
0.405301
0.405142
0.404788
0.404322
0.403187
0.403219
0.402396
0.402064
0.401508
0.401006
0.400508
0.400009
0.399509
0.399009
0.398511
0.398013
0.397516
0.397019
0.396521
0.396022
0.395523
0.395021
0.394518
0.394013
0.393505
0.392995
0.392482
0.386577
0.410075
0.405086
0.404512
0.404538
0.404142
0.403963
0.403717
0.403201
0.402904
0.402463
0.402053
0.401631
0.401192
0.400741
0.400281
0.399812
0.399334
0.39885
0.398359
0.397861
0.397358
0.396851
0.396338
0.39582
0.395298
0.394772
0.394241
0.393706
0.390989
0.408739
0.40569
0.405433
0.405367
0.404962
0.40474
0.404501
0.404268
0.404011
0.403654
0.403318
0.402958
0.402581
0.402191
0.401786
0.401366
0.400932
0.400485
0.400024
0.399551
0.399067
0.398571
0.398065
0.397549
0.397024
0.396489
0.395946
0.395394
0.397318
0.410468
0.408725
0.408226
0.408181
0.408041
0.407738
0.407319
0.407034
0.406792
0.406487
0.406166
0.40583
0.40548
0.405116
0.404737
0.404345
0.403938
0.403517
0.403081
0.402631
0.402167
0.401688
0.401195
0.400689
0.400169
0.399636
0.39909
0.398531
0.403184
0.414421
0.413188
0.412621
0.41249
0.412383
0.412198
0.411879
0.411511
0.411173
0.410874
0.410565
0.410222
0.409864
0.409492
0.409106
0.408703
0.408286
0.407853
0.407404
0.40694
0.40646
0.405965
0.405453
0.404927
0.404386
0.403829
0.403258
0.402673
0.410813
0.419356
0.418649
0.418079
0.417844
0.41767
0.417458
0.417192
0.416845
0.416393
0.415966
0.415597
0.415222
0.414821
0.414404
0.413973
0.413524
0.413055
0.41257
0.412065
0.411543
0.411004
0.410444
0.409871
0.409278
0.408668
0.408044
0.407402
0.406744
0.420219
0.42555
0.425208
0.424641
0.424292
0.424009
0.423703
0.423361
0.422975
0.422527
0.422002
0.421483
0.420999
0.420517
0.420018
0.419506
0.418975
0.418423
0.417846
0.417254
0.416643
0.416007
0.415356
0.414684
0.413994
0.413286
0.412555
0.411812
0.411051
0.429139
0.433646
0.43337
0.432769
0.432347
0.431986
0.431602
0.431181
0.430723
0.430223
0.42967
0.429064
0.42846
0.427883
0.427316
0.426739
0.426141
0.425502
0.42484
0.424166
0.423455
0.42272
0.421963
0.421188
0.420388
0.419552
0.418715
0.417847
0.416952
0.439629
0.443071
0.442831
0.442231
0.441765
0.44135
0.440914
0.44044
0.439929
0.439381
0.43879
0.438152
0.437483
0.43682
0.436187
0.435571
0.434915
0.434223
0.433509
0.432753
0.431969
0.43114
0.4303
0.429427
0.428503
0.427579
0.426611
0.425612
0.424607
0.451282
0.453643
0.453396
0.452805
0.452298
0.451823
0.45132
0.450775
0.450187
0.449553
0.44887
0.448135
0.447358
0.446569
0.445805
0.445074
0.444331
0.443557
0.442742
0.441893
0.440992
0.44008
0.439124
0.438114
0.437101
0.436029
0.43493
0.433821
0.432658
0.463895
0.465444
0.465147
0.464546
0.463991
0.463447
0.462864
0.462227
0.461534
0.460783
0.459971
0.459091
0.458144
0.457161
0.456198
0.455281
0.454371
0.453445
0.452477
0.451448
0.450413
0.449314
0.448169
0.447023
0.445799
0.444551
0.443288
0.441966
0.440622
0.477479
0.47849
0.478121
0.47749
0.476877
0.476258
0.475591
0.474859
0.474059
0.473185
0.472234
0.471199
0.47008
0.4689
0.467706
0.466565
0.465487
0.464363
0.463187
0.461992
0.46072
0.459406
0.45808
0.456674
0.455237
0.453774
0.45225
0.450704
0.449115
0.492018
0.49272
0.492281
0.491601
0.490922
0.490224
0.489467
0.488636
0.487724
0.486725
0.485634
0.484445
0.483153
0.481779
0.480389
0.479038
0.477743
0.476435
0.475078
0.473653
0.472177
0.470657
0.469073
0.467446
0.465772
0.46404
0.462277
0.460462
0.458614
0.507492
0.50804
0.507534
0.506795
0.506045
0.50526
0.504406
0.503468
0.502436
0.501304
0.500068
0.49872
0.497253
0.495671
0.494032
0.49247
0.490963
0.489444
0.487878
0.486236
0.484523
0.482772
0.480943
0.479045
0.477124
0.475126
0.47307
0.471002
0.468837
0.523886
0.524379
0.52381
0.523
0.522168
0.521291
0.520331
0.519269
0.518098
0.51681
0.515398
0.513849
0.512158
0.510339
0.508479
0.506619
0.504843
0.503109
0.501296
0.49935
0.497417
0.495349
0.493181
0.491089
0.488809
0.486475
0.484185
0.481725
0.479252
0.541131
0.541641
0.541011
0.540116
0.53919
0.538207
0.537125
0.535924
0.534594
0.533126
0.531514
0.529751
0.527834
0.52576
0.523582
0.521415
0.519418
0.517358
0.515152
0.513024
0.510692
0.50825
0.505945
0.503347
0.500718
0.498178
0.495401
0.492611
0.489839
0.559194
0.559767
0.559076
0.558087
0.55706
0.555965
0.554755
0.553408
0.551914
0.550262
0.548447
0.546458
0.54428
0.541917
0.539427
0.536976
0.534501
0.532087
0.529744
0.527096
0.524411
0.521807
0.518911
0.51599
0.5131
0.510003
0.506879
0.503748
0.500465
0.577991
0.578659
0.577907
0.57682
0.575686
0.574473
0.573127
0.571625
0.569952
0.568097
0.56605
0.563801
0.561338
0.558649
0.555789
0.552902
0.5502
0.547508
0.544584
0.541662
0.538704
0.535542
0.532287
0.52897
0.525572
0.522143
0.518593
0.514918
0.511217
0.597387
0.598176
0.597361
0.596168
0.59492
0.59358
0.592087
0.590415
0.588548
0.586474
0.584181
0.581658
0.578896
0.575903
0.572731
0.569535
0.566357
0.563156
0.559964
0.556594
0.553136
0.54958
0.545887
0.542183
0.538367
0.534403
0.530353
0.526251
0.522129
0.617272
0.618198
0.617321
0.616022
0.61466
0.613191
0.611552
0.60971
0.607649
0.605357
0.602822
0.600033
0.596977
0.59364
0.590069
0.586303
0.582735
0.579203
0.575464
0.57169
0.567818
0.563775
0.559678
0.555363
0.550966
0.546575
0.542002
0.537369
0.532604
0.637486
0.638558
0.637622
0.636217
0.63474
0.633144
0.631355
0.629339
0.62708
0.62456
0.621767
0.618686
0.6153
0.611601
0.607614
0.603545
0.599373
0.595254
0.591176
0.586867
0.582448
0.577922
0.573209
0.568456
0.56355
0.558505
0.553394
0.548164
0.542846
0.65786
0.659089
0.658097
0.656591
0.655005
0.653285
0.65135
0.649164
0.646707
0.64396
0.640907
0.637533
0.633819
0.62974
0.625309
0.620653
0.616073
0.611444
0.606769
0.602052
0.597071
0.591951
0.586769
0.581354
0.575867
0.570272
0.564553
0.558759
0.552875
0.678207
0.6796
0.678555
0.676951
0.675258
0.673416
0.671336
0.668978
0.666319
0.663339
0.660019
0.65634
0.652283
0.647841
0.643027
0.637948
0.632713
0.627638
0.622488
0.617003
0.611481
0.605807
0.599955
0.594022
0.587796
0.581513
0.575234
0.568719
0.562014
0.698357
0.699913
0.698822
0.697131
0.695344
0.693392
0.69118
0.688664
0.68582
0.682625
0.679057
0.675099
0.670728
0.665915
0.660664
0.655096
0.649414
0.64356
0.637727
0.631874
0.62573
0.619321
0.612789
0.606115
0.599346
0.592435
0.585297
0.577973
0.570794
0.718121
0.719837
0.718707
0.71694
0.71507
0.71302
0.710688
0.708028
0.705013
0.701616
0.697813
0.693585
0.688912
0.683772
0.678132
0.672027
0.665667
0.659402
0.652939
0.64619
0.639397
0.632441
0.625316
0.617961
0.610307
0.602598
0.594869
0.586968
0.578859
0.73733
0.739197
0.738037
0.736207
0.734269
0.732136
0.729701
0.726913
0.723744
0.720163
0.716146
0.711668
0.706699
0.701209
0.695186
0.688668
0.681781
0.674602
0.667531
0.66043
0.652874
0.645157
0.63717
0.62903
0.620884
0.612383
0.603595
0.594787
0.585905
0.75582
0.757825
0.756643
0.754766
0.752773
0.750573
0.748049
0.745151
0.741845
0.738099
0.733885
0.729173
0.723935
0.718135
0.711723
0.704726
0.697345
0.68975
0.6819
0.673876
0.665722
0.657221
0.648503
0.639601
0.630466
0.62117
0.611622
0.601984
0.592151
0.773454
0.775578
0.774381
0.772472
0.770442
0.76819
0.765596
0.762606
0.759185
0.755299
0.750914
0.745997
0.740516
0.734435
0.727722
0.720361
0.712441
0.704134
0.695631
0.686917
0.677908
0.668729
0.659214
0.649466
0.639517
0.629227
0.6188
0.608116
0.597361
0.790117
0.792337
0.791134
0.789209
0.787158
0.784871
0.782225
0.779166
0.775655
0.771655
0.76713
0.762043
0.756359
0.750039
0.743032
0.735307
0.727
0.718093
0.708732
0.699358
0.689699
0.679543
0.669166
0.658486
0.647586
0.636458
0.625031
0.613428
0.601633
0.805722
0.808008
0.806807
0.804881
0.802824
0.800518
0.797838
0.794728
0.791149
0.78706
0.78242
0.777185
0.77132
0.764789
0.757544
0.749504
0.740641
0.731352
0.721495
0.711149
0.700641
0.689745
0.678439
0.66688
0.654837
0.642615
0.630285
0.61755
0.604584
0.820209
0.82253
0.821336
0.819424
0.817375
0.815065
0.812367
0.809226
0.8056
0.801445
0.796713
0.791363
0.785354
0.778639
0.771171
0.762909
0.753752
0.743827
0.733418
0.722311
0.710818
0.699092
0.686894
0.67422
0.661265
0.647865
0.634266
0.620523
0.60647
0.833546
0.835869
0.834685
0.8328
0.830771
0.828469
0.825767
0.822609
0.818953
0.81475
0.809952
0.804515
0.798389
0.791522
0.783858
0.77534
0.76591
0.75558
0.744438
0.732665
0.720303
0.707585
0.694412
0.680761
0.666652
0.652299
0.637455
0.622336
0.607091
0.845728
0.848016
0.846848
0.845
0.843002
0.840717
0.838023
0.834863
0.831193
0.826962
0.82212
0.816615
0.81039
0.803391
0.795561
0.786829
0.777125
0.766415
0.75486
0.742484
0.72931
0.71548
0.70123
0.686452
0.671207
0.655543
0.639451
0.622934
0.606227
0.856771
0.85899
0.857841
0.85604
0.854081
0.851823
0.849147
0.845998
0.84233
0.838089
0.833222
0.827667
0.821366
0.814264
0.806298
0.797394
0.78748
0.776502
0.764408
0.75149
0.737595
0.722763
0.707257
0.691226
0.67472
0.657723
0.640196
0.622316
0.604089
0.866713
0.868828
0.8677
0.865955
0.864042
0.861818
0.85917
0.856043
0.852388
0.848151
0.843273
0.83769
0.831341
0.824159
0.816076
0.807016
0.796891
0.78563
0.773194
0.759501
0.744894
0.729298
0.712687
0.695385
0.677452
0.658874
0.639883
0.620338
0.600394
0.875606
0.877585
0.876481
0.874798
0.872936
0.870753
0.86814
0.865045
0.861416
0.857196
0.852324
0.846732
0.840348
0.8331
0.824913
0.81571
0.805395
0.793872
0.781041
0.767013
0.751553
0.735091
0.717474
0.698689
0.679286
0.659075
0.638256
0.61705
0.595173
0.883511
0.885328
0.884249
0.882634
0.880828
0.878691
0.876122
0.873068
0.869477
0.865288
0.860435
0.854847
0.848445
0.841151
0.83288
0.823541
0.81304
0.80128
0.788146
0.773551
0.757644
0.739984
0.721221
0.70131
0.680194
0.65833
0.635553
0.612257
0.588596
0.890499
0.892131
0.89108
0.889537
0.887792
0.885706
0.883188
0.880185
0.876642
0.872497
0.867679
0.862111
0.855709
0.848384
0.840041
0.83058
0.819894
0.807863
0.794389
0.779325
0.762619
0.744374
0.724316
0.703051
0.680367
0.656508
0.631786
0.606249
0.580278
0.896644
0.898073
0.897054
0.895586
0.893904
0.891876
0.889416
0.886473
0.882992
0.878904
0.874136
0.868604
0.862218
0.854878
0.846478
0.836906
0.826041
0.813747
0.79989
0.784361
0.76704
0.747856
0.726906
0.704054
0.679547
0.653654
0.626716
0.598878
0.570235
0.902021
0.903236
0.902251
0.900862
0.899247
0.89728
0.894887
0.892015
0.888605
0.884589
0.879886
0.874408
0.868055
0.860717
0.852277
0.842608
0.831576
0.819029
0.804806
0.788779
0.770753
0.750808
0.728513
0.704256
0.677891
0.649784
0.620447
0.589827
0.558373
0.906705
0.907698
0.906753
0.905444
0.903897
0.901999
0.899679
0.896888
0.893563
0.889632
0.88501
0.879603
0.873301
0.865986
0.857526
0.847777
0.836588
0.823793
0.809196
0.79266
0.773922
0.75293
0.729658
0.703594
0.675498
0.645023
0.612738
0.579229
0.544439
0.910765
0.911536
0.910635
0.909408
0.907933
0.906108
0.90387
0.901168
0.897939
0.894107
0.889583
0.884265
0.878035
0.870763
0.862304
0.852498
0.841168
0.828131
0.81317
0.79607
0.776666
0.754572
0.730024
0.702508
0.672131
0.639294
0.60388
0.56673
0.528635
0.914269
0.914823
0.913972
0.912827
0.911426
0.909678
0.907528
0.904925
0.901804
0.898084
0.893673
0.88846
0.882322
0.875116
0.866683
0.856842
0.845397
0.832132
0.816826
0.799178
0.779012
0.755944
0.729864
0.700653
0.668093
0.632272
0.593735
0.552666
0.510254
0.91728
0.917624
0.91683
0.915766
0.91444
0.912774
0.91072
0.908224
0.905219
0.901623
0.897338
0.892249
0.88622
0.8791
0.870717
0.86087
0.849341
0.835877
0.820231
0.80208
0.781131
0.757025
0.729461
0.698206
0.663231
0.624384
0.581966
0.536748
0.4895
0.919853
0.920001
0.919271
0.918287
0.917037
0.915457
0.913503
0.91112
0.90824
0.904777
0.900632
0.895678
0.889775
0.882761
0.874454
0.864628
0.853045
0.839421
0.823463
0.804821
0.783127
0.757964
0.728866
0.695529
0.657734
0.615454
0.56892
0.518533
0.465852
0.922039
0.922011
0.921352
0.920443
0.919269
0.917777
0.915929
0.913664
0.910916
0.907592
0.903598
0.898791
0.893025
0.886134
0.877925
0.868147
0.856546
0.842799
0.82658
0.807473
0.785063
0.758847
0.728285
0.692699
0.65199
0.605651
0.554197
0.498221
0.438798
0.923882
0.923704
0.92312
0.922281
0.921185
0.919781
0.918043
0.9159
0.913288
0.910107
0.906273
0.901618
0.896
0.889243
0.881153
0.871447
0.859864
0.84603
0.829614
0.810093
0.78704
0.759762
0.727771
0.690002
0.646077
0.595477
0.538145
0.475255
0.408299
0.925421
0.925125
0.924622
0.923843
0.922824
0.921508
0.919884
0.917863
0.915391
0.912353
0.908687
0.904186
0.898721
0.892106
0.884155
0.874535
0.863007
0.849114
0.83257
0.812694
0.789112
0.760842
0.727429
0.687502
0.640413
0.585069
0.521376
0.449923
0.373428
0.926692
0.926315
0.925893
0.925162
0.924223
0.922993
0.921488
0.919588
0.917257
0.914356
0.910866
0.906516
0.901205
0.894732
0.886934
0.877411
0.865969
0.852041
0.835428
0.815261
0.79126
0.762147
0.727458
0.685379
0.6352
0.574896
0.504125
0.422639
0.334102
0.927723
0.927316
0.926964
0.926267
0.925415
0.924267
0.922884
0.921101
0.91891
0.916137
0.912828
0.908622
0.903462
0.897126
0.889489
0.880072
0.868751
0.854823
0.838204
0.817811
0.793503
0.763701
0.728009
0.683983
0.630925
0.565476
0.487212
0.393847
0.29012
0.928544
0.928159
0.927859
0.927187
0.926426
0.925357
0.924099
0.922428
0.920372
0.917716
0.914589
0.91052
0.905516
0.899321
0.891854
0.882568
0.871437
0.857606
0.841118
0.820636
0.796204
0.765844
0.72943
0.683672
0.628194
0.557625
0.471648
0.364727
0.241909
0.929187
0.928867
0.928593
0.927944
0.927281
0.926292
0.925159
0.923597
0.921666
0.919127
0.916177
0.912266
0.907457
0.901456
0.894212
0.885109
0.874184
0.860506
0.844174
0.823757
0.799217
0.768536
0.731291
0.68425
0.626188
0.551241
0.456816
0.335239
0.188754
0.929684
0.929439
0.929177
0.928562
0.927995
0.927094
0.926079
0.924637
0.922833
0.920445
0.917671
0.913945
0.909327
0.903534
0.89646
0.887506
0.876547
0.8629
0.846279
0.825755
0.800597
0.769487
0.73095
0.682642
0.621594
0.542607
0.438845
0.299657
0.119933
0.930042
0.929837
0.929597
0.929047
0.928555
0.927771
0.926844
0.925527
0.923837
0.921611
0.918875
0.915262
0.910657
0.904875
0.89764
0.888587
0.877275
0.863443
0.84619
0.825288
0.799136
0.767307
0.727104
0.677212
0.612972
0.529489
0.416635
0.25673
0.0268086
0.930233
0.930033
0.929798
0.929388
0.928903
0.92826
0.92733
0.926088
0.92444
0.922264
0.919411
0.915718
0.910923
0.904957
0.897356
0.887986
0.87621
0.861991
0.844093
0.822565
0.795481
0.762636
0.721001
0.669139
0.6022
0.513798
0.394534
0.218708
-0.0661436
0.930309
0.930083
0.929874
0.929474
0.928994
0.928326
0.927329
0.926052
0.924196
0.92185
0.918685
0.914827
0.909758
0.903441
0.895437
0.885749
0.873574
0.859004
0.840501
0.818548
0.790515
0.757265
0.713965
0.661881
0.591381
0.502907
0.376663
0.207058
0.00295912
0.388263
0.387643
0.387016
0.386383
0.385745
0.385101
0.384451
0.383796
0.383137
0.382473
0.381805
0.381133
0.380457
0.379777
0.379094
0.378407
0.377718
0.377025
0.37633
0.375632
0.374932
0.37423
0.373526
0.37282
0.372112
0.371403
0.370693
0.369982
0.36927
0.368557
0.367844
0.36713
0.366417
0.365704
0.364991
0.364279
0.363567
0.362856
0.362147
0.361439
0.360732
0.360027
0.359325
0.358624
0.357926
0.357231
0.356539
0.355849
0.355163
0.354481
0.353803
0.353128
0.352458
0.351792
0.351131
0.350475
0.349825
0.349179
0.348539
0.347905
0.347277
0.346655
0.346039
0.345429
0.344827
0.344231
0.343642
0.343061
0.342487
0.34192
0.341361
0.340811
0.340268
0.339734
0.339208
0.33869
0.338182
0.337682
0.337191
0.33671
0.336237
0.335775
0.335321
0.334878
0.334444
0.33402
0.333606
0.333202
0.332809
0.332426
0.332054
0.331692
0.331341
0.331
0.330671
0.330352
0.330045
0.329748
0.329462
0.329187
0.328924
0.328671
0.328429
0.328199
0.327979
0.327771
0.327573
0.327386
0.32721
0.327044
0.326889
0.326743
0.326608
0.326483
0.326367
0.326261
0.326164
0.326075
0.325997
0.325927
0.325868
0.325817
0.325775
0.32574
0.325713
0.325694
0.325679
0.325675
0.325672
0.32568
0.32569
0.325708
0.325733
0.325761
0.325803
0.325839
0.325912
0.325936
0.32609
0.388868
0.388227
0.38758
0.386928
0.386271
0.385608
0.384941
0.384269
0.383592
0.38291
0.382223
0.381533
0.380837
0.380138
0.379435
0.378729
0.378018
0.377305
0.376588
0.375869
0.375146
0.374422
0.373695
0.372966
0.372235
0.371503
0.370769
0.370034
0.369298
0.368561
0.367824
0.367087
0.366349
0.365612
0.364875
0.364139
0.363404
0.36267
0.361938
0.361207
0.360478
0.359751
0.359027
0.358305
0.357586
0.35687
0.356157
0.355448
0.354742
0.35404
0.353343
0.352649
0.35196
0.351276
0.350597
0.349923
0.349254
0.348591
0.347934
0.347282
0.346637
0.345998
0.345365
0.34474
0.344121
0.34351
0.342906
0.342309
0.341721
0.34114
0.340567
0.340003
0.339446
0.338899
0.33836
0.33783
0.33731
0.336798
0.336296
0.335804
0.335321
0.334848
0.334385
0.333932
0.33349
0.333057
0.332636
0.332225
0.331825
0.331435
0.331056
0.330689
0.330332
0.329986
0.329651
0.329328
0.329016
0.328715
0.328426
0.328148
0.327882
0.327627
0.327384
0.327153
0.326933
0.326725
0.326529
0.326344
0.326171
0.326009
0.325859
0.325721
0.325595
0.32548
0.325377
0.325285
0.325206
0.325137
0.325079
0.325031
0.324992
0.324963
0.324941
0.324928
0.324922
0.324924
0.324932
0.324942
0.324967
0.324982
0.325009
0.32503
0.325059
0.325065
0.325115
0.325081
0.325089
0.325036
0.325011
0.39024
0.389568
0.388891
0.38821
0.387524
0.386833
0.386137
0.385436
0.38473
0.384019
0.383303
0.382583
0.381857
0.381127
0.380393
0.379654
0.378911
0.378164
0.377413
0.376658
0.3759
0.375139
0.374375
0.373608
0.372839
0.372068
0.371294
0.370519
0.369743
0.368966
0.368188
0.367409
0.36663
0.365851
0.365073
0.364295
0.363518
0.362742
0.361968
0.361195
0.360424
0.359656
0.358889
0.358126
0.357365
0.356608
0.355854
0.355104
0.354358
0.353616
0.352878
0.352145
0.351417
0.350694
0.349976
0.349264
0.348558
0.347858
0.347164
0.346476
0.345795
0.345121
0.344454
0.343795
0.343142
0.342498
0.341861
0.341233
0.340612
0.340001
0.339397
0.338803
0.338217
0.337641
0.337074
0.336517
0.335969
0.33543
0.334902
0.334384
0.333876
0.333379
0.332892
0.332415
0.331949
0.331494
0.33105
0.330616
0.330194
0.329783
0.329384
0.328995
0.328619
0.328254
0.327901
0.32756
0.327231
0.326914
0.326609
0.326317
0.326037
0.325769
0.325514
0.325272
0.325043
0.324827
0.324623
0.324433
0.324257
0.324094
0.323944
0.323809
0.323687
0.323579
0.323485
0.323405
0.32334
0.323287
0.323249
0.323225
0.323214
0.323218
0.323236
0.323264
0.323316
0.323364
0.323441
0.323526
0.323612
0.323721
0.323834
0.323949
0.324066
0.324226
0.324195
0.32463
0.324287
0.325335
0.324091
0.391875
0.39117
0.390459
0.389743
0.38902
0.388291
0.387557
0.386816
0.38607
0.385318
0.38456
0.383797
0.383028
0.382255
0.381477
0.380693
0.379905
0.379113
0.378317
0.377517
0.376713
0.375905
0.375094
0.374281
0.373464
0.372645
0.371823
0.370999
0.370174
0.369347
0.368519
0.36769
0.36686
0.366029
0.365199
0.364368
0.363538
0.362709
0.361881
0.361054
0.360228
0.359405
0.358583
0.357764
0.356948
0.356135
0.355325
0.354519
0.353716
0.352918
0.352125
0.351336
0.350553
0.349774
0.349002
0.348235
0.347475
0.346721
0.345973
0.345233
0.3445
0.343774
0.343056
0.342345
0.341643
0.340949
0.340263
0.339587
0.338919
0.33826
0.337611
0.336971
0.336341
0.33572
0.33511
0.33451
0.333921
0.333342
0.332774
0.332217
0.33167
0.331135
0.330612
0.3301
0.329599
0.329111
0.328634
0.32817
0.327717
0.327278
0.326851
0.326437
0.326036
0.325648
0.325274
0.324913
0.324565
0.324231
0.323912
0.323606
0.323314
0.323036
0.322773
0.322525
0.322291
0.322073
0.321869
0.321681
0.321508
0.321351
0.32121
0.321084
0.320975
0.320881
0.320804
0.320743
0.320698
0.320671
0.32066
0.320668
0.320693
0.320735
0.320803
0.320883
0.320988
0.321117
0.32126
0.321425
0.321641
0.321851
0.322067
0.322521
0.322315
0.323553
0.322325
0.32525
0.321954
0.328041
0.320361
0.39307
0.39233
0.391581
0.390823
0.390058
0.389285
0.388504
0.387714
0.386917
0.386112
0.385299
0.384479
0.383652
0.382818
0.381978
0.381131
0.380278
0.37942
0.378556
0.377688
0.376814
0.375937
0.375056
0.374171
0.373283
0.372392
0.371498
0.370602
0.369704
0.368804
0.367903
0.367001
0.366098
0.365195
0.364291
0.363389
0.362486
0.361585
0.360685
0.359787
0.358891
0.357997
0.357106
0.356218
0.355333
0.354452
0.353576
0.352703
0.351835
0.350972
0.350114
0.349262
0.348415
0.347575
0.346741
0.345913
0.345093
0.34428
0.343474
0.342676
0.341886
0.341104
0.340331
0.339566
0.338811
0.338065
0.337328
0.336601
0.335884
0.335178
0.334481
0.333795
0.33312
0.332456
0.331803
0.331162
0.330532
0.329913
0.329307
0.328713
0.328131
0.327562
0.327006
0.326463
0.325933
0.325416
0.324913
0.324424
0.323949
0.323488
0.323041
0.322609
0.322191
0.321788
0.321399
0.321026
0.320667
0.320324
0.319996
0.319684
0.319388
0.319108
0.318843
0.318595
0.318364
0.318148
0.31795
0.317768
0.317604
0.317457
0.317328
0.317216
0.317123
0.317048
0.316993
0.316957
0.316941
0.316945
0.316971
0.317018
0.31709
0.317181
0.317302
0.317451
0.31762
0.317828
0.318081
0.318345
0.318609
0.31918
0.31905
0.32059
0.319247
0.322982
0.318734
0.326531
0.316713
0.331556
0.308007
0.394735
0.393961
0.393174
0.392375
0.391564
0.39074
0.389905
0.389058
0.388202
0.387335
0.386457
0.385571
0.384675
0.38377
0.382858
0.381937
0.381009
0.380073
0.379131
0.378182
0.377226
0.376265
0.375297
0.374325
0.373348
0.372367
0.371382
0.370394
0.369403
0.36841
0.367416
0.36642
0.365424
0.364428
0.363432
0.362436
0.361442
0.360448
0.359457
0.358468
0.357482
0.356499
0.355519
0.354544
0.353572
0.352605
0.351644
0.350687
0.349736
0.348791
0.347852
0.34692
0.345994
0.345077
0.344166
0.343264
0.34237
0.341484
0.340607
0.33974
0.338881
0.338032
0.337194
0.336365
0.335546
0.334738
0.333941
0.333155
0.33238
0.331617
0.330866
0.330126
0.329398
0.328683
0.327981
0.327291
0.326613
0.325949
0.325299
0.324662
0.324038
0.323428
0.322832
0.32225
0.321682
0.321128
0.320589
0.320065
0.319555
0.319061
0.318581
0.318116
0.317667
0.317233
0.316815
0.316413
0.316027
0.315657
0.315303
0.314966
0.314646
0.314342
0.314056
0.313787
0.313535
0.313301
0.313086
0.312888
0.312709
0.31255
0.312409
0.312289
0.312189
0.312109
0.312051
0.312015
0.312003
0.312013
0.312048
0.312108
0.312195
0.312308
0.312445
0.312618
0.312813
0.313031
0.313281
0.313648
0.313717
0.314556
0.314066
0.315776
0.314343
0.317193
0.314843
0.318596
0.314282
0.325458
0.293755
0.39786
0.397066
0.396253
0.39542
0.394569
0.3937
0.392815
0.391914
0.390998
0.390067
0.389123
0.388166
0.387197
0.386215
0.385222
0.384217
0.383201
0.382176
0.381141
0.380099
0.379049
0.377993
0.37693
0.375863
0.374791
0.373714
0.372634
0.371549
0.370462
0.369372
0.368279
0.367185
0.366089
0.364992
0.363895
0.362798
0.361702
0.360607
0.359514
0.358423
0.357335
0.35625
0.355169
0.354091
0.353019
0.351951
0.350889
0.349833
0.348784
0.347741
0.346705
0.345677
0.344657
0.343645
0.342642
0.341648
0.340663
0.339687
0.338722
0.337766
0.336821
0.335887
0.334964
0.334052
0.333151
0.332262
0.331386
0.330521
0.329669
0.32883
0.328004
0.327191
0.326391
0.325604
0.324832
0.324073
0.323329
0.322598
0.321882
0.32118
0.320493
0.31982
0.319163
0.318521
0.317894
0.317282
0.316686
0.316104
0.315539
0.314989
0.314455
0.313937
0.313436
0.31295
0.312481
0.312029
0.311593
0.311174
0.310773
0.310388
0.310021
0.309672
0.30934
0.309027
0.308732
0.308455
0.308197
0.307958
0.307738
0.307538
0.307357
0.307196
0.307056
0.306937
0.306838
0.30676
0.306704
0.306669
0.306656
0.306666
0.306695
0.306749
0.306818
0.306908
0.307028
0.307151
0.307241
0.307538
0.307434
0.308028
0.307646
0.308515
0.308008
0.30878
0.308964
0.308977
0.309341
0.315851
0.285039
0.401967
0.401131
0.40027
0.399384
0.398475
0.397543
0.39659
0.395614
0.39462
0.393607
0.392574
0.391525
0.390459
0.389377
0.388285
0.387184
0.386072
0.384951
0.383819
0.382678
0.381525
0.380362
0.379188
0.378003
0.376809
0.375608
0.3744
0.373187
0.37197
0.370749
0.369526
0.368302
0.367076
0.365851
0.364626
0.363402
0.362181
0.360961
0.359745
0.358532
0.357322
0.356118
0.354918
0.353724
0.352535
0.351353
0.350178
0.34901
0.34785
0.346698
0.345554
0.344419
0.343293
0.342177
0.341072
0.339976
0.338891
0.337818
0.336756
0.335705
0.334667
0.333641
0.332628
0.331627
0.33064
0.329666
0.328706
0.327759
0.326827
0.325909
0.325006
0.324117
0.323242
0.322383
0.321539
0.320711
0.319898
0.3191
0.318318
0.317551
0.316801
0.316067
0.315349
0.314647
0.313962
0.313294
0.312641
0.312006
0.311387
0.310785
0.3102
0.309632
0.309081
0.308547
0.308031
0.307531
0.307049
0.306585
0.306138
0.305708
0.305296
0.304902
0.304526
0.304168
0.303827
0.303505
0.303201
0.302914
0.302646
0.302396
0.302164
0.30195
0.301753
0.301574
0.301412
0.301267
0.301139
0.301027
0.300928
0.300849
0.300778
0.300725
0.300683
0.300644
0.300632
0.300637
0.300577
0.300709
0.300557
0.300834
0.300616
0.300959
0.300883
0.30084
0.301248
0.300273
0.299657
0.306541
0.279153
0.405951
0.405009
0.404041
0.403044
0.402021
0.400974
0.399903
0.398814
0.397699
0.396562
0.395402
0.394224
0.393031
0.391822
0.390586
0.389327
0.388051
0.386759
0.385454
0.384136
0.382808
0.381473
0.380134
0.378791
0.377442
0.376088
0.374732
0.373372
0.372009
0.370644
0.369277
0.367909
0.36654
0.365172
0.363804
0.362439
0.361076
0.359716
0.35836
0.357009
0.355664
0.354325
0.352992
0.351667
0.35035
0.349041
0.347742
0.346452
0.345172
0.343903
0.342645
0.341399
0.340164
0.338942
0.337732
0.336536
0.335352
0.334183
0.333027
0.331885
0.330758
0.329646
0.328548
0.327466
0.326398
0.325346
0.32431
0.32329
0.322285
0.321296
0.320324
0.319368
0.318429
0.317506
0.3166
0.315711
0.314839
0.313984
0.313147
0.312326
0.311524
0.310738
0.30997
0.309219
0.308486
0.307771
0.307073
0.306393
0.30573
0.305086
0.304459
0.30385
0.303258
0.302685
0.302129
0.30159
0.30107
0.300567
0.300081
0.299613
0.299162
0.298729
0.298312
0.297913
0.297531
0.297165
0.296816
0.296483
0.296167
0.295866
0.295581
0.295312
0.295057
0.294817
0.294592
0.294381
0.294183
0.294
0.293828
0.293669
0.293521
0.293386
0.293271
0.293162
0.293058
0.293016
0.292877
0.292939
0.292763
0.292908
0.292758
0.292853
0.293069
0.292816
0.293147
0.292357
0.29087
0.297415
0.273221
0.410129
0.40904
0.407916
0.406763
0.405586
0.404386
0.403151
0.401882
0.400585
0.399282
0.39796
0.396604
0.395216
0.393805
0.392391
0.390966
0.389525
0.388077
0.386632
0.385181
0.383723
0.38226
0.380785
0.379273
0.377734
0.376191
0.374643
0.373092
0.371539
0.369987
0.368435
0.366884
0.365337
0.363792
0.362252
0.360717
0.359187
0.357663
0.356146
0.354637
0.353135
0.351643
0.35016
0.348687
0.347225
0.345773
0.344334
0.342906
0.341491
0.340089
0.338701
0.337327
0.335967
0.334621
0.333291
0.331977
0.330678
0.329395
0.328129
0.32688
0.325648
0.324434
0.323237
0.322058
0.320897
0.319754
0.31863
0.317524
0.316437
0.315369
0.314319
0.313289
0.312277
0.311285
0.310311
0.309357
0.308421
0.307505
0.306608
0.305731
0.304872
0.304032
0.303211
0.302409
0.301626
0.300862
0.300117
0.29939
0.298682
0.297993
0.297322
0.296669
0.296035
0.295419
0.294821
0.294241
0.293679
0.293135
0.292608
0.292099
0.291607
0.291132
0.290675
0.290233
0.289809
0.289401
0.289009
0.288633
0.288273
0.287929
0.2876
0.287287
0.286988
0.286705
0.286437
0.286184
0.285946
0.285724
0.285517
0.285322
0.285153
0.284981
0.284843
0.284733
0.284592
0.284558
0.284413
0.28445
0.284326
0.284398
0.284353
0.284332
0.284539
0.284078
0.283888
0.28327
0.282124
0.287623
0.266646
0.415889
0.414618
0.413314
0.41198
0.410609
0.409196
0.407757
0.406347
0.404908
0.403389
0.401839
0.400261
0.398723
0.397203
0.395603
0.39395
0.392295
0.390617
0.388911
0.38719
0.385458
0.38371
0.381952
0.38022
0.37851
0.376791
0.375068
0.373342
0.371613
0.369882
0.368151
0.366421
0.364693
0.362969
0.361249
0.359536
0.357828
0.356129
0.354439
0.352758
0.351088
0.349429
0.347781
0.346147
0.344526
0.342919
0.341326
0.339749
0.338189
0.336644
0.335117
0.333608
0.332117
0.330644
0.329189
0.327754
0.326337
0.324941
0.323563
0.322206
0.320868
0.319551
0.318253
0.316976
0.31572
0.314484
0.313269
0.312075
0.310901
0.309749
0.308617
0.307507
0.306418
0.305349
0.304303
0.303276
0.302271
0.301286
0.300323
0.29938
0.298457
0.297555
0.296674
0.295813
0.294972
0.294152
0.293352
0.292572
0.291812
0.291071
0.290351
0.28965
0.288968
0.288306
0.287662
0.287038
0.286432
0.285845
0.285276
0.284725
0.284193
0.283678
0.283181
0.282702
0.282239
0.281795
0.281367
0.280957
0.280563
0.280186
0.279826
0.279483
0.279157
0.278847
0.278554
0.278278
0.278019
0.277778
0.277555
0.277344
0.27716
0.276983
0.27683
0.276703
0.276548
0.276499
0.276341
0.27635
0.276203
0.276258
0.276186
0.276053
0.276108
0.275565
0.275173
0.274649
0.273871
0.27826
0.260641
0.423379
0.421922
0.420437
0.4189
0.417322
0.415714
0.414074
0.412368
0.410625
0.40888
0.407114
0.405326
0.403474