/*--------------------------------*- C++ -*----------------------------------*\
| =========                 |                                                 |
| \\      /  F ield         | OpenFOAM: The Open Source CFD Toolbox           |
|  \\    /   O peration     | Version:  5.x                                   |
|   \\  /    A nd           | Web:      www.OpenFOAM.org                      |
|    \\/     M anipulation  |                                                 |
\*---------------------------------------------------------------------------*/
/*   Windows 32 and 64 bit porting by blueCAPE: http://www.bluecape.com.pt   *\
|  Based on Windows porting (2.0.x v4) by Symscape: http://www.symscape.com   |
\*---------------------------------------------------------------------------*/
FoamFile
{
    version     2.0;
    format      ascii;
    class       surfaceScalarField;
    location    "160";
    object      phi;
}
// * * * * * * * * * * * * * * * * * * * * * * * * * * * * * * * * * * * * * //

dimensions      [0 3 -1 0 0 0 0];

internalField   nonuniform List<scalar> 
87341
(
0.363098
39.5599
0.517014
39.7691
0.483438
39.9566
0.58102
39.8255
0.610085
39.894
0.641073
39.892
0.672986
39.8911
0.701465
39.8946
0.740978
39.8835
0.774223
39.8898
0.80594
39.8913
0.834171
39.8948
0.859527
39.8977
0.882954
39.8996
0.904828
39.9012
0.925361
39.9025
0.944725
39.9037
0.963149
39.9046
0.980616
39.9056
0.997101
39.9066
1.01269
39.9074
1.02739
39.9083
1.04127
39.9092
1.05442
39.9099
1.06689
39.9106
1.07874
39.9112
1.09002
39.9118
1.1008
39.9123
39.9127
1.11118
0.968759
38.5912
1.36328
39.3746
1.47361
39.8463
1.61908
39.68
1.66125
39.8518
1.83123
39.7221
1.93126
39.7911
2.05564
39.7702
2.13145
39.8077
2.20785
39.8134
2.2782
39.821
2.34676
39.8262
2.41281
39.8316
2.47479
39.8376
2.53249
39.8435
2.58609
39.8489
2.63588
39.8539
2.68215
39.8583
2.72481
39.8629
2.76422
39.8671
2.80082
39.8708
2.83519
39.874
2.86766
39.8767
2.89847
39.8791
2.92779
39.8812
2.95579
39.8832
2.98259
39.885
3.00826
39.8866
39.8875
3.03343
2.01466
36.5765
3.30539
38.0839
4.06371
39.088
4.12857
39.6151
4.29367
39.6867
4.23131
39.7844
4.26827
39.7541
4.26801
39.7704
4.3
39.7757
4.33321
39.7802
4.36627
39.7879
4.4034
39.7891
4.44202
39.793
4.48053
39.7991
4.5185
39.8055
4.55572
39.8117
4.59203
39.8176
4.62713
39.8232
4.66187
39.8282
4.69659
39.8324
4.73132
39.8361
4.76601
39.8393
4.80054
39.8421
4.83487
39.8448
4.86897
39.8471
4.9028
39.8494
4.93641
39.8513
4.96984
39.8532
39.8547
5.00264
1.66338
34.9131
3.43142
36.3158
4.8328
37.6866
5.67048
38.7775
5.92142
39.4358
5.98118
39.7247
5.98288
39.7524
5.98292
39.7704
5.99521
39.7634
6.00943
39.766
6.03013
39.7672
6.0436
39.7756
6.05328
39.7833
6.06628
39.7861
6.08424
39.7875
6.10757
39.7884
6.13583
39.7893
6.16878
39.7903
6.20556
39.7914
6.24551
39.7925
6.28801
39.7936
6.33223
39.7951
6.37773
39.7966
6.42404
39.7984
6.47078
39.8004
6.51766
39.8025
6.56424
39.8048
6.61031
39.8071
39.8099
6.6551
1.05121
33.8619
2.37799
34.9891
3.90565
36.1589
5.31374
37.3694
6.31245
38.4371
6.82623
39.2109
6.98586
39.5928
7.01985
39.7364
7.03993
39.7434
7.06304
39.7429
7.08247
39.7478
7.10399
39.7541
7.12739
39.7599
7.15114
39.7624
7.17637
39.7623
7.2035
39.7612
7.23296
39.7598
7.2649
39.7584
7.29978
39.7565
7.33708
39.7552
7.37657
39.7541
7.41858
39.7531
7.46235
39.7529
7.50786
39.7529
7.5552
39.7531
7.60361
39.7541
7.65328
39.7551
7.70405
39.7563
39.7578
7.7562
0.819154
33.0428
1.79258
34.0156
2.92072
35.0308
4.20559
36.0845
5.49819
37.1445
6.55362
38.1555
7.18549
38.9609
7.46535
39.4565
7.567
39.6417
7.62967
39.6802
7.69751
39.6799
7.75669
39.695
7.82202
39.6946
7.88975
39.6946
7.9582
39.6939
8.02585
39.6936
8.09198
39.6937
8.15762
39.6927
8.22078
39.6933
8.28229
39.6937
8.34276
39.6936
8.40078
39.695
8.45834
39.6953
8.51541
39.6959
8.57095
39.6975
8.62702
39.698
8.68295
39.6992
8.73814
39.7011
39.6998
8.79613
0.71857
32.3242
1.5405
33.1937
2.46171
34.1096
3.48571
35.0605
4.60055
36.0296
5.76014
36.9959
6.78408
37.937
7.49024
38.7504
7.82316
39.3088
7.95497
39.5484
8.0469
39.588
8.15956
39.5823
8.2671
39.5871
8.37512
39.5866
8.48138
39.5876
8.58676
39.5882
8.69286
39.5876
8.79502
39.5906
8.89736
39.591
8.99876
39.5923
9.09654
39.5959
9.19553
39.5961
9.29213
39.5987
9.38582
39.6022
9.4806
39.6028
9.57211
39.6065
9.66143
39.6098
9.7513
39.6112
39.6133
9.83781
0.660383
31.6638
1.3855
32.4686
2.1826
33.3125
3.05308
34.19
3.99338
35.0893
4.99251
35.9967
6.03308
36.8964
7.01773
37.7657
7.76577
38.5608
8.18237
39.1318
8.36104
39.4093
8.48736
39.456
8.62465
39.4498
8.75629
39.455
8.88865
39.4552
9.02106
39.4558
9.14788
39.4608
9.27881
39.4596
9.40644
39.4634
9.53142
39.4673
9.66138
39.4659
9.7859
39.4715
9.90998
39.4746
10.0373
39.4748
10.1582
39.4818
10.28
39.4847
10.4032
39.4867
10.5201
39.4943
39.4963
10.637
0.611797
31.052
1.27003
31.8103
1.98013
32.6024
2.7443
33.4259
3.56212
34.2715
4.43021
35.1286
5.34126
35.9854
6.2797
36.8273
7.20618
37.6343
7.95481
38.3831
8.411
38.9531
8.6231
39.2439
8.78065
39.2922
8.94823
39.2874
9.11184
39.2916
9.27036
39.2973
9.437
39.2941
9.59559
39.301
9.75477
39.3042
9.91908
39.303
10.0735
39.3115
10.2317
39.3133
10.3918
39.3146
10.5419
39.3246
10.6978
39.326
10.8522
39.3303
10.9984
39.3405
11.1503
39.3424
39.3498
11.2968
0.586899
30.4651
1.2149
31.1824
1.8792
31.9381
2.58147
32.7236
3.32196
33.531
4.09927
34.3513
4.90982
35.1748
5.74668
35.9904
6.59577
36.7852
7.43585
37.5431
8.14851
38.2405
8.60217
38.7902
8.82686
39.0675
9.00978
39.1045
9.19728
39.1041
9.39451
39.1
9.58012
39.1085
9.7713
39.1099
9.96727
39.1082
10.1515
39.1187
10.3435
39.1195
10.5355
39.1213
10.717
39.1331
10.9067
39.1349
11.0926
39.1401
11.2707
39.1522
11.4559
39.1553
11.6341
39.1643
39.1763
11.8076
0.583055
29.8821
1.19223
30.5732
1.83018
31.3001
2.49692
32.0568
3.19194
32.836
3.91362
33.6297
4.65913
34.4293
5.42391
35.2257
6.20067
36.0084
6.97816
36.7656
7.73683
37.4818
8.3918
38.1352
8.81114
38.6482
9.05053
38.8651
9.27006
38.8846
9.47817
38.8919
9.69912
38.8876
9.92205
38.8869
10.1295
38.9008
10.3503
38.8979
10.5702
38.8996
10.7769
38.9146
10.9956
38.9144
11.2087
38.9218
11.4131
38.9357
11.626
38.9394
11.8293
38.952
12.0279
38.9656
38.9671
12.2371
0.562686
29.3194
1.14808
29.9878
1.75598
30.6922
2.38549
31.4273
3.03532
32.1861
3.704
32.961
4.38923
33.7441
5.08763
34.5273
5.79446
35.3016
6.50309
36.0569
7.20387
36.781
7.88188
37.4572
8.46721
38.0628
8.84702
38.4853
9.12039
38.6112
9.39678
38.6155
9.66852
38.6158
9.92081
38.6346
10.1911
38.6305
10.4578
38.6312
10.7084
38.649
10.974
38.649
11.2274
38.661
11.4727
38.6765
11.7288
38.6796
11.9723
38.6959
12.2093
38.715
12.4564
38.7185
38.7364
12.6872
0.54229
28.7771
1.10358
29.4265
1.68337
30.1124
2.28091
30.8298
2.89438
31.5727
3.52151
32.3339
4.16015
33.1054
4.80784
33.8796
5.46119
34.6482
6.11576
35.4024
6.76545
36.1313
7.40125
36.8214
8.0102
37.4539
8.50399
37.9915
8.87006
38.2452
9.20193
38.2837
9.51474
38.303
9.85175
38.2976
10.1753
38.3069
10.474
38.3325
10.7946
38.3284
11.0979
38.3457
11.3934
38.3655
11.702
38.3679
11.9937
38.3879
12.2729
38.4167
12.5653
38.4226
12.839
38.4449
38.4647
13.1107
0.533621
28.2435
1.08319
28.8769
1.648
29.5476
2.22761
30.2502
2.82118
30.9791
3.42671
31.7283
4.04144
32.4907
4.66262
33.2584
5.28764
34.0232
5.91314
34.7769
6.53467
35.5098
7.14632
36.2098
7.74031
36.8599
8.2924
37.4394
8.7326
37.805
9.10277
37.9135
9.4889
37.9169
9.85539
37.9312
10.2027
37.9597
10.5795
37.9557
10.9352
37.9726
11.2754
38.0056
11.6262
38.0147
11.958
38.0361
12.2784
38.0675
12.6173
38.0779
12.9391
38.1008
13.2477
38.1363
38.1525
13.5598
0.536998
27.7065
1.08824
28.3257
1.65273
28.9831
2.22951
29.6734
2.81789
30.3907
3.41707
31.1291
4.02539
31.8824
4.64018
32.6436
5.25855
33.4048
5.87797
34.1575
6.49552
34.8923
7.10721
35.5981
7.7069
36.2602
8.28246
36.8639
8.76366
37.3238
9.20646
37.4707
9.62453
37.4988
10.0211
37.5346
10.4423
37.5385
10.8447
37.5533
11.2182
37.5991
11.6111
37.6127
11.9964
37.6294
12.3632
37.6692
12.7416
37.6891
13.1097
37.7097
13.4449
37.7656
13.7945
37.7867
37.8056
14.1414
0.549657
27.1568
1.11261
27.7627
1.68787
28.4079
2.27435
29.0869
2.87087
29.7942
3.47643
30.5236
4.09025
31.2686
4.71108
32.0228
5.33651
32.7794
5.96353
33.5304
6.58897
34.2668
7.20867
34.9784
7.81615
35.6527
8.40359
36.2764
8.93807
36.7893
9.42224
36.9865
9.87063
37.0504
10.3329
37.0723
10.788
37.0834
11.197
37.1442
11.6305
37.1656
12.0728
37.1705
12.4737
37.2284
12.8777
37.2652
13.2876
37.2792
13.6494
37.348
14.0389
37.3761
14.4325
37.3932
37.456
14.7821
0.569002
26.5878
1.1508
27.1809
1.74438
27.8143
2.34852
28.4828
2.96193
29.1808
3.58314
29.9024
4.21067
30.641
4.84324
31.3902
5.47937
32.1433
6.11649
32.8933
6.75137
33.6319
7.3807
34.3491
8.00095
35.0325
8.61049
35.6669
9.20413
36.1957
9.71487
36.4758
10.1979
36.5674
10.701
36.5692
11.148
36.6364
11.6225
36.6697
12.1243
36.6638
12.5499
36.7448
12.9739
36.8044
13.428
36.8111
13.8265
36.8807
14.2511
36.9234
14.685
36.9422
15.0491
37.029
37.0744
15.4307
0.593246
25.9946
1.19934
26.5748
1.81698
27.1966
2.44483
27.8549
3.08146
28.5442
3.72538
29.2585
4.375
29.9914
5.02871
30.7365
5.68515
31.4868
6.34315
32.2353
7.001
32.9741
7.65681
33.6933
8.30859
34.3807
8.95151
35.0239
9.53786
35.6093
10.0549
35.9588
10.6221
36.0002
11.1216
36.0697
11.6321
36.1258
12.1732
36.1287
12.6136
36.2234
13.0729
36.2856
13.5852
36.2922
14.0332
36.3631
14.4858
36.428
14.947
36.4622
15.343
36.5461
15.7612
36.6108
36.6471
16.1885
0.623527
25.371
1.26016
25.9382
1.90863
26.5482
2.56753
27.196
3.2354
27.8763
3.91075
28.5831
4.59198
29.3102
5.27742
30.0511
5.96526
30.799
6.65357
31.547
7.33975
32.2879
8.01952
33.0135
8.68587
33.7144
9.32817
34.3816
9.93948
34.998
10.5744
35.3239
11.1123
35.4623
11.6487
35.5333
12.2115
35.563
12.6888
35.6515
13.2011
35.711
13.7377
35.749
14.2173
35.8125
14.699
35.8814
15.1738
35.9533
15.6023
36.0338
16.0462
36.1022
16.485
36.1721
36.2308
16.9013
0.657054
24.714
1.3277
25.2676
2.01053
25.8653
2.70398
26.5026
3.4064
27.1739
4.11604
27.8735
4.83098
28.5953
5.54913
29.3329
6.26817
30.08
6.98547
30.8297
7.69831
31.5751
8.40394
32.3079
9.10045
33.0178
9.79106
33.691
10.4823
34.3067
11.1037
34.7024
11.6857
34.8803
12.2473
34.9716
12.7737
35.0367
13.332
35.0932
13.8714
35.1717
14.4111
35.2092
14.923
35.3006
15.3904
35.4141
15.8615
35.4822
16.3499
35.5453
16.8171
35.6349
17.274
35.7152
35.7918
17.713
0.691836
24.0221
1.39795
24.5614
2.11672
25.1466
2.84645
25.7728
3.58537
26.435
4.33164
27.1272
5.08333
27.8436
5.83847
28.5778
6.5951
29.3233
7.35134
30.0735
8.1055
30.8209
8.8563
31.5571
9.60254
32.2716
10.3408
32.9528
11.0613
33.5862
11.691
34.0728
12.2542
34.3171
12.8568
34.369
13.4767
34.4168
14.0458
34.5241
14.6133
34.6042
15.1203
34.7022
15.6084
34.8125
16.1527
34.8697
16.6898
34.9452
17.1803
35.0548
17.6652
35.15
18.123
35.2574
35.381
18.5338
0.72876
23.2934
1.47248
23.8177
2.22961
24.3894
2.99847
25.004
3.7773
25.6561
4.56426
26.3402
5.35745
27.0504
6.15489
27.7803
6.9545
28.5237
7.75408
29.2739
8.55106
30.0239
9.34216
30.766
10.1226
31.4912
10.8847
32.1906
11.5988
32.8722
12.238
33.4336
12.932
33.6231
13.5837
33.7173
14.1518
33.8488
14.7327
33.9431
15.2762
34.0607
15.8425
34.136
16.4314
34.2235
16.9665
34.3346
17.472
34.4397
17.9512
34.5757
18.4107
34.6904
18.8837
34.7844
34.9227
19.3419
0.765143
22.5282
1.54601
23.0369
2.34099
23.5945
3.14835
24.1966
3.96621
24.8383
4.79257
25.5139
5.62526
26.2177
6.46192
26.9437
7.29995
27.6857
8.13643
28.4374
8.96798
29.1924
9.79044
29.9435
10.5984
30.6832
11.3841
31.4048
12.1531
32.1032
12.9405
32.6461
13.597
32.9666
14.2144
33.1
14.8319
33.2312
15.4432
33.3318
16.068
33.4358
16.6328
33.5712
17.1702
33.6861
17.7398
33.7651
18.2537
33.9258
18.7576
34.0717
19.2746
34.1735
19.748
34.311
34.4211
20.2497
0.799551
21.7287
1.61557
22.2208
2.44638
22.7637
3.29019
23.3528
4.14505
23.9834
5.00888
24.6501
5.87942
25.3471
6.75426
26.0688
7.63082
26.8091
8.50634
27.5619
9.378
28.3207
10.2429
29.0786
11.0987
29.8275
11.9453
30.5582
12.7716
31.2769
13.524
31.8938
14.2637
32.2268
14.8979
32.4658
15.5346
32.5945
16.1786
32.6879
16.7812
32.8333
17.4035
32.9488
17.9739
33.1158
18.4806
33.2583
19.0381
33.3683
19.6042
33.5057
20.1285
33.6492
20.6445
33.7949
33.9892
21.0764
0.832107
20.8966
1.68139
21.3716
2.54621
21.8988
3.42483
22.4742
4.31533
23.0929
5.21564
23.7497
6.12352
24.4392
7.03659
25.1557
7.95231
25.8934
8.86802
26.6462
9.78096
27.4078
10.6882
28.1713
11.5866
28.9291
12.4715
29.6733
13.3531
30.3952
14.1856
31.0613
14.8558
31.5567
15.5576
31.7639
16.2412
31.911
16.8878
32.0413
17.5355
32.1856
18.1018
32.3825
18.7166
32.501
19.3096
32.6653
19.8421
32.8359
20.3669
32.9809
20.8674
33.1487
21.3258
33.3365
33.4849
21.83
0.862043
20.0345
1.74191
20.4917
2.63815
21.0026
3.54912
21.5632
4.47301
22.169
5.40786
22.8149
6.35151
23.4956
7.30166
24.2056
8.25584
24.9392
9.21139
25.6906
10.1654
26.4538
11.1146
27.2221
12.055
27.9887
12.9821
28.7463
13.877
29.5004
14.6972
30.2411
15.4871
30.7667
16.1605
31.0906
16.8527
31.2188
17.5342
31.3597
18.1898
31.53
18.8568
31.7155
19.4355
31.9223
19.9844
32.1164
20.5883
32.232
21.1699
32.3993
21.7025
32.6161
22.1907
32.8483
33.0723
22.6034
0.887853
19.1467
1.79414
19.5854
2.71749
20.0792
3.65638
20.6243
4.6091
21.2163
5.5737
21.8503
6.54803
22.5213
7.52971
23.2239
8.51614
23.9528
9.50442
24.7024
10.4912
25.467
11.4727
26.2406
12.4439
27.0174
13.3977
27.7925
14.3331
28.5649
15.2332
29.341
16.0295
29.9705
16.864
30.2561
17.5916
30.4911
18.2205
30.7309
18.841
30.9094
19.4451
31.1114
20.1485
31.2189
20.7802
31.4847
21.3154
31.6968
21.8093
31.9054
22.3421
32.0833
22.9015
32.2889
32.5947
23.379
0.909129
18.2376
1.83715
18.6574
2.78288
19.1335
3.74493
19.6623
4.72171
20.2395
5.71136
20.8607
6.71179
21.5209
7.72063
22.2151
8.7353
22.9381
9.75287
23.6848
10.77
24.4498
11.7832
25.2275
12.7882
26.0124
13.7812
26.7995
14.755
27.5911
15.7136
28.3824
16.6164
29.0676
17.3078
29.5647
18.0323
29.7666
18.7929
29.9702
19.524
30.1784
20.1906
30.4447
20.731
30.6786
21.338
30.8776
21.9981
31.0368
22.5476
31.3559
23.0193
31.6117
23.513
31.7952
32.0809
24.0268
0.925426
17.3121
1.87011
17.7127
2.83307
18.1706
3.81313
18.6822
4.80885
19.2438
5.81853
19.851
6.8402
20.4992
7.87164
21.1836
8.91037
21.8994
9.95365
22.6415
10.9984
23.405
12.0413
24.1846
13.0789
24.9748
14.1075
25.7709
15.1288
26.5699
16.1269
27.3843
17.0722
28.1224
17.9881
28.6488
18.6476
29.1072
19.2514
29.3663
19.924
29.5058
20.6647
29.7041
21.4003
29.9429
22.0028
30.2751
22.4481
30.5914
23.0729
30.7312
23.6571
31.0274
24.1779
31.2744
31.6127
24.6461
0.936586
16.3755
1.89267
16.7566
2.86752
17.1957
3.86026
17.6895
4.86969
18.2344
5.89433
18.8263
6.93243
19.4611
7.98199
20.1341
9.04076
20.8406
10.1062
21.576
11.1758
22.3355
12.2463
23.1141
13.3144
23.9067
14.3772
24.7081
15.43
25.5171
16.4729
26.3414
17.4218
27.1735
18.2168
27.8537
19.1086
28.2155
19.8855
28.5894
20.5605
28.8308
21.1936
29.071
21.7837
29.3528
22.5454
29.5134
23.1861
29.9508
23.625
30.2922
24.1823
30.4701
24.6665
30.7902
31.0706
25.2086
0.942292
15.4333
1.90418
15.7947
2.88524
16.2146
3.88487
16.6898
4.90217
17.2171
5.93589
17.7926
6.98453
18.4124
8.04631
19.0723
9.11919
19.7677
10.2008
20.4944
11.2887
21.2476
12.38
22.0229
13.4712
22.8154
14.5583
23.621
15.6381
24.4373
16.693
25.2865
17.7372
26.1293
18.6796
26.9114
19.3813
27.5137
20.185
27.7857
20.9518
28.064
21.7168
28.306
22.3623
28.7073
22.8144
29.0614
23.5358
29.2293
24.1935
29.6345
24.6942
29.9695
25.2197
30.2648
30.6144
25.6758
0.942412
14.4908
1.90437
14.8328
2.88574
15.2333
3.88623
15.6893
4.90519
16.1981
5.94164
16.7562
6.99426
17.3598
8.06149
18.0051
9.1414
18.6878
10.2318
19.404
11.33
20.1494
12.4331
20.9198
13.5375
21.7109
14.6394
22.5191
15.734
23.3427
16.8291
24.1914
17.8615
25.0968
18.8787
25.8942
19.8476
26.5448
20.5472
27.0861
21.2389
27.3723
21.9114
27.6335
22.7353
27.8834
23.4397
28.357
23.8784
28.7906
24.5243
28.9886
25.1111
29.3827
25.5737
29.8021
30.0884
26.0998
0.937153
13.5537
1.89364
13.8763
2.86964
14.2573
3.86519
14.6938
4.87992
15.1834
5.91311
15.723
6.96373
16.3092
8.03045
16.9383
9.11164
17.6066
10.2053
18.3103
11.3092
19.0456
12.4203
19.8086
13.536
20.5953
14.6529
21.4022
15.7685
22.2272
16.8826
23.0772
18.0116
23.9678
19.0247
24.881
19.9397
25.6299
20.8814
26.1443
21.6125
26.6413
22.2521
26.9938
22.8621
27.2734
23.6554
27.5636
24.3737
28.0723
24.8211
28.5411
25.4225
28.7813
25.9947
29.23
29.6991
26.3839
0.926774
12.6269
1.87252
12.9306
2.83775
13.292
3.82281
13.7087
4.82763
14.1786
5.85177
14.6988
6.89449
15.2665
7.95475
15.8781
9.0312
16.5302
10.1222
17.2193
11.226
17.9418
12.3402
18.6944
13.4618
19.4737
14.5881
20.2759
15.7157
21.0996
16.8461
21.9469
17.9643
22.8496
19.1017
23.7436
20.1063
24.6253
20.9126
25.3381
21.7822
25.7718
22.522
26.2539
23.1798
26.6157
23.7936
26.9498
24.5484
27.3174
25.239
27.8506
25.6618
28.3586
26.2367
28.655
29.2183
26.7176
0.91163
11.7153
1.84174
12.0004
2.79116
12.3426
3.76054
12.7394
4.75012
13.189
5.75976
13.6892
6.78902
14.2372
7.83719
14.8299
8.90326
15.4641
9.98594
16.1366
11.0836
16.8441
12.1945
17.5835
13.316
18.3522
14.4453
19.1466
15.5806
19.9644
16.7216
20.8059
17.8825
21.6887
18.9775
22.6485
20.087
23.5158
21.0844
24.3407
21.8425
25.0136
22.6495
25.447
23.3399
25.9253
24.0211
26.2686
24.6332
26.7054
25.3327
27.1511
25.9718
27.7194
26.3761
28.2508
28.6578
26.9365
0.892122
10.8232
1.80211
11.0905
2.73108
11.4137
3.68002
11.7904
4.64945
12.2195
5.63953
12.6991
6.65014
13.2266
7.6809
13.7992
8.73115
14.4139
9.79995
15.0678
10.886
15.758
11.9876
16.4819
13.103
17.2368
14.23
18.0197
15.3663
18.8281
16.5106
19.6615
17.6698
20.5296
18.8462
21.4721
19.8766
22.4854
20.9353
23.2819
21.9117
24.0373
22.6703
24.6884
23.4405
25.1551
24.0801
25.629
24.7674
26.0181
25.3579
26.5606
26.0017
27.0756
26.5772
27.6752
28.2603
26.9748
0.868669
9.95449
1.75447
10.2046
2.65882
10.5093
3.58299
10.8662
4.52777
11.2748
5.49361
11.7333
6.4807
12.2395
7.48896
12.7909
8.51805
13.3848
9.56733
14.0185
10.6359
14.6894
11.7228
15.395
12.8265
16.1331
13.9446
16.9016
15.0747
17.6979
16.2145
18.5217
17.3656
19.3785
18.5413
20.2964
19.7267
21.2999
20.7008
22.3079
21.6988
23.0393
22.6391
23.7481
23.4106
24.3836
24.154
24.8856
24.7667
25.4054
25.4506
25.8766
26.023
26.5032
26.5657
27.1325
27.7552
27.0708
0.841697
9.1128
1.69971
9.34664
2.57571
9.6333
3.47125
9.97071
4.38738
10.3586
5.32484
10.7958
6.28411
11.2802
7.26544
11.8096
8.26882
12.3814
9.29399
12.9933
10.3404
13.643
11.4073
14.3281
12.4936
15.0468
13.5973
15.798
14.7158
16.5793
15.848
17.3895
16.9938
18.2326
18.1622
19.1281
19.3572
20.1049
20.5377
21.1273
21.4756
22.1014
22.4301
22.7936
23.3119
23.5018
24.0503
24.1472
24.7604
24.6953
25.3367
25.3004
26.0381
25.8018
26.6031
26.5676
27.2879
27.0704
0.811621
8.30117
1.63866
8.5196
2.48306
8.7889
3.34659
9.10717
4.23057
9.47466
5.136
9.8904
6.06367
10.3526
7.01416
10.8591
7.9878
11.4078
8.98467
11.9965
10.0046
12.6231
11.0469
13.2858
12.1111
13.9826
13.1964
14.7127
14.3004
15.4753
15.421
16.269
16.5584
17.0952
17.7178
17.9688
18.9046
18.9181
20.093
19.9389
21.2327
20.9616
22.1363
21.8901
23.0781
22.5599
23.9229
23.3024
24.6426
23.9757
25.3148
24.6281
25.8321
25.2845
26.5236
25.8761
26.78
27.0315
0.778833
7.52234
1.57213
7.7263
2.38208
7.97895
3.21069
8.27857
4.05947
8.62588
4.92972
9.02015
5.82253
9.45976
6.73878
9.94282
7.67916
10.4674
8.6441
11.0315
9.63377
11.6335
10.648
12.2715
11.6865
12.9441
12.7489
13.6503
13.8337
14.3906
14.9386
15.1641
16.0626
15.9712
17.2096
16.8218
18.3877
17.74
19.5877
18.7389
20.7617
19.7876
21.8572
20.7946
22.7306
21.6866
23.6482
22.3847
24.4471
23.1768
25.1827
23.8925
25.7974
24.6697
26.2851
25.3885
26.1359
26.9292
0.743701
6.77864
1.50088
6.96912
2.27397
7.20587
3.06515
7.48739
3.87617
7.81485
4.70857
8.18775
5.56373
8.6046
6.44286
9.06369
7.34698
9.56325
8.27691
10.1016
9.23319
10.6772
10.2161
11.2886
11.2254
11.9348
12.261
12.6147
13.3228
13.3288
14.4088
14.0781
15.5171
14.8629
16.6507
15.6881
17.8186
16.5721
19.0179
17.5396
20.2214
18.5841
21.3603
19.6557
22.4089
20.638
23.2698
21.5238
24.1329
22.3138
24.907
23.1183
25.6156
23.9612
26.1838
24.8203
25.6849
26.6347
0.706584
6.07206
1.42564
6.25006
2.15984
6.47167
2.91154
6.73569
3.68267
7.04372
4.47502
7.3954
5.29024
7.78939
6.12985
8.22408
6.99522
8.69789
7.88751
9.20931
8.80766
9.75703
9.75631
10.34
10.7338
10.9573
11.74
11.6085
12.7752
12.2935
13.8392
13.0142
14.9293
13.7728
16.045
14.5725
17.1971
15.42
18.3861
16.3506
19.5962
17.3739
20.8025
18.4494
21.886
19.5546
22.9193
20.4904
23.7643
21.4688
24.5919
22.2908
25.3387
23.2144
25.9634
24.1956
25.1646
26.4837
0.667834
5.40422
1.34714
5.57075
2.04084
5.77798
2.75142
6.02511
3.481
6.31414
4.23155
6.64485
5.00501
7.01593
5.80319
7.4259
6.62778
7.87329
7.48031
8.35678
8.36211
8.87524
9.27422
9.42785
10.2174
10.0141
11.1919
10.634
12.1978
11.2876
13.2357
11.9762
14.3049
12.7036
15.4032
13.4742
16.5308
14.2923
17.7073
15.1742
18.9113
16.1699
20.1385
17.2222
21.3261
18.3669
22.3739
19.4426
23.3902
20.4525
24.1911
21.4898
25.0096
22.3959
25.6981
23.5071
24.6303
26.2325
0.627805
4.77642
1.2661
4.93245
1.9181
5.12597
2.5864
5.35681
3.2732
5.62734
3.98069
5.93735
4.71104
6.28558
5.46634
6.6706
6.2486
7.09104
7.05969
7.54568
7.90133
8.0336
8.77495
8.55423
9.68169
9.10741
10.6223
9.69337
11.597
10.3129
12.6061
10.9672
13.6506
11.6591
14.7292
12.3955
15.8413
13.1803
16.9882
14.0273
18.1933
14.9648
19.4067
16.0088
20.6593
17.1143
21.7971
18.3048
22.8416
19.408
23.8045
20.5269
24.567
21.6335
25.3452
22.7289
24.0262
25.9493
0.586851
4.18957
1.18328
4.33603
1.79284
4.51642
2.41811
4.73153
3.0614
4.98405
3.72504
5.27372
4.4114
5.59922
5.12285
5.95916
5.86168
6.3522
6.63012
6.77725
7.43023
7.23349
8.26381
7.72065
9.13239
8.23883
10.0371
8.78862
10.9789
9.37114
11.9578
9.98829
12.9744
10.6425
14.0304
11.3395
15.1249
12.0858
16.2556
12.8965
17.4364
13.784
18.6568
14.7884
19.8974
15.8737
21.1354
17.0668
22.2618
18.2817
23.2813
19.5073
24.1896
20.7252
24.8989
22.0196
23.331
25.594
0.545323
3.64424
1.09943
3.78192
1.66626
3.94958
2.24828
4.14952
2.84778
4.38454
3.46722
4.65428
4.1092
4.95725
4.77629
5.29206
5.4711
5.65739
6.19612
6.05222
6.95381
6.4758
7.74628
6.92818
8.57538
7.40973
9.44273
7.92126
10.3497
8.46419
11.2969
9.04107
12.2847
9.6547
13.3138
10.3104
14.3886
11.011
15.5015
11.7836
16.6681
12.6174
17.8725
13.584
19.1318
14.6144
20.3842
15.8143
21.6078
17.0581
22.7155
18.3996
23.6922
19.7485
24.5181
21.1936
22.6888
25.1603
0.503548
3.1407
1.01531
3.27016
1.53964
3.42526
2.07862
3.61054
2.63453
3.82863
3.20989
4.07891
3.80754
4.3596
4.43027
4.66933
5.08094
5.00673
5.76228
5.37088
6.47716
5.76092
7.22791
6.17743
8.01662
6.62101
8.84537
7.09251
9.71611
7.59346
10.63
8.12717
11.5876
8.69705
12.5896
9.30848
13.6377
9.96284
14.7364
10.6849
15.8829
11.4709
17.0887
12.3782
18.3256
13.3776
19.6231
14.5168
20.8876
15.7936
22.0834
17.2038
23.1644
18.6675
24.04
20.318
21.9616
24.7673
0.461819
2.67888
0.931716
2.80026
1.41428
2.94269
1.91088
3.11394
2.4238
3.31571
2.95561
3.5471
3.50946
3.80574
4.0883
4.0905
4.69523
4.3998
5.33313
4.73298
6.00538
5.08867
6.71433
5.46849
7.46222
5.87312
8.25152
6.30321
9.08492
6.76006
9.96393
7.24815
10.89
7.77101
11.864
8.33446
12.8865
8.9403
13.9602
9.61124
15.0949
10.3362
16.2845
11.1886
17.5386
12.1235
18.8097
13.2458
20.137
14.4663
21.3827
15.9581
22.5608
17.4895
23.5618
19.317
21.2084
24.315
0.420402
2.25848
0.849416
2.37125
1.29147
2.50064
1.74671
2.65869
2.21762
2.8448
2.70677
3.05795
3.21781
3.2947
3.75373
3.55457
4.31789
3.83565
4.91308
4.13778
5.54351
4.45824
6.21116
4.80084
6.9183
5.16599
7.66772
5.55379
8.46312
5.96466
9.30593
6.40534
10.1987
6.87824
11.1427
7.39047
12.1399
7.94312
13.1895
8.5616
14.3004
9.22535
15.4814
10.0076
16.7261
10.8788
18.0257
11.9461
19.3472
13.1448
20.6778
14.6276
21.9067
16.2605
23.0158
18.2079
20.354
23.8702
0.379556
1.87892
0.769205
1.9816
1.17245
2.0974
1.58758
2.24356
2.01777
2.41462
2.46547
2.61026
2.93518
2.82499
3.42969
3.06006
3.95262
3.31272
4.50633
3.58407
5.09644
3.86813
5.72391
4.17337
6.39095
4.49895
7.10052
4.84422
7.85781
5.20738
8.66345
5.5997
9.52193
6.01976
10.4326
6.4798
11.4032
6.97253
12.4275
7.5373
13.5187
8.13414
14.6722
8.85409
15.9169
9.63411
17.218
10.645
18.583
11.7798
19.9461
13.2645
21.2607
14.9459
22.4411
17.0275
19.3973
23.3978
0.339317
1.5396
0.69192
1.62899
1.05836
1.73095
1.43468
1.86725
1.8257
2.0236
2.23345
2.20251
2.66384
2.3946
3.11901
2.6049
3.60289
2.82884
4.11678
3.07018
4.66883
3.31608
5.25781
3.58438
5.88602
3.87074
6.55623
4.17401
7.27591
4.4877
8.04384
4.83176
8.86767
5.19593
9.74235
5.60512
10.6829
6.03195
11.6787
6.54157
12.75
7.06283
13.8824
7.72161
15.1052
8.41133
16.4066
9.3436
17.7888
10.3976
19.2099
11.8434
20.594
13.5618
21.872
15.7496
18.3557
22.9136
0.299842
1.23976
0.618463
1.31037
0.950064
1.39935
1.28871
1.5286
1.64237
1.66994
2.01197
1.8329
2.40567
2.0009
2.82418
2.18639
3.2718
2.38122
3.74792
2.59405
4.26495
2.79906
4.81758
3.03175
5.40889
3.27943
6.04068
3.54222
6.72376
3.80462
7.45393
4.10159
8.24334
4.40652
9.07986
4.76861
9.9884
5.12341
10.9487
5.58126
11.9966
6.0149
13.1037
6.61458
14.3153
7.19968
15.5928
8.0661
16.9923
8.9981
18.4428
10.3929
19.9445
12.06
21.2913
14.4028
17.1744
22.4726
0.261775
0.977985
0.54959
1.02256
0.847889
1.10105
1.14975
1.22674
1.46825
1.35143
1.80186
1.49929
2.16224
1.64051
2.54738
1.80125
2.96207
1.96653
3.40281
2.15331
3.88852
2.31335
4.40707
2.5132
4.96414
2.72236
5.55885
2.94751
6.20671
3.15676
6.89896
3.40934
7.65453
3.65095
8.45115
3.97199
9.32694
4.24762
10.2465
4.66171
11.2645
4.9969
12.3366
5.54243
13.5323
6.00399
14.7853
6.81311
16.1916
7.59186
17.6532
8.93133
19.2653
10.4479
20.7521
12.9159
15.8324
22.0942
0.226176
0.751809
0.485533
0.7632
0.751341
0.835245
1.01714
0.960941
1.30325
1.06532
1.6035
1.19905
1.93478
1.30924
2.29042
1.44561
2.67579
1.58116
3.08393
1.74517
3.54209
1.85519
4.0284
2.02689
4.55463
2.19613
5.11422
2.38792
5.72809
2.54289
6.38148
2.75595
7.10183
2.9306
7.85675
3.21706
8.69634
3.40804
9.57255
3.7855
10.553
4.01645
11.5743
4.5211
12.7374
4.84093
13.9452
5.60531
15.3711
6.16596
16.8028
7.49957
18.5532
8.69755
20.0972
11.3719
14.2056
21.724
0.194504
0.557305
0.425295
0.532409
0.658771
0.60177
0.889572
0.73014
1.14672
0.80817
1.41705
0.928718
1.72424
1.00205
2.05449
1.11535
2.41412
1.22153
2.79338
1.36591
3.22644
1.42214
3.68106
1.57227
4.17984
1.69735
4.70632
1.86144
5.28755
1.96167
5.90051
2.14298
6.5828
2.24831
7.29297
2.5069
8.09372
2.60729
8.92262
2.9566
9.87295
3.06612
10.8441
3.55
11.9858
3.69923
13.1461
4.44501
14.564
4.74797
16.017
6.04665
17.8265
6.888
19.5915
9.60694
12.3558
21.4414
0.168167
0.389138
0.365935
0.334641
0.567112
0.400592
0.765612
0.53164
0.997281
0.576501
1.24308
0.682919
1.53145
0.713676
1.83949
0.807315
2.17645
0.884572
2.53295
1.00942
2.93931
1.01577
3.36387
1.14771
3.83338
1.22784
4.336
1.35882
4.88569
1.41197
5.48186
1.54681
6.12557
1.6046
6.82807
1.80439
7.57389
1.86147
8.40948
2.12101
9.28665
2.18895
10.2841
2.55259
11.3268
2.65649
12.5494
3.22244
13.8421
3.45522
15.4546
4.4342
17.1956
5.14699
19.4988
7.3037
10.0052
21.8493
0.147328
0.241809
0.301474
0.180496
0.470469
0.231597
0.645406
0.356703
0.85197
0.369937
1.08585
0.449036
1.35381
0.445721
1.64317
0.517951
1.9569
0.570848
2.30819
0.658121
2.68344
0.640525
3.09628
0.734868
3.54122
0.782903
4.03727
0.862763
4.55768
0.89157
5.13041
0.97408
5.72261
1.0124
6.38849
1.13851
7.07039
1.17956
7.85087
1.34054
8.65053
1.38929
9.58474
1.61838
10.5492
1.69201
11.7147
2.05692
12.9527
2.21726
14.5301
2.85676
16.332
3.34508
19.0614
4.57436
6.94929
22.1173
0.128329
0.11348
0.232879
0.0759459
0.361524
0.102953
0.541175
0.177052
0.727096
0.184016
0.96316
0.212972
1.20366
0.20522
1.47127
0.250337
1.77257
0.269554
2.11776
0.31293
2.45979
0.298493
2.84405
0.350612
3.25741
0.369538
3.7116
0.408579
4.18351
0.419662
4.69577
0.461815
5.23086
0.477318
5.82775
0.54162
6.45139
0.555926
7.15261
0.639309
7.88815
0.653754
8.73176
0.774761
9.62912
0.79465
10.6949
0.991127
11.8714
1.0408
13.3413
1.38689
15.0825
1.60381
17.8634
1.79344
3.76149
21.0512
0.11348
0.189426
0.292379
0.46943
0.653446
0.866418
1.07164
1.32198
1.59153
1.90446
2.20295
2.55356
2.9231
3.33168
3.75134
4.21316
4.69048
5.2321
5.78802
6.42733
7.08108
7.85585
8.6505
9.64162
10.6824
12.0693
13.6731
15.4666
19.2281
1.12462
54.1268
1.13737
54.1275
1.14959
54.128
1.16138
54.1284
1.17282
54.1288
1.18393
54.1291
1.19476
54.1294
1.20532
54.1297
1.21562
54.1299
1.22565
54.1302
1.2354
54.1305
1.24482
54.1308
1.25389
54.1312
1.26258
54.1315
1.27083
54.132
1.27862
54.1325
1.28598
54.1329
1.29293
54.1333
1.29944
54.1337
1.3055
54.1342
1.31107
54.1347
1.31611
54.1352
1.32061
54.1357
1.32453
54.1363
1.32786
54.1369
1.33057
54.1375
1.33263
54.1382
1.33403
54.1388
1.33475
54.1395
1.33477
54.1402
1.33407
54.1409
1.33266
54.1417
1.33052
54.1424
1.3276
54.1431
1.32402
54.1438
1.31985
54.1444
1.31514
54.1449
1.30991
54.1455
1.30417
54.146
1.29797
54.1464
1.29132
54.1469
1.28426
54.1473
1.27681
54.1477
1.26899
54.1481
1.26084
54.1484
1.25238
54.1487
1.24364
54.149
1.23464
54.1492
1.22541
54.1495
1.21597
54.1497
1.20634
54.1499
1.19653
54.15
1.18657
54.1502
1.17647
54.1503
1.16623
54.1505
1.15586
54.1506
1.14535
54.1507
1.13471
54.1509
1.1239
54.151
1.11291
54.1512
1.10166
54.1515
1.09014
54.1518
1.07836
54.152
1.06633
54.1523
1.05406
54.1525
1.04156
54.1527
1.02885
54.1529
1.01593
54.1532
1.00282
54.1533
0.989527
54.1535
0.97605
54.1537
0.962404
54.1539
0.948586
54.1541
0.93461
54.1542
0.92048
54.1544
0.906196
54.1545
0.891781
54.1547
0.87724
54.1548
0.862589
54.1549
0.847841
54.155
0.833029
54.155
0.818173
54.1551
0.803309
54.1551
0.788454
54.1551
0.773641
54.155
0.758888
54.155
0.744227
54.1549
0.729691
54.1548
0.715204
54.1547
0.700641
54.1548
0.685917
54.155
0.670969
54.1552
0.655759
54.1554
0.640244
54.1557
0.624399
54.1561
0.608197
54.1564
0.591627
54.1568
0.574673
54.1572
0.557335
54.1576
0.539604
54.158
0.521485
54.1584
0.502985
54.1587
0.484094
54.1591
0.46483
54.1595
0.445182
54.1599
0.42516
54.1603
0.404768
54.1606
0.384034
54.161
0.362981
54.1613
0.341663
54.1616
0.320255
54.1616
0.299044
54.1614
0.278223
54.1611
0.257948
54.1605
0.238374
54.1598
0.21959
54.159
0.201511
54.1583
0.183972
54.1578
0.166401
54.1578
0.148459
54.1582
0.130072
54.1586
0.111422
54.1589
0.0925204