/*--------------------------------*- C++ -*----------------------------------*\
| =========                 |                                                 |
| \\      /  F ield         | OpenFOAM: The Open Source CFD Toolbox           |
|  \\    /   O peration     | Version:  5.x                                   |
|   \\  /    A nd           | Web:      www.OpenFOAM.org                      |
|    \\/     M anipulation  |                                                 |
\*---------------------------------------------------------------------------*/
/*   Windows 32 and 64 bit porting by blueCAPE: http://www.bluecape.com.pt   *\
|  Based on Windows porting (2.0.x v4) by Symscape: http://www.symscape.com   |
\*---------------------------------------------------------------------------*/
FoamFile
{
    version     2.0;
    format      ascii;
    class       volVectorField;
    location    "160";
    object      U;
}
// * * * * * * * * * * * * * * * * * * * * * * * * * * * * * * * * * * * * * //

dimensions      [0 1 -1 0 0 0 0];

internalField   nonuniform List<vector> 
43900
(
(1.16158 -0.00072431 -1.89761e-027)
(1.16729 0.00215211 -5.08574e-027)
(1.16979 0.000338725 1.37532e-030)
(1.16852 0.0017732 2.71794e-030)
(1.16981 0.000819499 3.69607e-030)
(1.17012 0.00180825 3.70179e-030)
(1.1702 0.00119861 6.79175e-027)
(1.16962 0.00164929 -1.35652e-026)
(1.16993 0.00161491 9.59588e-030)
(1.16952 0.00162061 -1.35339e-026)
(1.16951 0.00181087 1.35567e-026)
(1.16955 0.0018287 1.14115e-029)
(1.16962 0.00187926 -1.34999e-026)
(1.16969 0.0019469 2.45324e-029)
(1.16975 0.00199632 2.51461e-029)
(1.16979 0.00204264 2.57367e-029)
(1.16984 0.00208761 -2.68956e-026)
(1.16987 0.00212973 5.36159e-029)
(1.16988 0.00216998 2.69223e-026)
(1.16988 0.00220806 2.77312e-029)
(1.16987 0.00224396 2.81464e-029)
(1.16987 0.00227834 2.85361e-029)
(1.16987 0.0023103 2.89045e-029)
(1.16987 0.00234042 2.92549e-029)
(1.16987 0.00236903 2.95873e-029)
(1.16987 0.00239649 -2.66358e-026)
(1.16987 0.00242222 6.04129e-029)
(1.16987 0.00244697 6.09963e-029)
(1.16987 0.00247043 1.06357e-025)
(1.15874 0.0112146 0)
(1.16567 -0.00475332 0)
(1.1714 0.00886633 0)
(1.16659 3.4274e-006 0)
(1.16879 0.0060751 0)
(1.16811 0.00291773 0)
(1.16855 0.00486089 0)
(1.16888 0.0047971 0)
(1.16844 0.0046108 0)
(1.16895 0.00531264 0)
(1.1691 0.00523999 0)
(1.16921 0.00539468 0)
(1.16927 0.00563143 0)
(1.16928 0.0057741 0)
(1.16928 0.00590261 0)
(1.16928 0.00603229 0)
(1.16928 0.00615391 0)
(1.16927 0.0062685 0)
(1.1693 0.00637358 0)
(1.16934 0.00646954 0)
(1.16938 0.00655847 0)
(1.16941 0.00664089 0)
(1.16945 0.00671891 0)
(1.16948 0.00679369 0)
(1.16951 0.00686412 0)
(1.16953 0.00693108 0)
(1.16956 0.00699562 0)
(1.16958 0.00705837 0)
(1.16961 0.00711877 0)
(1.10232 0.0320492 0)
(1.14521 -0.0176292 0)
(1.1631 0.0286544 0)
(1.1634 -0.00389563 0)
(1.16625 0.0206596 0)
(1.16437 0.00381205 0)
(1.16587 0.0148107 0)
(1.16638 0.00820319 0)
(1.16719 0.0117465 0)
(1.16749 0.0104232 0)
(1.16758 0.0107516 0)
(1.1676 0.0109351 0)
(1.16761 0.0110455 0)
(1.16768 0.0111023 0)
(1.16777 0.0111952 0)
(1.16786 0.0112937 0)
(1.16794 0.011385 0)
(1.16803 0.0114709 0)
(1.16811 0.0115567 0)
(1.16819 0.0116421 0)
(1.16825 0.0117278 0)
(1.1683 0.0118121 0)
(1.16834 0.0118969 0)
(1.16838 0.0119814 0)
(1.16842 0.0120672 0)
(1.16845 0.0121512 0)
(1.16848 0.0122335 0)
(1.16851 0.0123136 0)
(1.16853 0.0123959 1.86867e-027)
(1.04206 0.0198786 0)
(1.08812 -0.00686675 0)
(1.13102 0.0199641 0)
(1.15662 0.00766933 0)
(1.16357 0.0218651 0)
(1.16596 0.00991149 0)
(1.16471 0.0200608 0)
(1.16382 0.0128229 0)
(1.16431 0.017334 0)
(1.16453 0.0150014 0)
(1.16486 0.0159638 0)
(1.16512 0.0159054 0)
(1.16531 0.0158655 0)
(1.16547 0.0158679 0)
(1.16562 0.0159314 0)
(1.16574 0.0159919 0)
(1.16586 0.0160582 0)
(1.16598 0.016139 0)
(1.16606 0.0162323 0)
(1.16613 0.016333 0)
(1.16618 0.0164416 0)
(1.16624 0.0165553 0)
(1.16629 0.0166728 0)
(1.16633 0.0167919 0)
(1.16638 0.0169118 0)
(1.16643 0.017035 0)
(1.16647 0.01716 0)
(1.16652 0.0172819 0)
(1.16656 0.0174011 1.98591e-027)
(1.00567 0.0100582 3.98399e-027)
(1.04149 -0.0010691 0)
(1.07863 0.010606 0)
(1.11707 0.0123894 0)
(1.14678 0.01779 0)
(1.16134 0.0164192 0)
(1.16396 0.0218924 0)
(1.16479 0.0172447 0)
(1.16419 0.0208005 0)
(1.16407 0.0188562 0)
(1.16398 0.0197561 0)
(1.16414 0.0196833 0)
(1.16438 0.0196438 0)
(1.16453 0.0197352 0)
(1.16464 0.0198189 0)
(1.16474 0.019883 0)
(1.16482 0.0199604 0)
(1.16489 0.0200477 0)
(1.16496 0.0201412 0)
(1.16502 0.0202429 0)
(1.16508 0.0203495 0)
(1.16515 0.0204637 0)
(1.16522 0.0205862 0)
(1.16529 0.0207122 0)
(1.16537 0.020842 0)
(1.16544 0.0209741 0)
(1.16552 0.0211088 0)
(1.16561 0.0212496 0)
(1.16569 0.0213883 -8.36683e-027)
(0.979782 0.00669106 -4.1583e-027)
(1.01003 0.000525326 0)
(1.04162 0.00732913 0)
(1.07435 0.0105886 0)
(1.10705 0.0143174 0)
(1.1372 0.0173438 0)
(1.15602 0.0212356 0)
(1.16287 0.0206846 0)
(1.16375 0.0229693 0)
(1.16373 0.0215179 0)
(1.16404 0.0226499 0)
(1.16399 0.0225467 0)
(1.16395 0.0227134 0)
(1.16393 0.0229406 0)
(1.16395 0.0231302 0)
(1.16397 0.0233286 0)
(1.16398 0.0235262 0)
(1.16403 0.0237186 0)
(1.16406 0.0239067 0)
(1.16412 0.0240871 0)
(1.1642 0.0242661 0)
(1.16425 0.0244403 0)
(1.16434 0.0246046 0)
(1.16442 0.0247775 0)
(1.16447 0.0249423 0)
(1.16457 0.0251029 0)
(1.16464 0.0252686 0)
(1.16471 0.0254286 0)
(1.16481 0.0255955 4.4231e-027)
(0.9577 0.00502931 0)
(0.984431 0.00135534 0)
(1.01245 0.00619106 0)
(1.04155 0.00927959 0)
(1.07109 0.0124774 0)
(1.10029 0.0159349 0)
(1.12844 0.019531 0)
(1.15023 0.0219736 0)
(1.15986 0.0244157 0)
(1.16208 0.024134 0)
(1.16144 0.0246438 0)
(1.16175 0.0250662 0)
(1.16167 0.0253037 0)
(1.16163 0.0256434 0)
(1.16156 0.0259741 0)
(1.16154 0.026304 0)
(1.16157 0.0266331 0)
(1.16152 0.0269538 0)
(1.16159 0.0272616 0)
(1.16162 0.0275813 0)
(1.16162 0.0278885 0)
(1.16174 0.0281824 0)
(1.16175 0.0284946 0)
(1.1618 0.0287766 0)
(1.16193 0.0290687 0)
(1.16196 0.0293649 0)
(1.16205 0.0296295 0)
(1.16218 0.0299111 0)
(1.16223 0.0301844 0)
(0.937301 0.00437686 0)
(0.961793 0.00166387 0)
(0.987491 0.00570713 0)
(1.0142 0.0085842 0)
(1.04152 0.0114615 0)
(1.069 0.0145884 0)
(1.09608 0.0179473 0)
(1.12195 0.0212306 0)
(1.14473 0.0243316 0)
(1.15613 0.0262228 0)
(1.15854 0.0271794 0)
(1.15751 0.0273629 0)
(1.15762 0.0278619 0)
(1.15753 0.028272 0)
(1.15759 0.0287066 0)
(1.15759 0.0291457 0)
(1.15748 0.0295655 0)
(1.15766 0.0299726 0)
(1.15758 0.0304057 0)
(1.1576 0.0308118 0)
(1.15777 0.0312138 0)
(1.15766 0.0316561 0)
(1.15778 0.0320295 0)
(1.15792 0.0324523 0)
(1.15784 0.032865 0)
(1.15803 0.0332338 0)
(1.15814 0.0336624 0)
(1.15811 0.0340338 0)
(1.15833 0.0344104 0)
(0.919086 0.00361874 0)
(0.941806 0.002042 0)
(0.965627 0.00540492 0)
(0.990405 0.00813418 0)
(1.01584 0.0108298 0)
(1.0416 0.0136955 0)
(1.06727 0.0167599 0)
(1.09238 0.0199677 0)
(1.11616 0.023207 0)
(1.13781 0.0261426 0)
(1.15083 0.0284825 0)
(1.15401 0.0295366 0)
(1.15328 0.0298359 0)
(1.15343 0.0304709 0)
(1.15331 0.0310345 0)
(1.15329 0.0315856 0)
(1.15362 0.032121 0)
(1.15334 0.0327074 0)
(1.15358 0.0332343 0)
(1.15375 0.0337789 0)
(1.15346 0.0343758 0)
(1.15386 0.034842 0)
(1.15389 0.0354448 0)
(1.15374 0.0359711 0)
(1.15419 0.0364477 0)
(1.15415 0.0370531 0)
(1.15413 0.0375165 0)
(1.15458 0.0380451 0)
(1.15453 0.038573 0)
(0.901565 0.00284856 0)
(0.923163 0.00251737 0)
(0.945799 0.0054209 0)
(0.96932 0.00808278 0)
(0.993475 0.0107068 0)
(1.01798 0.0134395 0)
(1.04254 0.0163181 0)
(1.06678 0.0193198 0)
(1.09026 0.0224008 0)
(1.11245 0.0254817 0)
(1.13246 0.0283674 0)
(1.1458 0.0307186 0)
(1.1492 0.0318648 0)
(1.14879 0.03234 0)
(1.14914 0.0330654 0)
(1.14949 0.033701 0)
(1.149 0.0344538 0)
(1.14967 0.0350742 0)
(1.1496 0.0357853 0)
(1.14937 0.0365496 0)
(1.15013 0.0371068 0)
(1.14984 0.0379182 0)
(1.14989 0.0385521 0)
(1.15059 0.0391674 0)
(1.15023 0.0399863 0)
(1.15052 0.0405038 0)
(1.15111 0.041232 0)
(1.1508 0.0419187 0)
(1.15123 0.0424905 -1.15349e-026)
(0.884407 0.00271165 0)
(0.905028 0.00277454 0)
(0.926703 0.00560444 0)
(0.949248 0.00827905 0)
(0.972444 0.0109024 0)
(0.996043 0.0136001 0)
(1.01978 0.0164079 0)
(1.04336 0.0193083 0)
(1.06646 0.0222738 0)
(1.08869 0.0252687 0)
(1.10955 0.0282225 0)
(1.12831 0.0309985 0)
(1.14082 0.0332794 0)
(1.14339 0.0344581 0)
(1.14318 0.0350788 0)
(1.14273 0.035995 0)
(1.14376 0.0367236 0)
(1.14329 0.0375383 0)
(1.14339 0.038499 0)
(1.14425 0.0391373 0)
(1.14362 0.0401805 0)
(1.14409 0.0408504 0)
(1.14478 0.0416373 0)
(1.14423 0.042725 0)
(1.1449 0.0431651 0)
(1.14541 0.0442028 0)
(1.14504 0.0450009 0)
(1.14586 0.0456018 0)
(1.14623 0.0465488 1.21838e-026)
(0.867538 0.00244771 0)
(0.887431 0.0029783 0)
(0.908383 0.00571196 0)
(0.930214 0.00836974 0)
(0.952706 0.0109767 0)
(0.975646 0.0136333 0)
(0.998799 0.0163709 0)
(1.02191 0.0191762 0)
(1.0447 0.022028 0)
(1.06686 0.0249032 0)
(1.088 0.0277671 0)
(1.10755 0.0305512 0)
(1.12462 0.0332075 0)
(1.13384 0.0353391 0)
(1.13497 0.0365677 0)
(1.13595 0.0374717 0)
(1.1349 0.0386021 0)
(1.13534 0.0397129 0)
(1.13602 0.0405235 0)
(1.13521 0.0420272 0)
(1.13606 0.0427266 0)
(1.13645 0.0438029 0)
(1.13588 0.0451822 0)
(1.13694 0.0456933 0)
(1.13712 0.0471064 0)
(1.13693 0.0479825 0)
(1.13805 0.0488214 0)
(1.13813 0.0500614 0)
(1.13812 0.0508181 1.33197e-026)
(0.851393 0.00216523 0)
(0.870685 0.00317249 0)
(0.891036 0.00582213 0)
(0.912309 0.00846352 0)
(0.934306 0.011073 0)
(0.956792 0.0137181 0)
(0.979547 0.0164236 0)
(1.00235 0.0191786 0)
(1.02494 0.0219668 0)
(1.04705 0.0247711 0)
(1.06834 0.0275674 0)
(1.08836 0.0303133 0)
(1.10647 0.0329701 0)
(1.12085 0.0355182 0)
(1.12622 0.0373833 0)
(1.12555 0.0387629 0)
(1.12659 0.0401245 0)
(1.12704 0.0411509 0)
(1.1261 0.0431727 0)
(1.12714 0.0439792 0)
(1.12734 0.0454666 0)
(1.12687 0.0470504 0)
(1.12819 0.0477664 0)
(1.12818 0.0497385 0)
(1.12815 0.0505287 0)
(1.12917 0.0518237 0)
(1.12932 0.0533592 0)
(1.12948 0.0541222 0)
(1.13071 0.0555953 -1.40747e-026)
(0.835727 0.0019722 0)
(0.85452 0.00340489 0)
(0.874383 0.00606261 0)
(0.89517 0.00874484 0)
(0.916727 0.0114137 0)
(0.938863 0.0141206 0)
(0.961338 0.0168783 0)
(0.983915 0.0196752 0)
(1.00637 0.0224971 0)
(1.02846 0.0253297 0)
(1.04988 0.0281554 0)
(1.07026 0.0309443 0)
(1.08906 0.0336393 0)
(1.10547 0.0362342 0)
(1.11409 0.0388509 0)
(1.11681 0.040478 0)
(1.11681 0.0418083 0)
(1.11594 0.0440971 0)
(1.11734 0.0449959 0)
(1.11783 0.0471527 0)
(1.11741 0.0487718 0)
(1.11869 0.0498203 0)
(1.11868 0.0522763 0)
(1.11888 0.0530098 0)
(1.1199 0.0547993 0)
(1.12059 0.056485 0)
(1.12076 0.0574833 0)
(1.12187 0.0594498 0)
(1.12209 0.0604764 -1.54472e-026)
(0.820116 0.00188237 0)
(0.838473 0.00369369 0)
(0.85793 0.00645889 0)
(0.878332 0.00926276 0)
(0.899509 0.0120615 0)
(0.921294 0.0148952 0)
(0.943511 0.0177811 0)
(0.965932 0.0207079 0)
(0.988303 0.0236584 0)
(1.01039 0.0266211 0)
(1.03192 0.0295821 0)
(1.05254 0.0325178 0)
(1.07178 0.0353837 0)
(1.08898 0.038243 0)
(1.10102 0.0408442 0)
(1.10439 0.0431636 0)
(1.10467 0.0452811 0)
(1.10623 0.0465577 0)
(1.10658 0.0492037 0)
(1.10599 0.05088 0)
(1.10724 0.0524351 0)
(1.10802 0.0550194 0)
(1.10856 0.0559871 0)
(1.10958 0.0584422 0)
(1.11054 0.0600494 0)
(1.11038 0.06152 0)
(1.1116 0.0638274 0)
(1.11265 0.0648003 0)
(1.11355 0.0668729 1.63289e-026)
(0.80426 0.00189304 0)
(0.822219 0.00403932 0)
(0.841305 0.00699633 0)
(0.861371 0.00999761 0)
(0.882246 0.0130001 0)
(0.903747 0.016035 0)
(0.925687 0.0191147 0)
(0.947888 0.0222365 0)
(0.970137 0.0253902 0)
(0.992166 0.0285596 0)
(1.0137 0.0317304 0)
(1.03444 0.0348799 0)
(1.05397 0.0379521 0)
(1.07181 0.040905 0)
(1.08607 0.0440765 0)
(1.09103 0.0465893 0)
(1.09224 0.0486317 0)
(1.09292 0.0513497 0)
(1.09286 0.0531554 0)
(1.09427 0.0555893 0)
(1.09593 0.0578861 0)
(1.0959 0.0594962 0)
(1.09645 0.0624356 0)
(1.09796 0.0639046 0)
(1.09811 0.0660102 0)
(1.0996 0.0683574 0)
(1.1017 0.0696193 0)
(1.10196 0.0721418 0)
(1.10256 0.0738277 0)
(0.787912 0.00198652 0)
(0.80549 0.00444434 0)
(0.824225 0.00766095 0)
(0.843969 0.0109238 0)
(0.864558 0.0141905 0)
(0.885813 0.0174876 0)
(0.907543 0.0208246 0)
(0.929553 0.0241941 0)
(0.951655 0.0275871 0)
(0.973647 0.0309946 0)
(0.99527 0.0344003 0)
(1.01623 0.0377807 0)
(1.03619 0.0410999 0)
(1.05464 0.0443263 0)
(1.06961 0.0475314 0)
(1.07563 0.0511169 0)
(1.07821 0.0532148 0)
(1.07873 0.0556636 0)
(1.07946 0.0587155 0)
(1.0818 0.0606237 0)
(1.08135 0.0633894 0)
(1.0818 0.0663332 0)
(1.08463 0.0677865 0)
(1.08531 0.0707364 0)
(1.08619 0.0729764 0)
(1.0887 0.0746546 0)
(1.0884 0.0776427 0)
(1.08928 0.0793932 0)
(1.09258 0.0812021 0)
(0.770933 0.00214592 0)
(0.788138 0.00491261 0)
(0.806535 0.00844932 0)
(0.82598 0.0120335 0)
(0.846312 0.0156214 0)
(0.867355 0.0192394 0)
(0.888924 0.0228959 0)
(0.910827 0.0265823 0)
(0.932864 0.0302884 0)
(0.954834 0.0340077 0)
(0.976498 0.0377315 0)
(0.997551 0.0414439 0)
(1.0176 0.0451084 0)
(1.03603 0.048669 0)
(1.05136 0.0526135 0)
(1.06104 0.0553501 0)
(1.06356 0.0585757 0)
(1.0633 0.0619121 0)
(1.06643 0.0636614 0)
(1.0661 0.0677006 0)
(1.06644 0.070311 0)
(1.07048 0.0719024 0)
(1.07125 0.0759422 0)
(1.07124 0.0780352 0)
(1.07424 0.0801001 0)
(1.07448 0.0839104 0)
(1.07597 0.0851976 0)
(1.08001 0.0877782 0)
(1.08006 0.0907956 0)
(0.75316 0.00237182 4.70109e-026)
(0.769988 0.00546621 0)
(0.788045 0.0093941 0)
(0.80719 0.0133728 0)
(0.827264 0.0173554 0)
(0.84809 0.0213708 0)
(0.869485 0.0254282 0)
(0.891254 0.0295183 0)
(0.913194 0.0336288 0)
(0.935091 0.0377479 0)
(0.95672 0.0418642 0)
(0.977806 0.0459561 0)
(0.998021 0.0499769 0)
(1.01708 0.0538603 0)
(1.03519 0.0574375 0)
(1.04536 0.0617086 0)
(1.04544 0.0654989 0)
(1.04944 0.0671358 0)
(1.04977 0.0722322 0)
(1.05053 0.0744214 0)
(1.05529 0.0765823 0)
(1.05537 0.0817143 0)
(1.05523 0.0831587 0)
(1.0589 0.0859724 0)
(1.06012 0.0904799 0)
(1.06192 0.0910993 0)
(1.06517 0.0948664 0)
(1.06542 0.0977561 0)
(1.06764 0.0992044 0)
(0.73442 0.00264788 1.6676e-027)
(0.750855 0.00609501 0)
(0.768559 0.0104738 0)
(0.787393 0.0149066 0)
(0.8072 0.0193409 0)
(0.827806 0.0238084 0)
(0.849031 0.0283179 0)
(0.870689 0.0328573 0)
(0.892588 0.0374105 0)
(0.914534 0.0419618 0)
(0.936329 0.0464965 0)
(0.957762 0.0509923 0)
(0.978586 0.0554054 0)
(0.998396 0.0596341 0)
(1.01593 0.0642666 0)
(1.02429 0.0687935 0)
(1.03154 0.071446 0)
(1.03231 0.0771191 0)
(1.03394 0.078612 0)
(1.03775 0.0819188 0)
(1.03734 0.0875919 0)
(1.03939 0.0883572 0)
(1.04279 0.0930601 0)
(1.04387 0.0968381 0)
(1.04649 0.0976877 0)
(1.04935 0.10267 0)
(1.05061 0.105034 0)
(1.05425 0.107425 0)
(1.05591 0.111107 0)
(0.714685 0.00296333 -5.44738e-026)
(0.730713 0.00679053 0)
(0.748057 0.0116724 0)
(0.76658 0.016612 0)
(0.786128 0.0215507 0)
(0.806532 0.0265245 0)
(0.827616 0.0315437 0)
(0.849196 0.0365958 0)
(0.871084 0.041665 0)
(0.89308 0.0467377 0)
(0.914964 0.0518018 0)
(0.936468 0.0568453 0)
(0.957232 0.0618503 0)
(0.976748 0.0667652 0)
(0.994542 0.0714998 0)
(1.00852 0.0764569 0)
(1.01256 0.0814012 0)
(1.01665 0.0828338 0)
(1.01841 0.0884631 0)
(1.01883 0.0931335 0)
(1.02334 0.0947543 0)
(1.02377 0.100729 0)
(1.02622 0.10276 0)
(1.031 0.105631 0)
(1.03302 0.111198 0)
(1.03415 0.11292 0)
(1.03781 0.116719 0)
(1.03937 0.120168 0)
(1.04254 0.122849 0)
(0.693899 0.00332435 0)
(0.7095 0.00756836 0)
(0.726463 0.0130162 0)
(0.744654 0.0185275 0)
(0.763922 0.024038 0)
(0.784097 0.0295897 0)
(0.805003 0.0351955 0)
(0.826457 0.0408419 0)
(0.848267 0.0465118 0)
(0.870235 0.0521897 0)
(0.892151 0.0578611 0)
(0.91378 0.0635012 0)
(0.934858 0.069056 0)
(0.955079 0.0744165 0)
(0.974232 0.0799854 0)
(0.988626 0.0849841 0)
(0.99747 0.0882019 0)
(0.997074 0.0957084 0)
(0.998735 0.0980937 0)
(1.00358 0.101681 0)
(1.00466 0.107933 0)
(1.00991 0.10904 0)
(1.01365 0.115076 0)
(1.01325 0.118952 0)
(1.01505 0.121212 0)
(1.02032 0.126648 0)
(1.02286 0.128553 0)
(1.02755 0.132328 0)
(1.03192 0.13574 0)
(0.672012 0.00371668 -6.7456e-026)
(0.687161 0.00841034 0)
(0.70372 0.0144723 0)
(0.721557 0.0206029 0)
(0.740522 0.0267314 0)
(0.760452 0.0329057 0)
(0.781173 0.0391394 0)
(0.802508 0.0454161 0)
(0.824272 0.051714 0)
(0.846276 0.0580114 0)
(0.868321 0.064287 0)
(0.890188 0.0705129 0)
(0.911624 0.0766446 0)
(0.932358 0.0825684 0)
(0.952455 0.0882377 0)
(0.969784 0.093762 0)
(0.973519 0.101834 0)
(0.978802 0.102956 0)
(0.984138 0.109696 0)
(0.985822 0.114155 0)
(0.990914 0.117306 0)
(0.990764 0.124341 0)
(0.992542 0.126397 0)
(0.99853 0.130633 0)
(1.00374 0.13649 0)
(1.00654 0.13805 0)
(1.01058 0.143337 0)
(1.01197 0.146605 0)
(1.01559 0.149525 6.20328e-026)
(0.64909 0.00413362 -2.3118e-027)
(0.663767 0.00930504 0)
(0.679902 0.0160205 0)
(0.69737 0.0228094 0)
(0.716021 0.029595 0)
(0.735698 0.0364318 0)
(0.756233 0.0433355 0)
(0.777453 0.0502876 0)
(0.79918 0.0572646 0)
(0.821235 0.0642449 0)
(0.843431 0.0712079 0)
(0.865571 0.0781283 0)
(0.887444 0.0849632 0)
(0.908806 0.0916201 0)
(0.929558 0.0982762 0)
(0.94462 0.105607 0)
(0.957594 0.10915 0)
(0.960687 0.118034 0)
(0.963833 0.120559 0)
(0.967152 0.125712 0)
(0.96898 0.132327 0)
(0.976385 0.13461 0)
(0.981548 0.141959 0)
(0.981455 0.145426 0)
(0.984977 0.147995 0)
(0.991042 0.154897 0)
(0.993569 0.157765 0)
(1.00027 0.161987 0)
(1.00343 0.166986 1.23801e-027)
(0.625185 0.00457749 7.82333e-026)
(0.639368 0.0102561 0)
(0.655061 0.0176675 0)
(0.672138 0.0251582 0)
(0.690456 0.0326463 0)
(0.709862 0.0401947 0)
(0.730192 0.0478214 0)
(0.751277 0.0555071 0)
(0.772944 0.063227 0)
(0.795013 0.0709581 0)
(0.817293 0.0786786 0)
(0.839573 0.0863658 0)
(0.861608 0.0939868 0)
(0.883114 0.101445 0)
(0.904054 0.108692 0)
(0.923724 0.115786 0)
(0.932008 0.124648 0)
(0.942182 0.126518 0)
(0.946067 0.135101 0)
(0.949144 0.140044 0)
(0.955022 0.143987 0)
(0.955467 0.15197 0)
(0.959918 0.153815 0)
(0.967819 0.161072 0)
(0.971959 0.165586 0)
(0.974064 0.168643 0)
(0.98004 0.174631 0)
(0.98245 0.177818 0)
(0.989756 0.181497 -7.0883e-026)
(0.600352 0.0050432 0)
(0.614021 0.0112569 0)
(0.629246 0.0194016 0)
(0.645905 0.0276322 0)
(0.66386 0.0358634 0)
(0.682962 0.0441675 0)
(0.703051 0.0525657 0)
(0.723965 0.061038 0)
(0.745533 0.0695585 0)
(0.767583 0.0781037 0)
(0.789932 0.0866501 0)
(0.812385 0.095169 0)
(0.834729 0.103613 0)
(0.856697 0.111883 0)
(0.878056 0.120105 0)
(0.898082 0.12821 0)
(0.916821 0.133849 0)
(0.920079 0.144068 0)
(0.925072 0.146115 0)
(0.928445 0.153739 0)
(0.932033 0.160993 0)
(0.942288 0.163648 0)
(0.945823 0.173202 0)
(0.948133 0.175452 0)
(0.953147 0.180643 0)
(0.960309 0.188165 0)
(0.964626 0.190353 0)
(0.972908 0.196877 0)
(0.974081 0.20021 0)
(0.574694 0.00551981 0)
(0.58783 0.0122885 0)
(0.602564 0.0211893 0)
(0.61878 0.0301815 0)
(0.636343 0.0391778 0)
(0.65511 0.0482598 0)
(0.674927 0.0574508 0)
(0.695636 0.0667291 0)
(0.717074 0.0760663 0)
(0.739072 0.085435 0)
(0.761457 0.094807 0)
(0.784045 0.104153 0)
(0.806653 0.113428 0)
(0.829136 0.122524 0)
(0.851676 0.131182 0)
(0.87417 0.140078 0)
(0.887748 0.149648 0)
(0.901588 0.153679 0)
(0.904574 0.16591 0)
(0.910996 0.169319 0)
(0.916331 0.174812 0)
(0.917952 0.183001 0)
(0.925658 0.185263 0)
(0.935138 0.196013 0)
(0.938221 0.199461 0)
(0.940521 0.20349 0)
(0.949147 0.209933 0)
(0.955174 0.213683 0)
(0.966195 0.220702 8.36356e-026)
(0.548341 0.00600271 0)
(0.560929 0.0133421 0)
(0.575154 0.0230146 0)
(0.590902 0.0327839 0)
(0.608048 0.0425624 0)
(0.626454 0.0524412 0)
(0.645973 0.0624465 0)
(0.666454 0.0725552 0)
(0.687743 0.0827372 0)
(0.709681 0.0929631 0)
(0.732109 0.103203 0)
(0.754861 0.113423 0)
(0.777766 0.123578 0)
(0.800658 0.133603 0)
(0.823471 0.143533 0)
(0.846588 0.15283 0)
(0.868274 0.162321 0)
(0.873888 0.173398 0)
(0.883475 0.175124 0)
(0.889388 0.186081 0)
(0.896025 0.1929 0)
(0.906275 0.199293 0)
(0.906389 0.207304 0)
(0.912095 0.209253 0)
(0.920417 0.218621 0)
(0.931561 0.224847 0)
(0.934129 0.228163 0)
(0.940201 0.23466 0)
(0.945772 0.237341 1.16315e-027)
(0.521433 0.0064852 0)
(0.53346 0.0144066 0)
(0.547159 0.0248589 0)
(0.562418 0.0354129 0)
(0.579119 0.0459832 0)
(0.597134 0.0566715 0)
(0.616322 0.0675067 0)
(0.636539 0.0784654 0)
(0.657639 0.0895167 0)
(0.679471 0.10063 0)
(0.701885 0.111779 0)
(0.724722 0.122932 0)
(0.747822 0.134044 0)
(0.771063 0.145039 0)
(0.794436 0.155716 0)
(0.817649 0.16705 0)
(0.836936 0.177449 0)
(0.857341 0.185221 0)
(0.862236 0.19982 0)
(0.87003 0.200344 0)
(0.874053 0.208555 0)
(0.879518 0.216966 0)
(0.89205 0.222974 0)
(0.899647 0.234421 0)
(0.9017 0.235986 0)
(0.908106 0.241758 0)
(0.920287 0.250261 0)
(0.925629 0.254282 0)
(0.936688 0.261913 -1.91745e-025)
(0.494119 0.0069617 0)
(0.505577 0.015473 0)
(0.518732 0.0267056 0)
(0.533479 0.0380449 0)
(0.549707 0.0494107 0)
(0.567295 0.0609158 0)
(0.586113 0.0725927 0)
(0.606022 0.0844185 0)
(0.626883 0.0963628 0)
(0.648553 0.108397 0)
(0.670892 0.120494 0)
(0.693747 0.132622 0)
(0.716954 0.144745 0)
(0.740362 0.156814 0)
(0.763897 0.168734 0)
(0.788167 0.180119 0)
(0.811928 0.192769 0)
(0.825249 0.20312 0)
(0.843191 0.207875 0)
(0.849979 0.225165 0)
(0.85683 0.227261 0)
(0.86335 0.236657 0)
(0.865933 0.243965 0)
(0.876196 0.248149 0)
(0.892324 0.262375 0)
(0.895359 0.26398 0)
(0.901375 0.270265 0)
(0.910862 0.276875 0)
(0.917992 0.280839 -9.91591e-028)
(0.466552 0.0074239 0)
(0.477436 0.0165279 0)
(0.490034 0.028531 0)
(0.504246 0.040645 0)
(0.519971 0.0527978 0)
(0.537095 0.0651137 0)
(0.555496 0.0776285 0)
(0.575044 0.09032 0)
(0.595606 0.103159 0)
(0.617047 0.116117 0)
(0.639231 0.129167 0)
(0.662018 0.142278 0)
(0.685266 0.155411 0)
(0.70884 0.168509 0)
(0.73268 0.181419 0)
(0.756996 0.194564 0)
(0.781666 0.206413 0)
(0.806238 0.219173 0)
(0.81362 0.2312 0)
(0.828053 0.235031 0)
(0.832934 0.249423 0)
(0.842154 0.255415 0)
(0.856085 0.265474 0)
(0.856373 0.272531 0)
(0.865961 0.275726 0)
(0.881762 0.289809 0)
(0.886587 0.292787 0)
(0.896438 0.299393 0)
(0.90558 0.307128 1.09675e-025)
(0.438898 0.00786401 0)
(0.449207 0.0175585 0)
(0.461239 0.0303117 0)
(0.474898 0.0431788 0)
(0.490092 0.0560987 0)
(0.506719 0.0692063 0)
(0.524664 0.0825405 0)
(0.543806 0.0960794 0)
(0.56402 0.109794 0)
(0.585179 0.123657 0)
(0.607158 0.137639 0)
(0.629821 0.151704 0)
(0.653044 0.165815 0)
(0.676705 0.179925 0)
(0.700763 0.193939 0)
(0.725953 0.207415 0)
(0.751299 0.222326 0)
(0.773491 0.234406 0)
(0.797455 0.245713 0)
(0.801911 0.262137 0)
(0.81468 0.264243 0)
(0.818243 0.276145 0)
(0.829114 0.284257 0)
(0.848362 0.295003 0)
(0.848933 0.303676 0)
(0.857994 0.306444 0)
(0.872565 0.318966 0)
(0.880683 0.322619 0)
(0.890599 0.328773 1.181e-025)
(0.411318 0.00827661 0)
(0.421057 0.018556 0)
(0.432517 0.0320319 0)
(0.445609 0.0456235 0)
(0.460251 0.0592842 0)
(0.476352 0.0731592 0)
(0.493804 0.0872901 0)
(0.512497 0.101657 0)
(0.532316 0.116233 0)
(0.553145 0.130993 0)
(0.574867 0.145908 0)
(0.597363 0.160942 0)
(0.620507 0.176058 0)
(0.644208 0.191219 0)
(0.668397 0.206343 0)
(0.693234 0.221648 0)
(0.720355 0.235292 0)
(0.745544 0.253771 0)
(0.762703 0.263996 0)
(0.784861 0.274107 0)
(0.78982 0.293477 0)
(0.803991 0.29495 0)
(0.807551 0.306731 0)
(0.817758 0.314765 0)
(0.840035 0.325008 0)
(0.842083 0.336102 0)
(0.85206 0.337901 0)
(0.868586 0.350676 0)
(0.875205 0.354275 -1.25464e-025)
(0.383966 0.00865619 0)
(0.393143 0.0195118 0)
(0.404031 0.0336759 0)
(0.416545 0.0479566 0)
(0.430616 0.0623245 0)
(0.446162 0.0769347 0)
(0.463087 0.0918315 0)
(0.481287 0.106997 0)
(0.500656 0.122408 0)
(0.521088 0.138042 0)
(0.542473 0.15387 0)
(0.564715 0.169872 0)
(0.587694 0.18601 0)
(0.611305 0.202226 0)
(0.635509 0.218451 0)
(0.660456 0.234682 0)
(0.686413 0.251325 0)
(0.713706 0.265561 0)
(0.739078 0.285257 0)
(0.751605 0.295853 0)
(0.772448 0.304833 0)
(0.778397 0.324735 0)
(0.793244 0.326101 0)
(0.799724 0.339822 0)
(0.80972 0.348278 0)
(0.833146 0.357339 0)
(0.836682 0.369535 0)
(0.848323 0.371242 0)
(0.867752 0.383819 1.34003e-025)
(0.356989 0.00899811 0)
(0.365617 0.0204184 0)
(0.375935 0.0352302 0)
(0.387865 0.0501582 0)
(0.40135 0.0651935 0)
(0.416318 0.0805003 0)
(0.432682 0.0961255 0)
(0.450348 0.112054 0)
(0.469217 0.128267 0)
(0.489191 0.144744 0)
(0.510168 0.161463 0)
(0.532057 0.178405 0)
(0.554767 0.195533 0)
(0.578196 0.212807 0)
(0.602274 0.230164 0)
(0.627014 0.247552 0)
(0.653599 0.264983 0)
(0.680019 0.283507 0)
(0.706485 0.297748 0)
(0.732489 0.317421 0)
(0.741397 0.32977 0)
(0.762353 0.33845 0)
(0.768196 0.356656 0)
(0.783358 0.359729 0)
(0.793756 0.374445 0)
(0.804029 0.383052 0)
(0.828641 0.391043 0)
(0.833451 0.403674 0)
(0.847613 0.406005 -2.84975e-025)
(0.330521 0.00929844 0)
(0.338615 0.0212688 0)
(0.348372 0.036682 0)
(0.359715 0.0522101 0)
(0.372602 0.0678674 0)
(0.386973 0.0838259 0)
(0.402748 0.100135 0)
(0.419841 0.116784 0)
(0.438162 0.133757 0)
(0.457621 0.151042 0)
(0.478129 0.16862 0)
(0.499599 0.186469 0)
(0.521952 0.204556 0)
(0.545093 0.222857 0)
(0.568959 0.241333 0)
(0.593552 0.259846 0)
(0.618986 0.278754 0)
(0.648293 0.297121 0)
(0.674137 0.317675 0)
(0.697977 0.331636 0)
(0.724042 0.349173 0)
(0.731567 0.365541 0)
(0.753667 0.373046 0)
(0.758688 0.39078 0)
(0.775603 0.395077 0)
(0.789833 0.410143 0)
(0.800957 0.41893 0)
(0.826345 0.42617 0)
(0.834009 0.438899 3.80122e-028)
(0.304683 0.00955378 0)
(0.312264 0.0220564 0)
(0.321469 0.0380194 0)
(0.332228 0.0540949 0)
(0.344513 0.0703229 0)
(0.358271 0.0868821 0)
(0.373433 0.103824 0)
(0.38992 0.121141 0)
(0.407649 0.138824 0)
(0.426539 0.156864 0)
(0.446509 0.17525 0)
(0.46748 0.193957 0)
(0.489389 0.212976 0)
(0.512153 0.232279 0)
(0.535698 0.25181 0)
(0.560019 0.271492 0)
(0.585437 0.291218 0)
(0.611973 0.311837 0)
(0.644384 0.330763 0)
(0.667897 0.353884 0)
(0.689162 0.366629 0)
(0.715705 0.3837 0)
(0.722997 0.401866 0)
(0.746081 0.41009 0)
(0.752242 0.426923 0)
(0.771489 0.432351 0)
(0.788976 0.448337 0)
(0.801234 0.45661 0)
(0.825577 0.462609 7.82382e-028)
(0.279586 0.00976144 0)
(0.286676 0.0227745 0)
(0.295345 0.0392306 0)
(0.305526 0.0557961 0)
(0.317206 0.0725392 0)
(0.330342 0.0896432 0)
(0.344872 0.107161 0)
(0.360724 0.125092 0)
(0.377825 0.143431 0)
(0.396099 0.162176 0)
(0.415473 0.181321 0)
(0.435877 0.200849 0)
(0.457251 0.220756 0)
(0.479555 0.241002 0)
(0.502701 0.261557 0)
(0.526673 0.28236 0)
(0.551576 0.303375 0)
(0.578639 0.324467 0)
(0.606201 0.347031 0)
(0.640647 0.366997 0)
(0.661489 0.391454 0)
(0.68117 0.40477 0)
(0.708222 0.4209 0)
(0.715582 0.439913 0)
(0.740208 0.448146 0)
(0.748531 0.464546 0)
(0.769432 0.471133 0)
(0.791997 0.487878 0)
(0.804321 0.495252 1.70532e-025)
(0.255325 0.00991917 0)
(0.261951 0.0234163 0)
(0.2701 0.0403036 0)
(0.279714 0.0572974 0)
(0.290792 0.0744951 0)
(0.3033 0.0920833 0)
(0.317184 0.110117 0)
(0.332378 0.1286 0)
(0.348815 0.147537 0)
(0.36643 0.166932 0)
(0.385156 0.186783 0)
(0.404931 0.207085 0)
(0.425698 0.227819 0)
(0.44744 0.248983 0)
(0.470102 0.270554 0)
(0.493642 0.292472 0)
(0.518149 0.314633 0)
(0.543911 0.33736 0)
(0.573284 0.359675 0)
(0.600641 0.384937 0)
(0.635974 0.40446 0)
(0.654189 0.430092 0)
(0.674007 0.444183 0)
(0.70201 0.460478 0)
(0.71065 0.480098 0)
(0.738379 0.488965 0)
(0.746811 0.504189 0)
(0.771362 0.512585 0)
(0.797245 0.527481 -1.78491e-025)
(0.231988 0.0100251 0)
(0.238175 0.0239741 0)
(0.245826 0.0412259 0)
(0.254885 0.0585814 0)
(0.265366 0.0761686 0)
(0.277245 0.0941757 0)
(0.290471 0.11266 0)
(0.304987 0.131631 0)
(0.320731 0.151103 0)
(0.337645 0.171087 0)
(0.355671 0.191589 0)
(0.374757 0.212612 0)
(0.394852 0.234144 0)
(0.415926 0.256189 0)
(0.437989 0.278726 0)
(0.460985 0.301715 0)
(0.484959 0.325098 0)
(0.510321 0.348768 0)
(0.537214 0.373589 0)
(0.568803 0.397115 0)
(0.595513 0.425181 0)
(0.631057 0.44373 0)
(0.647668 0.471541 0)
(0.669218 0.485256 0)
(0.697675 0.502061 0)
(0.709409 0.522839 0)
(0.739509 0.530962 0)
(0.749447 0.547455 0)
(0.777454 0.556452 1.90148e-025)
(0.209647 0.0100775 0)
(0.215424 0.0244401 0)
(0.222597 0.0419838 0)
(0.231117 0.0596299 0)
(0.241012 0.077537 0)
(0.252262 0.0958932 0)
(0.264824 0.114757 0)
(0.278644 0.134149 0)
(0.293668 0.154089 0)
(0.309843 0.174598 0)
(0.327121 0.195692 0)
(0.345456 0.217382 0)
(0.364809 0.239668 0)
(0.385148 0.26254 0)
(0.406495 0.286008 0)
(0.428855 0.310052 0)
(0.452201 0.334629 0)
(0.476785 0.359591 0)
(0.503476 0.385256 0)
(0.531403 0.412216 0)
(0.565296 0.437644 0)
(0.591166 0.467364 0)
(0.626291 0.485572 0)
(0.642598 0.515075 0)
(0.666387 0.527708 0)
(0.694936 0.54725 0)
(0.712236 0.566753 0)
(0.743928 0.574391 0)
(0.757317 0.593431 0)
(0.188367 0.010075 0)
(0.193763 0.0248059 0)
(0.200481 0.0425636 0)
(0.208479 0.0604248 0)
(0.217797 0.078578 0)
(0.228423 0.0972089 0)
(0.240316 0.116379 0)
(0.253426 0.136118 0)
(0.267706 0.156455 0)
(0.283109 0.177422 0)
(0.299592 0.199045 0)
(0.317119 0.221342 0)
(0.335662 0.244328 0)
(0.3552 0.267999 0)
(0.375728 0.29236 0)
(0.397314 0.317422 0)
(0.41998 0.343165 0)
(0.443786 0.369472 0)
(0.469162 0.396423 0)
(0.497605 0.424221 0)
(0.526303 0.453478 0)
(0.562464 0.481176 0)
(0.586891 0.510819 0)
(0.622077 0.531154 0)
(0.641294 0.559802 0)
(0.665551 0.574142 0)
(0.696988 0.595782 0)
(0.71805 0.611521 0)
(0.752203 0.622491 2.06198e-025)
(0.1682 0.0100164 0)
(0.173246 0.0250633 0)
(0.179531 0.0429519 0)
(0.187024 0.0609488 0)
(0.195779 0.0792705 0)
(0.205786 0.0980983 0)
(0.217007 0.117497 0)
(0.229398 0.137506 0)
(0.242913 0.158166 0)
(0.257511 0.17952 0)
(0.273157 0.201605 0)
(0.289822 0.22445 0)
(0.307489 0.248081 0)
(0.326146 0.27251 0)
(0.345792 0.297738 0)
(0.366471 0.323775 0)
(0.3883 0.350642 0)
(0.411378 0.378258 0)
(0.435688 0.406597 0)
(0.462315 0.435987 0)
(0.492766 0.465477 0)
(0.521681 0.498779 0)
(0.560924 0.525978 0)
(0.582634 0.558401 0)
(0.621489 0.579803 0)
(0.641904 0.606565 0)
(0.669884 0.624683 0)
(0.704958 0.643936 0)
(0.727997 0.661089 -5.04605e-027)
(0.14919 0.00990063 0)
(0.153913 0.0252046 0)
(0.159787 0.0431364 0)
(0.166794 0.0611872 0)
(0.174999 0.0795971 0)
(0.184395 0.0985413 0)
(0.194945 0.118088 0)
(0.206607 0.138288 0)
(0.21934 0.159194 0)
(0.233106 0.180861 0)
(0.247875 0.203337 0)
(0.263628 0.226667 0)
(0.280354 0.250885 0)
(0.298055 0.276018 0)
(0.316745 0.302082 0)
(0.336455 0.329075 0)
(0.357285 0.357012 0)
(0.379427 0.38597 0)
(0.40302 0.415621 0)
(0.428079 0.44674 0)
(0.456796 0.478096 0)
(0.488198 0.510901 0)
(0.519246 0.546855 0)
(0.558973 0.573987 0)