/*--------------------------------*- C++ -*----------------------------------*\
| =========                 |                                                 |
| \\      /  F ield         | OpenFOAM: The Open Source CFD Toolbox           |
|  \\    /   O peration     | Version:  5.x                                   |
|   \\  /    A nd           | Web:      www.OpenFOAM.org                      |
|    \\/     M anipulation  |                                                 |
\*---------------------------------------------------------------------------*/
/*   Windows 32 and 64 bit porting by blueCAPE: http://www.bluecape.com.pt   *\
|  Based on Windows porting (2.0.x v4) by Symscape: http://www.symscape.com   |
\*---------------------------------------------------------------------------*/
FoamFile
{
    version     2.0;
    format      ascii;
    class       volScalarField;
    location    "170";
    object      epsilon;
}
// * * * * * * * * * * * * * * * * * * * * * * * * * * * * * * * * * * * * * //

dimensions      [0 2 -3 0 0 0 0];

internalField   nonuniform List<scalar> 
43900
(
0.00152925
0.00151912
0.00151979
0.00151971
0.00151968
0.00151967
0.00151967
0.00151967
0.00151967
0.00151967
0.00151967
0.00151967
0.00151968
0.00151968
0.00151968
0.00151968
0.00151968
0.00151968
0.00151968
0.00151969
0.00151969
0.00151969
0.00151969
0.00151969
0.00151969
0.00151969
0.00151969
0.00151969
0.00151969
0.000404812
3.79264e-005
3.16627e-005
3.1526e-005
3.27449e-005
3.28043e-005
3.28093e-005
3.27946e-005
3.27874e-005
3.27909e-005
3.27927e-005
3.27964e-005
3.27995e-005
3.28019e-005
3.28037e-005
3.28053e-005
3.28067e-005
3.28078e-005
3.28088e-005
3.28097e-005
3.28106e-005
3.28114e-005
3.28122e-005
3.28129e-005
3.28135e-005
3.28141e-005
3.28146e-005
3.28151e-005
3.28155e-005
0.0503876
0.00563345
0.000276264
1.07674e-005
1.66616e-006
1.32725e-006
1.32745e-006
1.41208e-006
1.41954e-006
1.4174e-006
1.41696e-006
1.41746e-006
1.41791e-006
1.4182e-006
1.41847e-006
1.41873e-006
1.41896e-006
1.41917e-006
1.41937e-006
1.41956e-006
1.41974e-006
1.41989e-006
1.42003e-006
1.42015e-006
1.42026e-006
1.42036e-006
1.42045e-006
1.42054e-006
1.4206e-006
0.146149
0.0434845
0.00952783
0.00127109
7.63391e-005
2.96797e-006
3.06156e-007
1.18606e-007
1.08414e-007
1.17927e-007
1.20456e-007
1.19848e-007
1.19507e-007
1.19607e-007
1.19685e-007
1.19725e-007
1.19759e-007
1.1979e-007
1.1982e-007
1.19848e-007
1.19873e-007
1.19894e-007
1.19913e-007
1.1993e-007
1.19946e-007
1.1996e-007
1.19973e-007
1.19986e-007
1.19994e-007
0.197372
0.0839365
0.0333768
0.0109152
0.0024912
0.000312009
1.71938e-005
6.63844e-007
5.77199e-008
1.91457e-008
1.64316e-008
1.81408e-008
1.87898e-008
1.86057e-008
1.85198e-008
1.85214e-008
1.8527e-008
1.85323e-008
1.85371e-008
1.85415e-008
1.85455e-008
1.8549e-008
1.85523e-008
1.85554e-008
1.85584e-008
1.85614e-008
1.8564e-008
1.85666e-008
1.85688e-008
0.222977
0.108711
0.052774
0.0246358
0.0101308
0.00307927
0.000599512
5.49811e-005
2.46662e-006
1.0268e-007
1.08261e-008
4.47777e-009
4.19749e-009
4.62864e-009
4.73606e-009
4.73061e-009
4.72874e-009
4.72964e-009
4.73071e-009
4.73167e-009
4.73245e-009
4.73321e-009
4.73398e-009
4.73474e-009
4.73551e-009
4.73619e-009
4.73694e-009
4.73776e-009
4.73847e-009
0.235177
0.123527
0.0656667
0.0348057
0.0179206
0.00853113
0.00327614
0.000817503
0.000105948
6.13858e-006
2.53673e-007
1.30633e-008
2.34394e-009
1.4877e-009
1.58443e-009
1.63061e-009
1.63668e-009
1.63739e-009
1.63784e-009
1.63825e-009
1.63857e-009
1.63887e-009
1.63911e-009
1.63941e-009
1.63969e-009
1.63975e-009
1.64011e-009
1.64053e-009
1.64077e-009
0.237487
0.130201
0.0726454
0.0408802
0.0228834
0.0124613
0.00633
0.00272733
0.000784373
0.00012335
8.77559e-006
4.04766e-007
1.88624e-008
1.87755e-009
7.6608e-010
7.19473e-010
7.32703e-010
7.33821e-010
7.33951e-010
7.34096e-010
7.34262e-010
7.34415e-010
7.34572e-010
7.34728e-010
7.34868e-010
7.35033e-010
7.35225e-010
7.35385e-010
7.35507e-010
0.238627
0.135712
0.0787283
0.0463044
0.0273737
0.0160656
0.00917846
0.00492463
0.00229016
0.000738676
0.000138115
1.17283e-005
5.80916e-007
2.66733e-008
1.74294e-009
5.26424e-010
4.36814e-010
4.42798e-010
4.43787e-010
4.43873e-010
4.43932e-010
4.44023e-010
4.44163e-010
4.44244e-010
4.44366e-010
4.44609e-010
4.44746e-010
4.44813e-010
4.44887e-010
0.234706
0.136202
0.0808742
0.048875
0.0298728
0.0183143
0.0111307
0.00658381
0.00366966
0.00180208
0.00063368
0.000123765
1.08766e-005
5.49885e-007
2.5289e-008
1.5114e-009
4.42389e-010
3.71e-010
3.6703e-010
3.66956e-010
3.66957e-010
3.6697e-010
3.67027e-010
3.67098e-010
3.6724e-010
3.67656e-010
3.67607e-010
3.67608e-010
3.6762e-010
0.227964
0.134486
0.0811115
0.0499088
0.0311574
0.019616
0.0123544
0.00769406
0.00465266
0.00264521
0.00131994
0.000472731
8.78841e-005
7.17404e-006
3.56554e-007
1.65239e-008
1.09676e-009
4.09098e-010
3.78402e-010
3.77229e-010
3.77228e-010
3.77233e-010
3.77286e-010
3.77346e-010
3.77479e-010
3.77912e-010
3.77661e-010
3.77662e-010
3.77666e-010
0.220183
0.131505
0.0803586
0.0500638
0.0317188
0.0203235
0.013089
0.00840295
0.00531247
0.0032438
0.00184693
0.000908582
0.000304519
4.79403e-005
3.28991e-006
1.56406e-007
7.4541e-009
7.80254e-010
4.85993e-010
4.73556e-010
4.73291e-010
4.73291e-010
4.73533e-010
4.73224e-010
4.73232e-010
4.73494e-010
4.72552e-010
4.72553e-010
4.72553e-010
0.211579
0.127614
0.0787605
0.0495902
0.031723
0.0205728
0.01345
0.00880318
0.00571613
0.00363231
0.0022086
0.00123201
0.000572774
0.00015931
1.85009e-005
1.03014e-006
4.7869e-008
2.91245e-009
9.13468e-010
8.26178e-010
8.23298e-010
8.23295e-010
8.22963e-010
8.21608e-010
8.2005e-010
8.19359e-010
8.17308e-010
8.17309e-010
8.17324e-010
0.202508
0.123031
0.0765121
0.0485787
0.0313708
0.0205093
0.0135381
0.0089776
0.0059312
0.00386225
0.00243798
0.00144966
0.000766709
0.000310333
6.04721e-005
4.71322e-006
2.32072e-007
1.23722e-008
2.32611e-009
1.87258e-009
1.85412e-009
1.85412e-009
1.84949e-009
1.84628e-009
1.83815e-009
1.83222e-009
1.82714e-009
1.8271e-009
1.82711e-009
0.193136
0.118006
0.0738079
0.0471501
0.0306659
0.0202268
0.01346
0.00899922
0.00601651
0.00398149
0.00257269
0.00158754
0.000897729
0.000424167
0.000126728
1.49144e-005
8.58443e-007
4.59533e-008
6.62056e-009
4.75851e-009
4.66957e-009
4.66424e-009
4.64886e-009
4.6398e-009
4.60681e-009
4.58982e-009
4.57164e-009
4.56889e-009
4.56893e-009
0.183566
0.112692
0.0708242
0.0454699
0.0297315
0.0197343
0.0132425
0.00893168
0.00601752
0.00402824
0.00264474
0.00167145
0.000983853
0.000503841
0.000185009
3.26902e-005
2.42734e-006
1.39845e-007
1.87052e-008
1.25626e-008
1.221e-008
1.21756e-008
1.21427e-008
1.20882e-008
1.20008e-008
1.19606e-008
1.18856e-008
1.18547e-008
1.18545e-008
0.17386
0.107191
0.0676621
0.0436381
0.0286704
0.0191272
0.0129102
0.00877645
0.00596993
0.00402857
0.00267708
0.00172044
0.00103961
0.000558589
0.00023014
5.11497e-005
5.02692e-006
3.41647e-007
5.05144e-008
3.40042e-008
3.30338e-008
3.28053e-008
3.27246e-008
3.26383e-008
3.22899e-008
3.21081e-008
3.18282e-008
3.17694e-008
3.17995e-008
0.164083
0.101582
0.0643934
0.0417144
0.0275344
0.0184597
0.0125247
0.00856344
0.00586872
0.00400063
0.002682
0.00174692
0.00107675
0.00059817
0.00026552
6.91974e-005
8.31324e-006
6.94183e-007
1.28375e-007
9.26484e-008
8.96352e-008
8.96504e-008
8.96656e-008
8.81825e-008
8.76276e-008
8.75519e-008
8.67072e-008
8.67096e-008
8.61535e-008
0.15427
0.0959131
0.0610651
0.0397398
0.0263576
0.0177606
0.0121151
0.0083309
0.00574502
0.0039462
0.00267385
0.0017616
0.00110346
0.000629451
0.000295606
8.697e-005
1.23745e-005
1.18235e-006
2.37753e-007
1.66977e-007
1.63131e-007
1.62086e-007
1.60823e-007
1.61693e-007
1.61062e-007
1.59151e-007
1.59084e-007
1.58285e-007
1.58142e-007
0.144413
0.0901943
0.0576931
0.0377305
0.0251546
0.0170422
0.0116916
0.00808846
0.00561439
0.00388471
0.00265554
0.00176934
0.00112529
0.000657071
0.000322702
0.000105214
1.75483e-005
1.90873e-006
3.5993e-007
2.34866e-007
2.2457e-007
2.2372e-007
2.23304e-007
2.20935e-007
2.20301e-007
2.20733e-007
2.20177e-007
2.19578e-007
2.18355e-007
0.134548
0.084449
0.0542931
0.0356973
0.0239329
0.0163099
0.0112583
0.00783922
0.00547905
0.00381976
0.00263376
0.00177391
0.00114438
0.000682625
0.000348961
0.000124499
2.40111e-005
2.93241e-006
5.19369e-007
2.93635e-007
2.73431e-007
2.70034e-007
2.69792e-007
2.71892e-007
2.71327e-007
2.68629e-007
2.67753e-007
2.66153e-007
2.6659e-007
0.124717
0.0787042
0.0508825
0.0336516
0.0227006
0.01557
0.01082
0.00758752
0.00534312
0.00375555
0.00261349
0.00177993
0.00116509
0.000710033
0.000377144
0.00014664
3.24343e-005
4.41206e-006
7.21212e-007
3.46738e-007
3.11281e-007
3.10132e-007
3.09566e-007
3.05295e-007
3.04533e-007
3.05463e-007
3.05615e-007
3.06163e-007
3.04098e-007
0.114957
0.07298
0.047472
0.031599
0.0214603
0.0148234
0.0103773
0.00733339
0.00520652
0.00369199
0.00259476
0.00178792
0.00118794
0.000739742
0.000407953
0.000171756
4.36833e-005
6.88014e-006
1.10979e-006
4.21737e-007
3.45288e-007
3.3391e-007
3.33906e-007
3.36698e-007
3.35725e-007
3.32298e-007
3.31477e-007
3.30736e-007
3.32436e-007
0.105329
0.0673075
0.0440772
0.0295466
0.0202145
0.0140702
0.00992879
0.00707509
0.00506747
0.00362755
0.00257643
0.00179728
0.00121284
0.000771809
0.000440881
0.000199975
5.78097e-005
1.02564e-005
1.65185e-006
5.08476e-007
3.71927e-007
3.60637e-007
3.55997e-007
3.51951e-007
3.5338e-007
3.54987e-007
3.54361e-007
3.53107e-007
3.4974e-007
0.0959066
0.0617261
0.0407189
0.0275048
0.0189679
0.0133121
0.00947481
0.00681224
0.00492536
0.00356159
0.002558
0.00180769
0.00123969
0.000806574
0.000477232
0.000231786
7.60745e-005
1.57669e-005
2.69127e-006
6.80483e-007
4.09921e-007
3.72609e-007
3.71104e-007
3.72009e-007
3.69632e-007
3.66788e-007
3.66582e-007
3.67553e-007
3.69918e-007
0.0867606
0.056275
0.0374185
0.0254852
0.0177268
0.0125522
0.00901679
0.00654546
0.00478048
0.0034944
0.00253983
0.0018197
0.00126918
0.000844713
0.000517537
0.000269412
0.000100397
2.3729e-005
4.30001e-006
9.64052e-007
4.61893e-007
3.95661e-007
3.8097e-007
3.78672e-007
3.80974e-007
3.82152e-007
3.81054e-007
3.76364e-007
3.76314e-007
0.0779566
0.0509908
0.0341962
0.0234984
0.0164959
0.0117922
0.00855446
0.00627348
0.00463106
0.00342398
0.00251994
0.00183142
0.00129969
0.000885018
0.000560887
0.000309896
0.000129539
3.62678e-005
7.45917e-006
1.55556e-006
5.66663e-007
4.16123e-007
3.97855e-007
3.94137e-007
3.87665e-007
3.87236e-007
3.88637e-007
3.91075e-007
3.89394e-007
0.0695605
0.0459111
0.0310731
0.0215558
0.0152809
0.0110343
0.00808809
0.00599542
0.00447561
0.00334859
0.00249657
0.00184123
0.00132974
0.000926201
0.000606465
0.000354862
0.000164662
5.21339e-005
1.18289e-005
2.52453e-006
7.65869e-007
4.57262e-007
4.07556e-007
4.00322e-007
4.01499e-007
3.98847e-007
3.94364e-007
3.95245e-007
3.96011e-007
0.0616311
0.0410711
0.0280699
0.0196694
0.0140885
0.0102816
0.00761881
0.00571118
0.00431337
0.00326716
0.00246854
0.00184799
0.00135834
0.000967433
0.000653373
0.000401695
0.000205489
7.64875e-005
2.02631e-005
4.5125e-006
1.17e-006
5.40672e-007
4.31734e-007
4.09033e-007
4.04934e-007
4.06978e-007
4.05655e-007
4.04667e-007
4.01911e-007
0.0542162
0.036501
0.0252057
0.0178507
0.0129254
0.00953811
0.00714848
0.00542141
0.00414426
0.0031792
0.00243514
0.00185055
0.0013849
0.00100836
0.000701637
0.000451828
0.00025041
0.000105738
3.18458e-005
7.73515e-006
1.94204e-006
7.11742e-007
4.68644e-007
4.30884e-007
4.14046e-007
4.11116e-007
4.12343e-007
4.11074e-007
4.11725e-007
0.0473504
0.0322248
0.0224964
0.0161103
0.0117984
0.00880751
0.00667905
0.00512677
0.00396807
0.00308392
0.00239518
0.00184821
0.00140806
0.00104796
0.000750526
0.000504218
0.000302047
0.000144799
5.08666e-005
1.37783e-005
3.46049e-006
1.07323e-006
5.51819e-007
4.48324e-007
4.33226e-007
4.23036e-007
4.18218e-007
4.19088e-007
4.17576e-007
0.0410553
0.0282597
0.0199549
0.0144572
0.0107132
0.00809351
0.00621243
0.00482787
0.00378449
0.00298049
0.00234785
0.00184048
0.00142661
0.0010843
0.000797885
0.000556971
0.000354615
0.000190771
7.81797e-005
2.4192e-005
6.39379e-006
1.8123e-006
7.37601e-007
4.93778e-007
4.43439e-007
4.37938e-007
4.31883e-007
4.25606e-007
4.27627e-007
0.0353399
0.0246166
0.0175906
0.0128989
0.00967547
0.00739987
0.00575093
0.00452588
0.00359384
0.00286853
0.00229205
0.00182484
0.00143894
0.00111591
0.000842281
0.000608719
0.00040936
0.000240532
0.000113082
4.04785e-005
1.18146e-005
3.30357e-006
1.12704e-006
5.99478e-007
4.73104e-007
4.45452e-007
4.44726e-007
4.39927e-007
4.34263e-007
0.030201
0.0212994
0.0154097
0.0114413
0.00869022
0.00673038
0.00529717
0.00422239
0.00339682
0.002748
0.00222699
0.00180004
0.00144313
0.00114179
0.000882799
0.000658433
0.000463573
0.000295557
0.000156369
6.42751e-005
2.1073e-005
6.17747e-006
1.93924e-006
8.23243e-007
5.42941e-007
4.69012e-007
4.51989e-007
4.53009e-007
4.48196e-007
0.0256246
0.0183062
0.0134148
0.0100886
0.00776153
0.00608855
0.00485381
0.00391922
0.00319447
0.00261931
0.0021527
0.00176621
0.00143955
0.00116056
0.000918045
0.00070497
0.000516737
0.000350568
0.000208206
9.86891e-005
3.67683e-005
1.1619e-005
3.5979e-006
1.30657e-006
6.86022e-007
5.24963e-007
4.73461e-007
4.61201e-007
4.62583e-007
0.0215872
0.0156289
0.011605
0.00884291
0.00689255
0.00547747
0.00442348
0.00361832
0.0029881
0.00248316
0.0020695
0.00172345
0.00142847
0.00117221
0.000947062
0.000746838
0.000567437
0.000406081
0.000262037
0.000143441
6.1951e-005
2.19836e-005
7.00247e-006
2.34332e-006
9.98307e-007
6.23733e-007
5.21214e-007
4.83317e-007
4.73184e-007
0.0180578
0.013255
0.00997665
0.00770468
0.00608539
0.00489974
0.00400861
0.00332171
0.00277915
0.00234042
0.00197757
0.00167105
0.00140696
0.00117369
0.00096816
0.000782559
0.000613723
0.000459562
0.000318621
0.000192978
9.7175e-005
3.90445e-005
1.35337e-005
4.50715e-006
1.67285e-006
8.36805e-007
5.94162e-007
5.25107e-007
4.99428e-007
0.0150003
0.0111681
0.0085233
0.00667258
0.00534114
0.00435739
0.00361144
0.0030314
0.00256923
0.00219217
0.00187747
0.00160905
0.0013754
0.00116763
0.000980922
0.00081072
0.000653873
0.000508454
0.000373636
0.000248756
0.000140378
6.57459e-005
2.51748e-005
8.7802e-006
3.11251e-006
1.29803e-006
7.5084e-007
5.84012e-007
5.32879e-007
0.0123749
0.00934862
0.00723641
0.00574376
0.00465987
0.00385187
0.00323391
0.00274935
0.00236005
0.00203977
0.00177015
0.0015381
0.00133423
0.00115191
0.000983434
0.000830227
0.000686895
0.000551884
0.000424465
0.000304625
0.000193506
0.000102071
4.53377e-005
1.69505e-005
6.08421e-006
2.31282e-006
1.08646e-006
7.0917e-007
5.83195e-007
0.0101399
0.00777531
0.00610572
0.00491409
0.00404073
0.003384
0.0028776
0.00247737
0.00215333
0.00188468
0.00165673
0.00145889
0.00128349
0.00112488
0.000977835
0.000841039
0.000711859
0.000588531
0.000470298
0.000356656
0.000248845
0.000150333
7.48372e-005
3.20211e-005
1.20149e-005
4.48521e-006
1.83965e-006
9.69399e-007
6.91424e-007
0.00825308
0.00642559
0.00511972
0.0041783
0.00348199
0.002954
0.0025437
0.00221707
0.00195078
0.00172847
0.00153851
0.00137242
0.00122395
0.00108851
0.000962794
0.000840936
0.000727351
0.000617109
0.000509539
0.000404517
0.00030171
0.000203879
0.00011757
5.58317e-005
2.32755e-005
8.92303e-006
3.48902e-006
1.55476e-006
9.04333e-007
0.00667306
0.00527647
0.0042661
0.0035303
0.0029812
0.0025615
0.00223303
0.00196985
0.00175398
0.00157273
0.00141692
0.00127982
0.00115641
0.00104288
0.000936388
0.000833777
0.000733414
0.000636873
0.00054123
0.000446042
0.000351569
0.000257315
0.000168344
9.31902e-005
4.27094e-005
1.75452e-005
6.92027e-006
2.85116e-006
1.3695e-006
0.00536012
0.00430522
0.00353216
0.00296342
0.0025353
0.00220564
0.00194599
0.00173682
0.00156442
0.00141903
0.00129347
0.00118245
0.00108193
0.000988838
0.000900802
0.000816272
0.000730378
0.00064719
0.000564118
0.000480104
0.000394809
0.000308925
0.000221536
0.000140666
7.5126e-005
3.35637e-005
1.38618e-005
5.61598e-006
2.40031e-006
0.00427704
0.00348987
0.00290519
0.00247063
0.00214078
0.00188509
0.00168263
0.00151884
0.00138342
0.00126889
0.00116972
0.00108177
0.00100183
0.000927391
0.000856498
0.00078763
0.000718973
0.000646893
0.000577081
0.000505141
0.000430743
0.000353651
0.000274696
0.000192992
0.000119501
6.17388e-005
2.71354e-005
1.13678e-005
4.63346e-006
0.00338961
0.00280972
0.00237284
0.0020448
0.00179385
0.0015982
0.00144267
0.00131653
0.0012121
0.00112375
0.00104723
0.000979337
0.000917531
0.000859806
0.000804535
0.000750389
0.000696419
0.00063986
0.00058013
0.000520626
0.000457814
0.000391472
0.00032108
0.000247673
0.000170884
0.000103392
5.17725e-005
2.27402e-005
9.40054e-006
0.002667
0.00224564
0.00192336
0.00167889
0.00149057
0.00134308
0.00122556
0.00113023
0.00105142
0.000984915
0.000927514
0.000876735
0.000830607
0.000787528
0.000746174
0.000705423
0.000664405
0.000622489
0.000575564
0.000526155
0.000475385
0.000420482
0.000361009
0.000296109
0.000227219
0.00015433
9.10424e-005
4.43832e-005
1.90665e-005
0.00208194
0.00178029
0.00154581
0.00136618
0.00122696
0.00111762
0.00103051
0.000960044
0.000902093
0.000853534
0.000811973
0.000775524
0.000742659
0.000712123
0.00068286
0.000653953
0.000624628
0.000594198
0.000561828
0.000523277
0.0004829
0.000440056
0.000392124
0.000338798
0.000278202
0.000213137
0.000142315
8.18119e-005
3.79907e-005
0.00161068
0.00139829
0.00123027
0.00110032
0.000999152
0.000919663
0.000856554
0.000805874
0.000764637
0.00073056
0.000701876
0.000677168
0.000655266
0.000635199
0.000616155
0.000597411
0.000578322
0.000558243
0.000536627
0.000512138
0.000481319
0.000449535
0.000414001
0.00037264
0.000324764
0.000267749
0.000204986
0.000134974
7.27263e-005
0.0012329
0.00108616
0.00096782
0.000875492
0.000803445
0.000747015
0.000702596
0.00066742
0.000639352
0.000616735
0.000598295
0.00058298
0.000569901
0.000558317
0.000547642
0.000537332
0.000526901
0.000515779
0.000503573
0.000489865
0.000472404
0.000449051
0.000425725
0.000397209
0.000362646
0.000319801
0.000265515
0.00020346
0.000128533
0.000931472
0.000832326
0.000750625
0.000686416
0.000636375
0.000597522
0.000567444
0.00054422
0.000526329
0.000512578
0.000502083
0.00049407
0.000487867
0.00048291
0.000478828
0.000475242
0.000471847
0.000468136
0.000463919
0.00045863
0.000452532
0.000441734
0.000426772
0.000411339
0.000391145
0.000363973
0.000325254
0.000275207
0.000204135
0.000692168
0.00062696
0.000571874
0.000528396
0.000494759
0.000469116
0.000449867
0.000435681
0.000425469
0.000418381
0.000413849
0.000411296
0.000410242
0.000410207
0.000411042
0.000412587
0.000414646
0.000416757
0.00041893
0.000420656
0.000422156
0.000422523
0.000420572
0.000414323
0.000408564
0.000398317
0.000380277
0.000346735
0.000299319
0.000503307
0.00046182
0.000425727
0.000397312
0.000375729
0.000359856
0.000348623
0.000341103
0.000336504
0.000334221
0.000333991
0.000335233
0.000337888
0.000341399
0.000345794
0.000350921
0.000356966
0.000363346
0.000370459
0.00037757
0.000385583
0.000393311
0.000403081
0.000408349
0.000415173
0.00041911
0.000419619
0.000412906
0.000391656
0.000355419
0.000330065
0.000307246
0.000289613
0.000276744
0.000267959
0.000262491
0.000259713
0.000259035
0.000260012
0.000262636
0.00026664
0.000271731
0.000277579
0.000284436
0.000292069
0.000301144
0.00031068
0.000321782
0.000333251
0.000346645
0.000360434
0.000377276
0.000394903
0.000417923
0.00043504
0.00045894
0.000469392
0.000468061
0.000240898
0.00022609
0.000212326
0.000202308
0.0001956
0.000191814
0.000190305
0.000190735
0.000192552
0.000195781
0.000200382
0.000206115
0.000213101
0.000220876
0.000230207
0.00024052
0.000253567
0.000267403
0.000285162
0.000304766
0.000327793
0.000355377
0.000385315
0.000418949
0.000459393
0.000498938
0.000557767
0.000598238
0.000636536
0.000153707
0.000145387
0.000137657
0.000132942
0.000130435
0.000130021
0.000131052
0.000133532
0.0001371
0.000141905
0.000148359
0.000156083
0.000166137
0.000177704
0.000193191
0.000211344
0.00023713
0.000268061
0.000305878
0.000351342
0.000403828
0.00047994
0.000555024
0.000682525
0.000799192
0.000978258
0.00114268
0.001361
0.00151417
8.91364e-005
8.44709e-005
8.07022e-005
7.95642e-005
7.97491e-005
8.14027e-005
8.42919e-005
8.8212e-005
9.35213e-005
0.000100742
0.000111434
0.000125057
0.000145209
0.000171713
0.000209696
0.000257479
0.000332253
0.000432351
0.000579664
0.000788152
0.00105174
0.00148534
0.00193188
0.00280536
0.00354171
0.00511972
0.00619293
0.0087998
0.00982464
4.36688e-005
4.09045e-005
3.97157e-005
4.0707e-005
4.25095e-005
4.58059e-005
5.08941e-005
5.70148e-005
6.68357e-005
8.19228e-005
0.000109621
0.000147635
0.000209468
0.000301476
0.000457238
0.000687353
0.00107315
0.00161294
0.00242912
0.00358643
0.00518649
0.00751834
0.0104376
0.0150094
0.0199929
0.0289537
0.0371908
0.0556594
0.0688074
1.48822e-005
1.33169e-005
1.35371e-005
1.56459e-005
1.89981e-005
2.46267e-005
3.74055e-005
5.31594e-005
8.45343e-005
0.000138633
0.000249043
0.000428939
0.000729523
0.0011818
0.00192199
0.00300343
0.0046537
0.00688042
0.0100676
0.0143143
0.0202827
0.028209
0.0392535
0.0540951
0.0746352
0.103762
0.143333
0.21001
0.285288
2.68632e-006
2.59808e-006
3.45462e-006
6.78322e-006
1.74963e-005
3.61222e-005
8.75431e-005
0.000158023
0.000305175
0.000554592
0.00103195
0.0017313
0.00282286
0.00439846
0.0067795
0.0100998
0.0148915
0.0212217
0.0301355
0.0416975
0.0581284
0.0790852
0.109785
0.14828
0.208284
0.282983
0.413565
0.577024
0.852798
0.00151969
0.00151969
0.00151969
0.00151969
0.00151969
0.00151969
0.00151969
0.00151969
0.00151969
0.00151969
0.00151969
0.00151969
0.00151969
0.00151969
0.00151969
0.00151969
0.00151969
0.00151969
0.0015197
0.0015197
0.0015197
0.0015197
0.0015197
0.0015197
0.0015197
0.0015197
0.0015197
0.0015197
0.0015197
0.0015197
0.0015197
0.0015197
0.0015197
0.0015197
0.0015197
0.0015197
0.0015197
0.0015197
0.0015197
0.0015197
0.0015197
0.0015197
0.0015197
0.0015197
0.0015197
0.0015197
0.0015197
0.0015197
0.0015197
0.0015197
0.0015197
0.0015197
0.0015197
0.0015197
0.0015197
0.0015197
0.0015197
0.0015197
0.0015197
0.0015197
0.0015197
0.0015197
0.0015197
0.0015197
0.0015197
0.0015197
0.0015197
0.0015197
0.0015197
0.0015197
0.0015197
0.00151971
0.00151971
0.00151971
0.00151971
0.00151971
0.00151971
0.00151971
0.00151971
0.00151971
0.00151971
0.00151971
0.00151971
0.00151971
0.00151971
0.00151971
0.00151971
0.00151971
0.00151971
0.00151971
0.00151971
0.00151971
0.00151971
0.00151971
0.00151971
0.00151971
0.00151971
0.00151971
0.00151971
0.00151971
0.00151971
0.00151971
0.00151971
0.00151971
0.00151971
0.00151971
0.00151971
0.00151971
0.00151971
0.00151971
0.00151971
0.00151971
0.00151971
0.00151971
0.00151971
0.00151971
0.00151971
0.00151971
0.00151971
0.00151971
0.00151971
0.00151971
0.00151971
0.00151971
0.00151971
0.00151971
0.00151971
0.00151971
0.00151971
0.00151971
0.00151971
0.00151971
0.00151971
0.00151971
0.00151971
0.00151972
0.00151972
0.00151973
0.00154202
3.2816e-005
3.28165e-005
3.2817e-005
3.28174e-005
3.28177e-005
3.2818e-005
3.28183e-005
3.28186e-005
3.28189e-005
3.28191e-005
3.28194e-005
3.28197e-005
3.282e-005
3.28204e-005
3.28207e-005
3.28211e-005
3.28214e-005
3.28218e-005
3.28221e-005
3.28225e-005
3.28228e-005
3.28232e-005
3.28236e-005
3.2824e-005
3.28244e-005
3.28248e-005
3.28252e-005
3.28257e-005
3.28261e-005
3.28266e-005
3.2827e-005
3.28275e-005
3.28279e-005
3.28284e-005
3.28288e-005
3.28291e-005
3.28295e-005
3.28297e-005
3.283e-005
3.28303e-005
3.28306e-005
3.28308e-005
3.28311e-005
3.28313e-005
3.28315e-005
3.28317e-005
3.28319e-005
3.28321e-005
3.28322e-005
3.28324e-005
3.28325e-005
3.28326e-005
3.28328e-005
3.28329e-005
3.2833e-005
3.28331e-005
3.28332e-005
3.28332e-005
3.28333e-005
3.28335e-005
3.28336e-005
3.28338e-005
3.28339e-005
3.28341e-005
3.28342e-005
3.28343e-005
3.28345e-005
3.28346e-005
3.28347e-005
3.28348e-005
3.28349e-005
3.2835e-005
3.28352e-005
3.28353e-005
3.28354e-005
3.28354e-005
3.28355e-005
3.28356e-005
3.28357e-005
3.28357e-005
3.28358e-005
3.28358e-005
3.28358e-005
3.28358e-005
3.28357e-005
3.28357e-005
3.28356e-005
3.28355e-005
3.28355e-005
3.28356e-005
3.28358e-005
3.2836e-005
3.28361e-005
3.28363e-005
3.28365e-005
3.28367e-005
3.2837e-005
3.28372e-005
3.28374e-005
3.28376e-005
3.28378e-005
3.28379e-005
3.28381e-005
3.28383e-005
3.28384e-005
3.28386e-005
3.28387e-005
3.28389e-005
3.2839e-005
3.28391e-005
3.2839e-005
3.28389e-005
3.28386e-005
3.28383e-005
3.28379e-005
3.28375e-005
3.2837e-005
3.28369e-005
3.28369e-005
3.28372e-005
3.28374e-005
3.28376e-005
3.28378e-005
3.2838e-005
3.28378e-005
3.28384e-005
3.28377e-005
3.28388e-005
3.28385e-005
3.28387e-005
3.28407e-005
3.28403e-005
3.2842e-005
3.28451e-005
3.28434e-005
3.28478e-005
3.28622e-005
3.28485e-005
3.37857e-005
1.42068e-006
1.42078e-006
1.42086e-006
1.42092e-006
1.42098e-006
1.42104e-006
1.42109e-006
1.42113e-006
1.42118e-006
1.42122e-006
1.42127e-006
1.42131e-006
1.42135e-006
1.42139e-006
1.42143e-006
1.42148e-006
1.42152e-006
1.42156e-006
1.4216e-006
1.42165e-006
1.4217e-006
1.42175e-006
1.4218e-006
1.42185e-006
1.4219e-006
1.42196e-006
1.42201e-006
1.42207e-006
1.42213e-006
1.42219e-006
1.42225e-006
1.42231e-006
1.42237e-006
1.42244e-006
1.4225e-006
1.42256e-006
1.42263e-006
1.42269e-006
1.42275e-006
1.42281e-006
1.42287e-006
1.42293e-006
1.42299e-006
1.42304e-006
1.4231e-006
1.42315e-006
1.42321e-006
1.42326e-006
1.42331e-006
1.42337e-006
1.42342e-006
1.42347e-006
1.42352e-006
1.42356e-006
1.42361e-006
1.42366e-006
1.4237e-006
1.42375e-006
1.42379e-006
1.42384e-006
1.42388e-006
1.42393e-006
1.42398e-006
1.42403e-006
1.42407e-006
1.42412e-006
1.42416e-006
1.42421e-006
1.42425e-006
1.42429e-006
1.42433e-006
1.42437e-006
1.42441e-006
1.42445e-006
1.42448e-006
1.42452e-006
1.42455e-006
1.42459e-006
1.42462e-006
1.42465e-006
1.42468e-006
1.42471e-006
1.42473e-006
1.42476e-006
1.42478e-006
1.42481e-006
1.42483e-006
1.42486e-006
1.42487e-006
1.42489e-006
1.42491e-006
1.42493e-006
1.42495e-006
1.42497e-006
1.42499e-006
1.42502e-006
1.42504e-006
1.42506e-006
1.42509e-006
1.42511e-006
1.42513e-006
1.42514e-006
1.42516e-006
1.42517e-006
1.42518e-006
1.42518e-006
1.42519e-006
1.42518e-006
1.42518e-006
1.42517e-006
1.42515e-006
1.42511e-006
1.42506e-006
1.42499e-006
1.42493e-006
1.42486e-006
1.42479e-006
1.42473e-006
1.4247e-006
1.42468e-006
1.42466e-006
1.42463e-006
1.42457e-006
1.42456e-006
1.42446e-006
1.42442e-006
1.42434e-006
1.42423e-006
1.42426e-006
1.42414e-006
1.42426e-006
1.42434e-006
1.42408e-006
1.42454e-006
1.42584e-006
1.42598e-006
1.33393e-006
1.40188e-006
2.17484e-005
1.20006e-007
1.2002e-007
1.20032e-007
1.20043e-007
1.20052e-007
1.20062e-007
1.20071e-007
1.2008e-007
1.20088e-007
1.20096e-007
1.20105e-007
1.20113e-007
1.20122e-007
1.20131e-007
1.2014e-007
1.20149e-007
1.20159e-007
1.20168e-007
1.20177e-007
1.20187e-007
1.20197e-007
1.20207e-007
1.20217e-007
1.20227e-007
1.20238e-007
1.20249e-007
1.2026e-007
1.20272e-007
1.20283e-007
1.20295e-007
1.20307e-007
1.20319e-007
1.20331e-007
1.20344e-007
1.20356e-007
1.20369e-007
1.20383e-007
1.20396e-007
1.20409e-007
1.20422e-007
1.20435e-007
1.20448e-007
1.20461e-007
1.20473e-007
1.20486e-007
1.20499e-007
1.20511e-007
1.20524e-007
1.20536e-007
1.20548e-007
1.20561e-007
1.20573e-007
1.20585e-007
1.20597e-007
1.20609e-007
1.20621e-007
1.20633e-007
1.20644e-007
1.20656e-007
1.20668e-007
1.2068e-007
1.20692e-007
1.20703e-007
1.20714e-007
1.20725e-007
1.20736e-007
1.20747e-007
1.20757e-007
1.20768e-007
1.20778e-007
1.20787e-007
1.20797e-007
1.20806e-007
1.20816e-007
1.20825e-007
1.20834e-007
1.20842e-007
1.20851e-007
1.20859e-007
1.20868e-007
1.20876e-007
1.20883e-007
1.20891e-007
1.20898e-007
1.20905e-007
1.20912e-007
1.20918e-007
1.20925e-007
1.2093e-007
1.20934e-007
1.20938e-007
1.20941e-007
1.20945e-007
1.20948e-007
1.20952e-007
1.20955e-007
1.20958e-007
1.2096e-007
1.20962e-007
1.20964e-007
1.20966e-007
1.20967e-007
1.20967e-007
1.20967e-007
1.20967e-007
1.20965e-007
1.20964e-007
1.20961e-007
1.20958e-007
1.20955e-007
1.2095e-007
1.20944e-007
1.20935e-007
1.20925e-007
1.20913e-007
1.20901e-007
1.20888e-007
1.20874e-007
1.20862e-007
1.2085e-007
1.20839e-007
1.20826e-007
1.20811e-007
1.20795e-007
1.20777e-007
1.20754e-007
1.20737e-007
1.20709e-007
1.20683e-007
1.20684e-007
1.2067e-007
1.20475e-007
1.20793e-007
1.21429e-007
1.15842e-007
1.11283e-007
5.14917e-007
6.15631e-005
0.00438574
1.85716e-008
1.85745e-008
1.85772e-008
1.85798e-008
1.85825e-008
1.85851e-008
1.85875e-008
1.85899e-008
1.85924e-008
1.8595e-008
1.85975e-008
1.86e-008
1.86025e-008
1.8605e-008
1.86077e-008
1.86104e-008
1.86132e-008
1.8616e-008
1.86189e-008
1.86219e-008
1.86249e-008
1.8628e-008
1.86312e-008
1.86343e-008
1.86376e-008
1.86408e-008
1.86441e-008
1.86474e-008
1.86507e-008
1.86541e-008
1.86575e-008
1.8661e-008
1.86644e-008
1.86679e-008
1.86714e-008
1.86749e-008
1.86785e-008
1.86821e-008
1.86857e-008
1.86893e-008
1.86929e-008
1.86965e-008
1.87001e-008
1.87037e-008
1.87073e-008
1.87109e-008
1.87145e-008
1.8718e-008
1.87215e-008
1.87251e-008
1.87286e-008
1.87321e-008
1.87356e-008
1.8739e-008
1.87425e-008
1.87459e-008
1.87493e-008
1.87527e-008
1.8756e-008
1.87593e-008
1.87626e-008
1.87658e-008
1.87689e-008
1.8772e-008
1.8775e-008
1.8778e-008
1.87809e-008
1.87838e-008
1.87866e-008
1.87894e-008
1.87921e-008
1.87948e-008
1.87974e-008
1.88e-008
1.88025e-008
1.8805e-008
1.88073e-008
1.88097e-008
1.88119e-008
1.88141e-008
1.88163e-008
1.88184e-008
1.88204e-008
1.88224e-008
1.88243e-008
1.88261e-008
1.88278e-008
1.88295e-008
1.88311e-008
1.88324e-008
1.88336e-008
1.88348e-008
1.88358e-008
1.88367e-008
1.88376e-008
1.88383e-008
1.8839e-008
1.88395e-008
1.88399e-008
1.88402e-008
1.88404e-008
1.88404e-008
1.88403e-008
1.88402e-008
1.88398e-008
1.88394e-008
1.88387e-008
1.8838e-008
1.8837e-008
1.88359e-008
1.88347e-008
1.88333e-008
1.88315e-008
1.88294e-008
1.8827e-008
1.88243e-008
1.88213e-008
1.88181e-008
1.8815e-008
1.88118e-008
1.88082e-008
1.88044e-008
1.88e-008
1.87951e-008
1.87895e-008
1.87836e-008
1.87765e-008
1.87703e-008
1.87627e-008
1.87537e-008
1.87857e-008
1.90834e-008
1.87191e-008
1.64533e-008
2.45743e-008
4.04632e-007
3.75924e-005
0.00191226
0.0274163
4.73929e-009
4.74036e-009
4.74143e-009
4.74248e-009
4.74347e-009
4.74449e-009
4.74558e-009
4.74668e-009
4.74779e-009
4.74887e-009
4.74998e-009
4.75115e-009
4.75239e-009
4.75364e-009