/*--------------------------------*- C++ -*----------------------------------*\
| =========                 |                                                 |
| \\      /  F ield         | OpenFOAM: The Open Source CFD Toolbox           |
|  \\    /   O peration     | Version:  5.x                                   |
|   \\  /    A nd           | Web:      www.OpenFOAM.org                      |
|    \\/     M anipulation  |                                                 |
\*---------------------------------------------------------------------------*/
/*   Windows 32 and 64 bit porting by blueCAPE: http://www.bluecape.com.pt   *\
|  Based on Windows porting (2.0.x v4) by Symscape: http://www.symscape.com   |
\*---------------------------------------------------------------------------*/
FoamFile
{
    version     2.0;
    format      ascii;
    class       volScalarField;
    location    "170";
    object      k;
}
// * * * * * * * * * * * * * * * * * * * * * * * * * * * * * * * * * * * * * //

dimensions      [0 2 -2 0 0 0 0];

internalField   nonuniform List<scalar> 
43900
(
0.00098545
0.000989472
0.00099025
0.000990184
0.000990131
0.000990124
0.000990123
0.000990123
0.000990117
0.00099012
0.000990121
0.000990124
0.000990127
0.000990128
0.00099013
0.000990131
0.000990132
0.000990133
0.000990134
0.000990134
0.000990135
0.000990136
0.000990136
0.000990137
0.000990137
0.000990138
0.000990138
0.000990138
0.000990139
0.00160969
5.52681e-005
3.89224e-005
3.81627e-005
4.084e-005
4.09809e-005
4.09931e-005
4.09608e-005
4.09511e-005
4.09561e-005
4.09586e-005
4.09631e-005
4.09671e-005
4.097e-005
4.09723e-005
4.09744e-005
4.09761e-005
4.09776e-005
4.09788e-005
4.098e-005
4.09811e-005
4.09822e-005
4.09832e-005
4.09841e-005
4.09849e-005
4.09857e-005
4.09864e-005
4.0987e-005
4.09875e-005
0.29177
0.0528926
0.00389638
0.000108655
4.75707e-006
3.08042e-006
2.97712e-006
3.35336e-006
3.38386e-006
3.37403e-006
3.37141e-006
3.37293e-006
3.3742e-006
3.37484e-006
3.37546e-006
3.37606e-006
3.37661e-006
3.37709e-006
3.37757e-006
3.37803e-006
3.37844e-006
3.3788e-006
3.37912e-006
3.37941e-006
3.37967e-006
3.37991e-006
3.38013e-006
3.38033e-006
3.38046e-006
0.877516
0.374325
0.11832
0.0229743
0.00189238
6.85286e-005
3.42305e-006
5.56119e-007
4.48791e-007
5.17602e-007
5.38155e-007
5.33084e-007
5.30129e-007
5.3084e-007
5.31344e-007
5.31524e-007
5.31671e-007
5.31805e-007
5.31935e-007
5.32054e-007
5.32159e-007
5.3225e-007
5.32331e-007
5.32404e-007
5.32471e-007
5.32531e-007
5.32587e-007
5.32639e-007
5.32677e-007
1.28393
0.732959
0.389128
0.171694
0.0530539
0.00905754
0.000625945
2.4463e-005
1.0848e-006
1.73156e-007
1.20831e-007
1.40773e-007
1.50521e-007
1.47646e-007
1.46279e-007
1.46271e-007
1.46318e-007
1.46359e-007
1.46395e-007
1.46427e-007
1.46457e-007
1.46483e-007
1.46508e-007
1.4653e-007
1.46552e-007
1.46575e-007
1.46594e-007
1.46612e-007
1.46629e-007
1.54179
0.977376
0.609671
0.362951
0.19213
0.0772128
0.0197705
0.0023309
0.000119189
4.78321e-006
2.59117e-007
6.42022e-008
4.9709e-008
5.90207e-008
6.20242e-008
6.18438e-008
6.17595e-008
6.17663e-008
6.178e-008
6.17919e-008
6.18007e-008
6.18101e-008
6.18199e-008
6.18293e-008
6.18394e-008
6.18468e-008
6.18559e-008
6.18666e-008
6.18755e-008
1.70807
1.14393
0.766041
0.506272
0.322977
0.190824
0.0931431
0.0298161
0.00496705
0.00033925
1.49333e-005
6.60032e-007
6.48526e-008
3.02009e-008
2.88157e-008
3.04506e-008
3.08174e-008
3.08448e-008
3.08547e-008
3.08634e-008
3.08703e-008
3.0876e-008
3.08795e-008
3.08851e-008
3.08883e-008
3.08866e-008
3.08946e-008
3.09035e-008
3.09083e-008
1.79462
1.2395
0.861085
0.59702
0.408295
0.270288
0.167267
0.0897241
0.0325392
0.00650201
0.000548999
2.71471e-005
1.26351e-006
7.86675e-008
2.35873e-008
1.86875e-008
1.85244e-008
1.85736e-008
1.85808e-008
1.85833e-008
1.85863e-008
1.85901e-008
1.85946e-008
1.85981e-008
1.86013e-008
1.86064e-008
1.86106e-008
1.86135e-008
1.86164e-008
1.87526
1.32845
0.949249
0.680618
0.486124
0.34227
0.233678
0.150253
0.0855884
0.0354778
0.00829957
0.000839715
4.45807e-005
2.08625e-006
1.11314e-007
2.14558e-008
1.69764e-008
1.66429e-008
1.66266e-008
1.66266e-008
1.66267e-008
1.66277e-008
1.6631e-008
1.66336e-008
1.66386e-008
1.66508e-008
1.66526e-008
1.66535e-008
1.66554e-008
1.89568
1.36365
0.991874
0.72658
0.533216
0.389311
0.280005
0.195367
0.128751
0.0757282
0.0337335
0.00821877
0.000855311
4.60662e-005
2.16519e-006
1.13865e-007
2.12131e-008
1.71726e-008
1.70042e-008
1.70004e-008
1.70004e-008
1.70008e-008
1.70032e-008
1.70058e-008
1.70113e-008
1.70274e-008
1.70269e-008
1.70269e-008
1.70276e-008
1.89345
1.37668
1.01314
0.752401
0.56156
0.419086
0.310609
0.226408
0.159853
0.106422
0.0631349
0.02842
0.00655167
0.000620663
3.2378e-005
1.52258e-006
8.73534e-008
2.28179e-008
1.99954e-008
1.98836e-008
1.98833e-008
1.98834e-008
1.98879e-008
1.98899e-008
1.98944e-008
1.99126e-008
1.98896e-008
1.98895e-008
1.98897e-008
1.87888
1.37705
1.02209
0.766357
0.578523
0.437904
0.330651
0.247316
0.181385
0.128346
0.0851043
0.049652
0.0209771
0.00405447
0.000311711
1.52719e-005
7.27029e-007
6.34631e-008
3.39088e-008
3.26502e-008
3.26189e-008
3.26193e-008
3.26447e-008
3.25921e-008
3.25915e-008
3.26002e-008
3.2497e-008
3.24966e-008
3.24729e-008
1.85075
1.3661
1.02055
0.770388
0.586222
0.448055
0.342479
0.260357
0.195358
0.143052
0.100339
0.0651112
0.0360831
0.0127343
0.00176902
0.000105195
4.9634e-006
2.97005e-007
8.71276e-008
7.79045e-008
7.75805e-008
7.75809e-008
7.76385e-008
7.73546e-008
7.70945e-008
7.70152e-008
7.67516e-008
7.6736e-008
7.67361e-008
1.81252
1.34447
1.01035
0.767048
0.586801
0.451434
0.347984
0.267453
0.203661
0.152293
0.110306
0.0755826
0.0467189
0.0229507
0.00561492
0.000494773
2.50127e-005
1.36002e-006
2.68598e-007
2.19077e-007
2.1699e-007
2.16988e-007
2.17054e-007
2.16068e-007
2.14456e-007
2.13829e-007
2.13716e-007
2.1328e-007
2.13279e-007
1.76697
1.31566
0.992607
0.75739
0.582767
0.450621
0.349292
0.270467
0.207996
0.157654
0.116472
0.0823575
0.0538832
0.0302151
0.0111942
0.00156764
9.51099e-005
5.22685e-006
8.34943e-007
6.26317e-007
6.16156e-007
6.16062e-007
6.16117e-007
6.1343e-007
6.06429e-007
6.04445e-007
6.04446e-007
6.02052e-007
6.0205e-007
1.7161
1.28182
0.97021
0.742824
0.573961
0.446289
0.347817
0.270685
0.209613
0.160394
0.120081
0.0866284
0.0586207
0.0351704
0.0157823
0.00339206
0.00027354
1.62625e-005
2.45985e-006
1.75727e-006
1.71718e-006
1.71677e-006
1.71682e-006
1.70877e-006
1.68633e-006
1.67577e-006
1.67575e-006
1.66676e-006
1.66368e-006
1.66142
1.24447
0.944679
0.725478
0.562357
0.438864
0.343783
0.26918
0.209547
0.161452
0.122016
0.0892207
0.061689
0.0385128
0.0191433
0.0052063
0.000572196
4.02786e-005
6.81797e-006
4.90657e-006
4.78791e-006
4.78198e-006
4.78199e-006
4.77277e-006
4.69964e-006
4.64144e-006
4.64121e-006
4.61224e-006
4.60735e-006
1.60399
1.20471
0.917043
0.706316
0.549193
0.430003
0.338044
0.265901
0.20831
0.161413
0.122936
0.0908592
0.0638274
0.0409461
0.0216932
0.00691011
0.000944982
8.4239e-005
1.7931e-005
1.37105e-005
1.33645e-005
1.33962e-005
1.34131e-005
1.32457e-005
1.30547e-005
1.29746e-005
1.29624e-005
1.29426e-005
1.28263e-005
1.54442
1.16318
0.887958
0.68596
0.535043
0.420317
0.331602
0.261835
0.206047
0.160713
0.123179
0.09183
0.0653352
0.042819
0.0237711
0.00851377
0.00139389
0.000144026
3.3852e-005
2.55159e-005
2.50478e-005
2.49316e-005
2.48078e-005
2.4882e-005
2.47156e-005
2.44592e-005
2.44786e-005
2.43805e-005
2.43208e-005
1.48289
1.12014
0.857701
0.664701
0.520194
0.410086
0.324732
0.257434
0.203475
0.159499
0.123084
0.0925244
0.0665956
0.0444537
0.0255971
0.0100958
0.0019491
0.000230233
5.07503e-005
3.60524e-005
3.48429e-005
3.47409e-005
3.46961e-005
3.44e-005
3.42313e-005
3.42711e-005
3.42145e-005
3.41399e-005
3.39403e-005
1.41962
1.07578
0.826451
0.642692
0.504784
0.399438
0.317554
0.252805
0.200736
0.158172
0.122836
0.0930676
0.0677118
0.04596
0.0273324
0.0117105
0.00262311
0.000348371
7.13369e-005
4.49934e-005
4.25954e-005
4.22024e-005
4.21772e-005
4.23925e-005
4.22886e-005
4.19312e-005
4.18184e-005
4.16148e-005
4.16315e-005
1.35482
1.03028
0.794351
0.620063
0.48893
0.388485
0.31018
0.248065
0.197948
0.156838
0.122585
0.0936344
0.0688761
0.0475378
0.0291512
0.0134933
0.00347418
0.000515343
9.59398e-005
5.26552e-005
4.8558e-005
4.84227e-005
4.83503e-005
4.78316e-005
4.77081e-005
4.77916e-005
4.77985e-005
4.78366e-005
4.75845e-005
1.28863
0.983719
0.761461
0.59685
0.472658
0.377246
0.302624
0.243227
0.195128
0.155522
0.122391
0.0942751
0.0701275
0.0492175
0.0310927
0.0154438
0.00457546
0.000787416
0.000141588
6.25977e-005
5.3659e-005
5.23195e-005
5.2314e-005
5.26134e-005
5.24925e-005
5.20686e-005
5.19341e-005
5.18317e-005
5.20159e-005
1.22127
0.936241
0.727849
0.57308
0.455964
0.365697
0.294854
0.238254
0.192239
0.154193
0.12223
0.0949863
0.0714781
0.051011
0.0331416
0.0175624
0.00591011
0.00115097
0.000202552
7.29573e-005
5.74677e-005
5.61933e-005
5.56587e-005
5.51701e-005
5.53227e-005
5.54952e-005
5.54168e-005
5.52518e-005
5.48329e-005
1.15311
0.888051
0.693635
0.548814
0.438873
0.353843
0.28686
0.233133
0.189269
0.152841
0.122097
0.0957689
0.072937
0.0529481
0.0353721
0.019887
0.00758645
0.001733
0.000318897
9.33286e-005
6.24584e-005
5.81147e-005
5.79673e-005
5.80935e-005
5.78094e-005
5.74361e-005
5.73949e-005
5.75072e-005
5.77701e-005
1.0845
0.839372
0.658953
0.524128
0.421424
0.341699
0.278648
0.227862
0.186215
0.151468
0.121999
0.0966385
0.0745287
0.0550559
0.0378131
0.0225271
0.00971445
0.00255437
0.000494386
0.000124961
6.85732e-005
6.11611e-005
5.94861e-005
5.91136e-005
5.94351e-005
5.95884e-005
5.94511e-005
5.88866e-005
5.87947e-005
1.01581
0.79043
0.623933
0.499085
0.403636
0.329254
0.270183
0.222393
0.183019
0.150007
0.121867
0.0975228
0.0761813
0.0572694
0.0403961
0.0252954
0.0121612
0.00379184
0.000834063
0.000190757
8.06805e-005
6.36913e-005
6.16526e-005
6.12387e-005
6.03971e-005
6.0338e-005
6.05543e-005
6.08397e-005
6.0686e-005
0.947454
0.741487
0.588728
0.473768
0.385539
0.316502
0.261438
0.216681
0.179627
0.148402
0.121645
0.0983644
0.0778349
0.0595291
0.0430825
0.0282623
0.0149773
0.00533845
0.00129408
0.000295786
0.000102598
6.84244e-005
6.28421e-005
6.20898e-005
6.2233e-005
6.19454e-005
6.13456e-005
6.14244e-005
6.15797e-005
0.879881
0.692826
0.553514
0.448274
0.367181
0.303457
0.252399
0.210699
0.176002
0.146608
0.121282
0.099117
0.0794509
0.0618001
0.0458233
0.0312986
0.01809
0.00754848
0.00216004
0.000509804
0.000146747
7.76871e-005
6.56942e-005
6.31365e-005
6.26903e-005
6.29369e-005
6.27941e-005
6.2674e-005
6.2357e-005
0.813523
0.644732
0.518474
0.422717
0.348624
0.290143
0.243068
0.204432
0.172117
0.144593
0.120743
0.099748
0.0810026
0.0640664
0.0486253
0.0344719
0.0214003
0.0101597
0.00332828
0.000850525
0.000230134
9.6391e-005
6.97864e-005
6.56513e-005
6.37836e-005
6.34475e-005
6.35948e-005
6.34639e-005
6.35231e-005
0.748782
0.59748
0.48379
0.397211
0.329931
0.27659
0.233448
0.197862
0.167942
0.142318
0.119987
0.100215
0.0824493
0.0662884
0.0514473
0.0377329
0.0250046
0.0134135
0.00516622
0.00148069
0.000392436
0.000135415
7.88615e-005
6.75834e-005
6.59748e-005
6.48526e-005
6.42818e-005
6.43839e-005
6.42266e-005
0.68603
0.551329
0.449637
0.371868
0.31117
0.262827
0.223538
0.190968
0.163438
0.139729
0.118945
0.100407
0.083689
0.068368
0.0541869
0.0409694
0.0285782
0.0170374
0.00767741
0.00253605
0.000703813
0.000214748
9.88681e-005
7.25192e-005
6.7089e-005
6.64852e-005
6.5843e-005
6.51267e-005
6.53468e-005
0.6256
0.50652
0.416187
0.346806
0.292414
0.248893
0.213353
0.183741
0.158578
0.136783
0.117559
0.100299
0.0846434
0.0702134
0.0567611
0.0441176
0.0321755
0.0207942
0.0107499
0.00412661
0.00126308
0.00037238
0.00014045
8.38467e-005
7.02797e-005
6.73096e-005
6.72318e-005
6.67352e-005
6.60926e-005
0.567779
0.463271
0.383601
0.32214
0.273742
0.234838
0.202916
0.176184
0.153348
0.13346
0.115819
0.0999097
0.0853323
0.0718124
0.0591263
0.0471146
0.0356725
0.0247145
0.0143591
0.00638756
0.00219876
0.00067181
0.00022619
0.000107642
7.77417e-005
6.98429e-005
6.80228e-005
6.81333e-005
6.76362e-005
0.512804
0.421773
0.352026
0.297983
0.255235
0.220716
0.192258
0.168309
0.147745
0.12974
0.113681
0.0991133
0.0856437
0.073108
0.0612461
0.0499219
0.0390385
0.0285152
0.0183917
0.00947222
0.0037561
0.00123118
0.000399671
0.000158544
9.28809e-005
7.58196e-005
7.03212e-005
6.9016e-005
6.91619e-005
0.460859
0.382185
0.321597
0.274442
0.236976
0.206586
0.181418
0.160136
0.14177
0.125604
0.111101
0.0978535
0.0855225
0.0739885
0.0630065
0.0524433
0.0422056
0.0322167
0.0224091
0.0132415
0.00611596
0.00227647
0.000750694
0.00026669
0.000125539
8.61368e-005
7.53798e-005
7.14027e-005
7.03005e-005
0.412079
0.344638
0.29243
0.251615
0.219045
0.192511
0.170439
0.15169
0.135432
0.121049
0.108077
0.0961617
0.0850397
0.0744853
0.0644029
0.0546279
0.045081
0.0356986
0.0264021
0.0172279
0.00927048
0.00392802
0.00141388
0.000489479
0.000195519
0.000108222
8.29277e-005
7.57663e-005
7.30891e-005
0.366549
0.30923
0.264622
0.229593
0.201521
0.178555
0.159371
0.143006
0.128752
0.116081
0.104595
0.0939894
0.0840321
0.0744429
0.0653046
0.0563725
0.0475708
0.0388452
0.0301532
0.0214089
0.0129687
0.00641629
0.00256551
0.000922335
0.000342939
0.000155726
9.90126e-005
8.17864e-005
7.65573e-005
0.324313
0.276032
0.238255
0.208458
0.184479
0.164785
0.148269
0.134125
0.121756
0.110713
0.100654
0.0913173
0.082496
0.0740144
0.0657326
0.0576579
0.049634
0.0416078
0.0335439
0.0253978
0.0171706
0.00965586
0.0044808
0.00173821
0.000643186
0.000258932
0.00013327
9.44874e-005
8.16444e-005
0.285369
0.245086
0.213391
0.188281
0.167992
0.151267
0.137193
0.125098
0.114483
0.10497
0.0962687
0.0881525
0.080445
0.0730148
0.0656183
0.0584088
0.0511941
0.0439139
0.0365302
0.0289978
0.0213079
0.0136519
0.00718897
0.00318672
0.00122966
0.000476221
0.000209078
0.000120753
9.25308e-005
0.249682
0.216407
0.190075
0.16912
0.152125
0.138068
0.126204
0.11598
0.10698
0.0988901
0.0914631
0.0845065
0.0778663
0.0714189
0.0650446
0.0585879
0.0522101
0.0457106
0.03905
0.0321976
0.0250979
0.0178199
0.0108415
0.00541033
0.00232703
0.000914398
0.000372756
0.000179065
0.000113729
0.217178
0.189982
0.168331
0.151024
0.136936
0.125252
0.115367
0.10683
0.0993014
0.0925179
0.0862738
0.080405
0.0747789
0.0692878
0.0638481
0.0582877
0.0526484
0.0469478
0.0410468
0.0349086
0.0285043
0.0217662
0.014915
0.00866329
0.00415474
0.00175353
0.000709008
0.000306375
0.000159406
0.187751
0.165774
0.148164
0.134024
0.122478
0.112879
0.104746
0.0977144
0.0915078
0.0859096
0.0807485
0.0758861
0.0712088
0.0666224
0.0620497
0.0574225
0.0525195
0.0475881
0.0424614
0.0370709
0.0313781
0.0253603
0.0189407
0.0125485
0.00700536
0.00326227
0.0013738
0.00057342
0.000259098
0.161269
0.143721
0.129563
0.118143
0.108792
0.101006
0.0944052
0.0887002
0.0836672
0.0791298
0.0749466
0.0710015
0.0671982
0.0634545
0.0597007
0.0558717
0.0518864
0.0475787
0.0432389
0.0386192
0.0336794
0.0283792
0.0226951
0.016581
0.0106674
0.00575051
0.00262184
0.00111715
0.000471348
0.137573
0.123742
0.112497
0.103388
0.0959112
0.0896826
0.0844069
0.079856
0.0758513
0.0722502
0.0689369
0.0658151
0.0628035
0.0598318
0.0568383
0.0537672
0.0505772
0.0471274
0.0433729
0.0395217
0.0353481
0.0308113
0.0258548
0.020467
0.0146586
0.00918754
0.00480232
0.00216056
0.000912083
0.116487
0.105737
0.0969236
0.0897529
0.0838587
0.0789528
0.0748089
0.0712496
0.0681337
0.065347
0.0627957
0.0604007
0.0580939
0.055816
0.0535137
0.0511387
0.0486495
0.0460095
0.0430239
0.0397622
0.0363521
0.0325905
0.0284183
0.0237708
0.0186545
0.0131341
0.00802497
0.0040828
0.00178479
0.097822
0.0895939
0.0827846
0.0772219
0.0726483
0.0688523
0.0656633
0.0629449
0.0605868
0.0584981
0.0566036
0.0548389
0.0531479
0.0514809
0.0497934
0.0480439
0.0461945
0.0442069
0.0420419
0.0394854
0.0366758
0.0336857
0.030309
0.0264834
0.0221113
0.0172565
0.0119409
0.00715458
0.00343811
0.0813832
0.0751917
0.0700137
0.065769
0.0622845
0.0594088
0.0570156
0.0550011
0.0532797
0.0517797
0.0504416
0.0492134
0.0480493
0.0469085
0.0457548
0.0445543
0.0432741
0.0418797
0.0403363
0.0386032
0.0364533
0.0340791
0.0314976
0.0285026
0.0250094
0.0208989
0.0162472
0.011095
0.0063093
0.0669747
0.0624052
0.0585379
0.0553603
0.0527633
0.0506416
0.0489033
0.0474701
0.0462755
0.0452635
0.0443877
0.0436066
0.042883
0.0421839
0.0414816
0.0407493
0.0399613
0.0390877
0.0381019
0.0369687
0.0356415
0.0338961
0.0319635
0.029798
0.0272043
0.024044
0.0201375
0.0157157
0.0102852
0.0544062
0.0511093
0.0482805
0.045956
0.0440734
0.0425623
0.0413561
0.0403958
0.0396297
0.039014
0.0385136
0.0380959
0.0377305
0.0373911
0.0370583
0.0367123
0.0363356
0.0359024
0.0353969
0.034786
0.0340651
0.03313
0.0318124
0.0303354
0.0286407
0.0264856
0.0236243
0.0200056
0.0153822
0.0434974
0.0411822
0.0391635
0.037512
0.036198
0.0351751
0.0343953
0.0338132
0.0333883
0.033086
0.0328821
0.03275
0.0326665
0.0326095
0.0325676
0.0325273
0.0324803
0.0324036
0.0322934
0.0321187
0.0318881
0.031568
0.0310634
0.030197
0.0292648
0.0281133
0.0264528
0.0239159
0.020652
0.0340821
0.0325083
0.0311102
0.0299831
0.0291161
0.0284789
0.0280349
0.0277483
0.0275876
0.0275228
0.0275459
0.0276278
0.027759
0.0279139
0.0280905
0.0282804
0.0284848
0.0286814
0.0288772
0.0290446
0.0292059
0.0293266
0.0294126
0.0293772
0.0291467
0.0287345
0.0283009
0.0272151
0.0253495
0.0260102
0.0249805
0.0240479
0.023325
0.0228054
0.0224679
0.0222826
0.0222187
0.0222553
0.0223679
0.0225566
0.0227955
0.0230764
0.0233822
0.0237164
0.0240724
0.024461
0.024857
0.0252782
0.0256969
0.0261561
0.0266019
0.0271189
0.0276555
0.0282638
0.0284747
0.0289877
0.0290091
0.028741
0.0191501
0.0185024
0.017911
0.0174979
0.0172444
0.0171337
0.0171433
0.0172394
0.0174189
0.0176592
0.0179625
0.0183094
0.0186991
0.0191165
0.0195703
0.020055
0.0205871
0.0211438
0.0217327
0.0223435
0.0230152
0.0236902
0.0245035
0.0252757
0.0264775
0.0274533
0.0290602
0.0300043
0.0310405
0.0133899
0.0129915
0.0126454
0.0124701
0.0124163
0.0124738
0.0126207
0.0128352
0.0131092
0.0134438
0.0138387
0.014274
0.0147628
0.0152914
0.0158616
0.0164882
0.0171668
0.0179237
0.0187235
0.0197145
0.0207601
0.0221317
0.0235071
0.0254539
0.02737
0.0293942
0.0318767
0.0343079
0.0370801
0.00864067
0.0083861
0.00821585
0.00822271
0.00831007
0.00849717
0.00874404
0.0090403
0.00939256
0.00981958
0.01032
0.0108678
0.0114861
0.0121927
0.0129903
0.0140436
0.015308
0.017101
0.0191472
0.0218064
0.0245862
0.0290497
0.032951
0.0404359
0.0457503
0.0568994
0.0630584
0.078275
0.0793425
0.00484595
0.0046608
0.00462123
0.00475677
0.00495182
0.00524001
0.00558929
0.00595621
0.00639997
0.00694411
0.00760943
0.00852373
0.00973135
0.0114738
0.0137183
0.0168015
0.0211342
0.0270172
0.034604
0.0449314
0.0569032
0.0738538
0.0910635
0.118307
0.140883
0.184391
0.212946
0.285106
0.301383
0.00199474
0.00184798
0.00189384
0.00213431
0.00242774
0.00277353
0.00331501
0.0038032
0.00468117
0.00592839
0.00786612
0.010756
0.0147718
0.020228
0.0278838
0.0380785
0.0515449
0.0681664
0.0886993
0.114284
0.144837
0.183927
0.228632
0.289382
0.353754
0.453385
0.545977
0.734503
0.839283
0.000436126
0.000408237
0.000491315
0.000771105
0.00145011
0.00208143
0.00360536
0.00500851
0.00774967
0.0115471
0.0171934
0.0249787
0.035027
0.0478774
0.0646824
0.0859588
0.112816
0.145377
0.18506
0.233233
0.291947
0.364076
0.451821
0.562555
0.697063
0.878132
1.10003
1.42988
1.7426
0.000990139
0.000990139
0.00099014
0.00099014
0.00099014
0.000990141
0.000990141
0.000990141
0.000990141
0.000990141
0.000990142
0.000990142
0.000990142
0.000990142
0.000990143
0.000990143
0.000990143
0.000990144
0.000990144
0.000990144
0.000990144
0.000990145
0.000990145
0.000990145
0.000990146
0.000990146
0.000990146
0.000990147
0.000990147
0.000990147
0.000990148
0.000990148
0.000990148
0.000990149
0.000990149
0.000990149
0.00099015
0.00099015
0.00099015
0.00099015
0.00099015
0.000990151
0.000990151
0.000990151
0.000990151
0.000990151
0.000990151
0.000990151
0.000990152
0.000990152
0.000990152
0.000990152
0.000990152
0.000990152
0.000990152
0.000990152
0.000990152
0.000990152
0.000990152
0.000990152
0.000990152
0.000990152
0.000990153
0.000990153
0.000990153
0.000990153
0.000990153
0.000990153
0.000990153
0.000990153
0.000990153
0.000990153
0.000990153
0.000990153
0.000990153
0.000990153
0.000990154
0.000990154
0.000990154
0.000990154
0.000990154
0.000990154
0.000990154
0.000990154
0.000990154
0.000990154
0.000990153
0.000990153
0.000990153
0.000990153
0.000990154
0.000990154
0.000990154
0.000990154
0.000990154
0.000990154
0.000990154
0.000990155
0.000990155
0.000990155
0.000990155
0.000990155
0.000990155
0.000990156
0.000990156
0.000990156
0.000990156
0.000990156
0.000990156
0.000990156
0.000990156
0.000990156
0.000990156
0.000990156
0.000990155
0.000990155
0.000990155
0.000990155
0.000990155
0.000990155
0.000990155
0.000990155
0.000990155
0.000990156
0.000990156
0.000990156
0.000990156
0.000990157
0.000990156
0.000990157
0.000990158
0.000990158
0.00099016
0.000990162
0.000990161
0.000990165
0.000990164
0.000990175
0.00100823
4.09882e-005
4.09889e-005
4.09894e-005
4.09899e-005
4.09903e-005
4.09907e-005
4.09911e-005
4.09915e-005
4.09918e-005
4.09922e-005
4.09925e-005
4.09929e-005
4.09933e-005
4.09937e-005
4.09942e-005
4.09946e-005
4.09951e-005
4.09955e-005
4.09959e-005
4.09964e-005
4.09968e-005
4.09973e-005
4.09978e-005
4.09983e-005
4.09988e-005
4.09993e-005
4.09999e-005
4.10004e-005
4.1001e-005
4.10016e-005
4.10021e-005
4.10027e-005
4.10033e-005
4.10039e-005
4.10044e-005
4.10049e-005
4.10053e-005
4.10057e-005
4.10061e-005
4.10064e-005
4.10068e-005
4.10071e-005
4.10074e-005
4.10077e-005
4.1008e-005
4.10083e-005
4.10085e-005
4.10088e-005
4.1009e-005
4.10092e-005
4.10094e-005
4.10096e-005
4.10097e-005
4.10099e-005
4.101e-005
4.10101e-005
4.10103e-005
4.10104e-005
4.10106e-005
4.10107e-005
4.10109e-005
4.10111e-005
4.10113e-005
4.10115e-005
4.10117e-005
4.10119e-005
4.10121e-005
4.10123e-005
4.10124e-005
4.10126e-005
4.10127e-005
4.10129e-005
4.1013e-005
4.10132e-005
4.10133e-005
4.10134e-005
4.10136e-005
4.10137e-005
4.10138e-005
4.10138e-005
4.10139e-005
4.10139e-005
4.1014e-005
4.1014e-005
4.10139e-005
4.10139e-005
4.10138e-005
4.10137e-005
4.10137e-005
4.10139e-005
4.1014e-005
4.10143e-005
4.10145e-005
4.10147e-005
4.1015e-005
4.10153e-005
4.10155e-005
4.10158e-005
4.1016e-005
4.10163e-005
4.10165e-005
4.10168e-005
4.1017e-005
4.10172e-005
4.10174e-005
4.10176e-005
4.10178e-005
4.1018e-005
4.10181e-005
4.10182e-005
4.10182e-005
4.1018e-005
4.10177e-005
4.10173e-005
4.10167e-005
4.10161e-005
4.10156e-005
4.10153e-005
4.10154e-005
4.10157e-005
4.1016e-005
4.10162e-005
4.10163e-005
4.10167e-005
4.10164e-005
4.10171e-005
4.10162e-005
4.10175e-005
4.10171e-005
4.10172e-005
4.10198e-005
4.10192e-005
4.10213e-005
4.10254e-005
4.10227e-005
4.10283e-005
4.10605e-005
4.10263e-005
4.18784e-005
3.38066e-006
3.38089e-006
3.38106e-006
3.38121e-006
3.38136e-006
3.38149e-006
3.3816e-006
3.38171e-006
3.38182e-006
3.38192e-006
3.38202e-006
3.38212e-006
3.38221e-006
3.38231e-006
3.38241e-006
3.38251e-006
3.38261e-006
3.38271e-006
3.38281e-006
3.38292e-006
3.38303e-006
3.38315e-006
3.38326e-006
3.38339e-006
3.38352e-006
3.38365e-006
3.38378e-006
3.38392e-006
3.38406e-006
3.3842e-006
3.38435e-006
3.3845e-006
3.38464e-006
3.3848e-006
3.38495e-006
3.3851e-006
3.38525e-006
3.3854e-006
3.38555e-006
3.3857e-006
3.38584e-006
3.38599e-006
3.38613e-006
3.38627e-006
3.3864e-006
3.38654e-006
3.38667e-006
3.3868e-006
3.38693e-006
3.38706e-006
3.38718e-006
3.38731e-006
3.38743e-006
3.38754e-006
3.38766e-006
3.38777e-006
3.38788e-006
3.38799e-006
3.3881e-006
3.38822e-006
3.38834e-006
3.38846e-006
3.38857e-006
3.38869e-006
3.38881e-006
3.38892e-006
3.38903e-006
3.38914e-006
3.38924e-006
3.38934e-006
3.38944e-006
3.38954e-006
3.38963e-006
3.38973e-006
3.38982e-006
3.38991e-006
3.38999e-006
3.39007e-006
3.39015e-006
3.39023e-006
3.3903e-006
3.39037e-006
3.39044e-006
3.39051e-006
3.39057e-006
3.39063e-006
3.39069e-006
3.39075e-006
3.39079e-006
3.39083e-006
3.39088e-006
3.39092e-006
3.39097e-006
3.39102e-006
3.39108e-006
3.39113e-006
3.39118e-006
3.39123e-006
3.39128e-006
3.39133e-006
3.39138e-006
3.39142e-006
3.39145e-006
3.39148e-006
3.3915e-006
3.39151e-006
3.39151e-006
3.39151e-006
3.39149e-006
3.39146e-006
3.39142e-006
3.39133e-006
3.3912e-006
3.39105e-006
3.3909e-006
3.39073e-006
3.39056e-006
3.39042e-006
3.39033e-006
3.39027e-006
3.39021e-006
3.39014e-006
3.39e-006
3.38995e-006
3.38971e-006
3.38961e-006
3.38942e-006
3.38914e-006
3.3892e-006
3.38893e-006
3.3892e-006
3.38945e-006
3.38875e-006
3.3894e-006
3.39614e-006
3.39602e-006
3.00974e-006
3.37396e-006
0.000112906
5.32728e-007
5.32788e-007
5.32838e-007
5.32883e-007
5.32925e-007
5.32966e-007
5.33005e-007
5.33042e-007
5.33079e-007
5.33115e-007
5.33151e-007
5.33188e-007
5.33226e-007
5.33264e-007
5.33303e-007
5.33343e-007
5.33382e-007
5.33423e-007
5.33464e-007
5.33506e-007
5.33549e-007
5.33592e-007
5.33637e-007
5.33683e-007
5.3373e-007
5.33778e-007
5.33827e-007
5.33877e-007
5.33928e-007
5.33979e-007
5.34031e-007
5.34084e-007
5.34137e-007
5.34191e-007
5.34247e-007
5.34303e-007
5.34361e-007
5.34419e-007
5.34476e-007
5.34533e-007
5.3459e-007
5.34647e-007
5.34703e-007
5.34759e-007
5.34815e-007
5.34871e-007
5.34927e-007
5.34982e-007
5.35037e-007
5.35091e-007
5.35146e-007
5.35199e-007
5.35253e-007
5.35306e-007
5.35359e-007
5.35412e-007
5.35465e-007
5.35517e-007
5.35569e-007
5.35622e-007
5.35675e-007
5.35726e-007
5.35777e-007
5.35827e-007
5.35876e-007
5.35924e-007
5.35971e-007
5.36017e-007
5.36062e-007
5.36106e-007
5.36149e-007
5.36192e-007
5.36234e-007
5.36275e-007
5.36315e-007
5.36354e-007
5.36393e-007
5.3643e-007
5.36467e-007
5.36504e-007
5.36539e-007
5.36573e-007
5.36606e-007
5.36638e-007
5.36669e-007
5.36699e-007
5.36728e-007
5.36756e-007
5.36779e-007
5.36797e-007
5.36814e-007
5.3683e-007
5.36845e-007
5.3686e-007
5.36873e-007
5.36886e-007
5.36897e-007
5.36907e-007
5.36916e-007
5.36923e-007
5.36929e-007
5.36932e-007
5.36933e-007
5.36932e-007
5.36929e-007
5.36923e-007
5.36915e-007
5.36904e-007
5.3689e-007
5.36873e-007
5.36854e-007
5.36827e-007
5.3679e-007
5.36745e-007
5.36695e-007
5.36641e-007
5.36583e-007
5.36522e-007
5.36469e-007
5.36419e-007
5.36367e-007
5.36312e-007
5.36247e-007
5.36178e-007
5.361e-007
5.35997e-007
5.35925e-007
5.35804e-007
5.35691e-007
5.35685e-007
5.35582e-007
5.34098e-007
5.3649e-007
5.41566e-007
4.95501e-007
4.86205e-007
5.22223e-006
0.000760825
0.0340389
1.4665e-007
1.4667e-007
1.46689e-007
1.46708e-007
1.46728e-007
1.46746e-007
1.46764e-007
1.46781e-007
1.468e-007
1.46818e-007
1.46836e-007
1.46854e-007
1.46872e-007
1.46891e-007
1.4691e-007
1.46929e-007
1.46949e-007
1.4697e-007
1.4699e-007
1.47011e-007
1.47033e-007
1.47055e-007
1.47077e-007
1.471e-007
1.47122e-007
1.47145e-007
1.47169e-007
1.47192e-007
1.47216e-007
1.4724e-007
1.47264e-007
1.47289e-007
1.47313e-007
1.47338e-007
1.47363e-007
1.47388e-007
1.47414e-007
1.47439e-007
1.47465e-007
1.47491e-007
1.47516e-007
1.47542e-007
1.47568e-007
1.47593e-007
1.47619e-007
1.47645e-007
1.4767e-007
1.47696e-007
1.47721e-007
1.47746e-007
1.47771e-007
1.47796e-007
1.47821e-007
1.47846e-007
1.47871e-007
1.47896e-007
1.4792e-007
1.47944e-007
1.47968e-007
1.47992e-007
1.48015e-007
1.48038e-007
1.4806e-007
1.48082e-007
1.48104e-007
1.48125e-007
1.48146e-007
1.48166e-007
1.48186e-007
1.48206e-007
1.48226e-007
1.48245e-007
1.48263e-007
1.48282e-007
1.48299e-007
1.48317e-007
1.48334e-007
1.4835e-007
1.48366e-007
1.48382e-007
1.48397e-007
1.48412e-007
1.48427e-007
1.4844e-007
1.48454e-007
1.48467e-007
1.48479e-007
1.48491e-007
1.48502e-007
1.48511e-007
1.4852e-007
1.48528e-007
1.48535e-007
1.48541e-007
1.48547e-007
1.48551e-007
1.48555e-007
1.48558e-007
1.48561e-007
1.48562e-007
1.48563e-007
1.48562e-007
1.4856e-007
1.48558e-007
1.48555e-007
1.48551e-007
1.48546e-007
1.48539e-007
1.48532e-007
1.48523e-007
1.48514e-007
1.48503e-007
1.4849e-007
1.48475e-007
1.48457e-007
1.48438e-007
1.48417e-007
1.48394e-007
1.48371e-007
1.48347e-007
1.48322e-007
1.48294e-007
1.48262e-007
1.48227e-007
1.48186e-007
1.48144e-007
1.48091e-007
1.48048e-007
1.47991e-007
1.47913e-007
1.48301e-007
1.53159e-007
1.47112e-007
1.26461e-007
2.67656e-007
8.14011e-006
0.000694483
0.0239389
0.213613
6.18846e-008
6.18979e-008
6.1911e-008
6.1924e-008
6.19357e-008
6.19481e-008
6.19613e-008
6.19743e-008
6.19875e-008
6.20007e-008
6.20144e-008
6.20286e-008
6.20432e-008
6.20578e-008
6.20725e-008
6.20877e-008
6.2103e-008
6.21186e-008
6.21341e-008
6.215e-008
6.2166e-008
6.21823e-008
6.2199e-008
6.22159e-008
6.22332e-008
6.22506e-008
6.22682e-008
6.22861e-008
6.2304e-008
6.23221e-008
6.23404e-008
6.23588e-008
6.23772e-008
6.23958e-008
6.24145e-008
6.24333e-008
6.24521e-008
6.24708e-008
6.24896e-008
6.25084e-008
6.25272e-008
6.25459e-008
6.25646e-008
6.25831e-008
6.26017e-008
6.26202e-008
6.26386e-008
6.26569e-008
6.26751e-008
6.26932e-008
6.27111e-008
6.27289e-008
6.27465e-008
6.27641e-008
6.27814e-008
6.27985e-008
6.28156e-008
6.28323e-008
6.28488e-008
6.28651e-008
6.28811e-008
6.28967e-008
6.29121e-008
6.29274e-008
6.29423e-008
6.29571e-008
6.29717e-008
6.29859e-008
6.29998e-008
6.30135e-008
6.30269e-008
6.30401e-008
6.30529e-008
6.30655e-008
6.30778e-008
6.30897e-008
6.31012e-008
6.31125e-008
6.31236e-008
6.31343e-008
6.31447e-008
6.31547e-008
6.31644e-008
6.31738e-008
6.31828e-008
6.31915e-008
6.31998e-008
6.32076e-008
6.32153e-008
6.32226e-008
6.32294e-008
6.32358e-008
6.32416e-008
6.3247e-008
6.32519e-008
6.32562e-008
6.326e-008
6.32632e-008
6.32658e-008
6.3268e-008
6.32693e-008
6.32702e-008
6.32704e-008
6.327e-008
6.32692e-008
6.32678e-008
6.32658e-008
6.32632e-008
6.32598e-008
6.32556e-008
6.32507e-008
6.32456e-008
6.32401e-008
6.32339e-008
6.32268e-008
6.32188e-008
6.32096e-008
6.31994e-008
6.31885e-008
6.31764e-008
6.31633e-008
6.31481e-008
6.31316e-008
6.31124e-008
6.3091e-008
6.30688e-008
6.30407e-008
6.30159e-008
6.30057e-008
6.31174e-008
6.32723e-008
5.11193e-008
6.01516e-008
3.6278e-007
1.99477e-005
0.0011266
0.0249458
0.175482
0.622101
3.09128e-008
3.09288e-008
3.09413e-008
3.09511e-008
3.0961e-008
3.09753e-008
3.09868e-008
3.0998e-008
3.10096e-008
3.10218e-008
3.1035e-008
3.10482e-008
3.1061e-008
3.10739e-008
3.1088e-008
3.11022e-008