/*--------------------------------*- C++ -*----------------------------------*\
| =========                 |                                                 |
| \\      /  F ield         | OpenFOAM: The Open Source CFD Toolbox           |
|  \\    /   O peration     | Version:  5.x                                   |
|   \\  /    A nd           | Web:      www.OpenFOAM.org                      |
|    \\/     M anipulation  |                                                 |
\*---------------------------------------------------------------------------*/
/*   Windows 32 and 64 bit porting by blueCAPE: http://www.bluecape.com.pt   *\
|  Based on Windows porting (2.0.x v4) by Symscape: http://www.symscape.com   |
\*---------------------------------------------------------------------------*/
FoamFile
{
    version     2.0;
    format      ascii;
    class       volScalarField;
    location    "170";
    object      nut;
}
// * * * * * * * * * * * * * * * * * * * * * * * * * * * * * * * * * * * * * //

dimensions      [0 2 -1 0 0 0 0];

internalField   nonuniform List<scalar> 
43900
(
5.71522e-005
5.80038e-005
5.80696e-005
5.80647e-005
5.80598e-005
5.80593e-005
5.80591e-005
5.80592e-005
5.80587e-005
5.80589e-005
5.8059e-005
5.80592e-005
5.80594e-005
5.80596e-005
5.80597e-005
5.80598e-005
5.80599e-005
5.80599e-005
5.806e-005
5.806e-005
5.80601e-005
5.80601e-005
5.80602e-005
5.80602e-005
5.80602e-005
5.80603e-005
5.80603e-005
5.80603e-005
5.80604e-005
0.000576068
7.24853e-006
4.30619e-006
4.15768e-006
4.58427e-006
4.60761e-006
4.60964e-006
4.60445e-006
4.60329e-006
4.60391e-006
4.60421e-006
4.60472e-006
4.60516e-006
4.60549e-006
4.60575e-006
4.60599e-006
4.60619e-006
4.60635e-006
4.6065e-006
4.60664e-006
4.60677e-006
4.6069e-006
4.60702e-006
4.60712e-006
4.60722e-006
4.60731e-006
4.60739e-006
4.60746e-006
4.60752e-006
0.152055
0.0446949
0.00494586
9.86804e-005
1.22238e-006
6.43444e-007
6.0092e-007
7.16713e-007
7.25973e-007
7.22853e-007
7.21952e-007
7.22349e-007
7.22661e-007
7.22789e-007
7.22914e-007
7.23041e-007
7.23157e-007
7.23259e-007
7.23362e-007
7.2346e-007
7.23547e-007
7.23624e-007
7.23693e-007
7.23754e-007
7.23809e-007
7.23859e-007
7.23905e-007
7.23947e-007
7.23974e-007
0.474194
0.290006
0.132241
0.0373726
0.00422195
0.000142405
3.4445e-006
2.34676e-007
1.67203e-007
2.04466e-007
2.16385e-007
2.13404e-007
2.11648e-007
2.12038e-007
2.12301e-007
2.12376e-007
2.12433e-007
2.12485e-007
2.12535e-007
2.12581e-007
2.12621e-007
2.12655e-007
2.12686e-007
2.12714e-007
2.12739e-007
2.12762e-007
2.12784e-007
2.12804e-007
2.12818e-007
0.751691
0.576038
0.408303
0.243064
0.101688
0.0236645
0.0020509
8.11326e-005
1.83492e-006
1.40944e-007
7.99682e-008
9.83162e-008
1.08521e-007
1.05449e-007
1.03985e-007
1.03964e-007
1.03999e-007
1.04029e-007
1.04052e-007
1.04073e-007
1.04094e-007
1.04111e-007
1.04127e-007
1.04142e-007
1.04156e-007
1.04173e-007
1.04185e-007
1.04196e-007
1.04207e-007
0.959477
0.790846
0.63389
0.481252
0.327939
0.17425
0.0586786
0.0088936
0.000518337
2.00537e-005
5.58162e-007
8.28478e-008
5.29814e-008
6.77325e-008
7.3105e-008
7.27643e-008
7.25946e-008
7.25968e-008
7.26124e-008
7.26258e-008
7.26345e-008
7.26451e-008
7.26561e-008
7.26666e-008
7.26787e-008
7.26855e-008
7.26952e-008
7.27079e-008
7.27179e-008
1.1165
0.9534
0.804269
0.662765
0.523883
0.384149
0.238331
0.097871
0.0209579
0.00168738
7.91191e-005
3.00136e-006
1.61492e-007
5.51778e-008
4.71659e-008
5.1178e-008
5.22241e-008
5.22944e-008
5.23136e-008
5.23301e-008
5.2343e-008
5.23525e-008
5.23569e-008
5.23664e-008
5.23683e-008
5.23609e-008
5.23762e-008
5.23931e-008
5.24019e-008
1.22052
1.06199
0.9186
0.784707
0.655647
0.527634
0.397797
0.265659
0.121488
0.0308459
0.00309107
0.000163864
7.61731e-006
2.96648e-007
6.5362e-008
4.36847e-008
4.21506e-008
4.23103e-008
4.23355e-008
4.23385e-008
4.23426e-008
4.23512e-008
4.23625e-008
4.23696e-008
4.23761e-008
4.23895e-008
4.23977e-008
4.24019e-008
4.24078e-008
1.32631
1.17035
1.03008
0.900383
0.776969
0.656271
0.535439
0.412588
0.287877
0.153356
0.0448861
0.00541092
0.00030791
1.46858e-005
6.39822e-007
7.87039e-008
5.93796e-008
5.62985e-008
5.60626e-008
5.60519e-008
5.60455e-008
5.60402e-008
5.60449e-008
5.60525e-008
5.60705e-008
5.61221e-008
5.61172e-008
5.61147e-008
5.61178e-008
1.378
1.22876
1.09483
0.972125
0.856592
0.744809
0.633946
0.521758
0.406555
0.286406
0.16162
0.0491201
0.00605338
0.000347325
1.66841e-005
7.72041e-007
9.1548e-008
7.15388e-008
7.09007e-008
7.08839e-008
7.08838e-008
7.08843e-008
7.0893e-008
7.09016e-008
7.09201e-008
7.09735e-008
7.09787e-008
7.0979e-008
7.09821e-008
1.41542
1.26832
1.13893
1.02086
0.910906
0.805822
0.70283
0.599613
0.494291
0.385341
0.271786
0.153772
0.0439578
0.00483271
0.000264617
1.26266e-005
6.26166e-007
1.14542e-007
9.5093e-008
9.43254e-008
9.43223e-008
9.43225e-008
9.43515e-008
9.43554e-008
9.43654e-008
9.44298e-008
9.42746e-008
9.4273e-008
9.42736e-008
1.44298
1.29777
1.17
1.0558
0.949657
0.849186
0.751757
0.655113
0.557378
0.457038
0.352935
0.244204
0.130052
0.0308609
0.00265805
0.000134208
6.38191e-006
4.64568e-007
2.1293e-007
2.02602e-007
2.02327e-007
2.02331e-007
2.02544e-007
2.02022e-007
2.02012e-007
2.02008e-007
2.01131e-007
2.01125e-007
2.00833e-007
1.45702
1.31617
1.19014
1.07712
0.974973
0.878238
0.784854
0.693012
0.600903
0.507044
0.410269
0.309699
0.204581
0.0916116
0.0152236
0.000966797
4.63176e-005
2.72591e-006
7.47929e-007
6.6114e-007
6.57945e-007
6.57956e-007
6.59199e-007
6.55466e-007
6.52303e-007
6.5151e-007
6.48682e-007
6.48416e-007
6.48406e-007
1.46003
1.32229
1.20076
1.09004
0.987867
0.894293
0.805018
0.717095
0.629384
0.540455
0.449172
0.354667
0.256211
0.152758
0.0469218
0.00467452
0.000242628
1.34551e-005
2.79136e-006
2.30672e-006
2.28552e-006
2.28548e-006
2.29258e-006
2.27576e-006
2.25184e-006
2.24593e-006
2.2498e-006
2.24069e-006
2.24065e-006
1.45491
1.32016
1.20142
1.09496
0.996726
0.903521
0.815782
0.731589
0.647157
0.561834
0.474567
0.384525
0.291074
0.193711
0.0889926
0.0148296
0.000948381
5.35065e-005
9.4768e-006
7.41925e-006
7.31723e-006
7.32336e-006
7.3489e-006
7.29916e-006
7.18459e-006
7.16408e-006
7.19258e-006
7.14002e-006
7.13992e-006
1.4439
1.31221
1.19617
1.09217
0.997217
0.908349
0.822198
0.738307
0.657146
0.574784
0.490692
0.404083
0.314351
0.220955
0.121168
0.0316776
0.00277429
0.000170204
2.91138e-005
2.21228e-005
2.1735e-005
2.1786e-005
2.18463e-005
2.17394e-005
2.13265e-005
2.11308e-005
2.12637e-005
2.1091e-005
2.10134e-005
1.4289
1.30033
1.18704
1.08549
0.992733
0.906253
0.823907
0.743033
0.661966
0.58234
0.500516
0.416422
0.329448
0.238979
0.143312
0.0476934
0.00586178
0.000427379
8.28204e-005
6.37185e-005
6.24563e-005
6.27357e-005
6.28905e-005
6.28139e-005
6.15608e-005
6.03857e-005
6.09107e-005
6.02639e-005
6.00791e-005
1.41117
1.28584
1.17539
1.07635
0.985864
0.901488
0.821149
0.743078
0.665453
0.586129
0.507155
0.425311
0.34052
0.252258
0.159512
0.0621045
0.00966761
0.000920015
0.00022541
0.000182605
0.000179336
0.000180158
0.000180583
0.000179064
0.00017504
0.000173048
0.000174406
0.000173867
0.000171859
1.39153
1.26958
1.16207
1.06565
0.977494
0.895238
0.816861
0.740637
0.665094
0.589066
0.51072
0.430829
0.348162
0.262152
0.172039
0.0750097
0.0141309
0.00157897
0.000433794
0.000350919
0.000346135
0.00034514
0.000344406
0.000344607
0.000341343
0.000338313
0.000338994
0.000337977
0.000336629
1.37042
1.25201
1.1476
1.05391
0.968179
0.888112
0.811744
0.737407
0.663688
0.589387
0.513444
0.435454
0.354708
0.270674
0.182736
0.0871858
0.0194839
0.00249937
0.000644024
0.00049807
0.00048654
0.000485534
0.000485184
0.000482053
0.000478711
0.000478885
0.000478509
0.000477724
0.000474799
1.34806
1.23337
1.13222
1.04139
0.958206
0.880419
0.806133
0.73374
0.661894
0.589477
0.515602
0.439449
0.360578
0.278497
0.192673
0.0991347
0.0257906
0.0037248
0.00088185
0.000620486
0.000597199
0.000593606
0.000593429
0.000594872
0.000593194
0.000589065
0.000587819
0.000585606
0.000585117
1.32459
1.21382
1.11609
1.02827
0.947763
0.872377
0.800277
0.729917
0.660007
0.589482
0.517481
0.443313
0.366454
0.286445
0.202791
0.111744
0.0334921
0.00541744
0.00114862
0.000719654
0.000681727
0.000680446
0.000679653
0.000674457
0.000672655
0.000672956
0.000672817
0.000672683
0.000670132
1.30005
1.19339
1.09926
1.01461
0.936916
0.864058
0.794261
0.726041
0.658161
0.589608
0.519567
0.447393
0.372585
0.294714
0.213279
0.124979
0.0431318
0.00811062
0.00162574
0.000836214
0.000750492
0.000737804
0.000737654
0.000739938
0.000738675
0.000734288
0.000732309
0.000731056
0.0007325
1.27445
1.17207
1.08171
1.00038
0.92564
0.855435
0.78806
0.722092
0.656351
0.589875
0.521892
0.451803
0.379126
0.303431
0.224217
0.138813
0.0543793
0.0116247
0.00223534
0.000942128
0.000799156
0.000788026
0.000783181
0.000778338
0.000779485
0.000780801
0.000779974
0.00077809
0.000773713
1.24778
1.14987
1.06343
0.985564
0.913904
0.84648
0.781651
0.718057
0.654581
0.590307
0.524511
0.456632
0.38621
0.312824
0.235958
0.153566
0.0680895
0.0171432
0.00340084
0.001152
0.000856494
0.000815757
0.000814915
0.000816478
0.000813711
0.000809464
0.000808755
0.000809782
0.000811979
1.22005
1.12677
1.04439
0.970126
0.901679
0.837161
0.775003
0.713914
0.652832
0.590894
0.527416
0.461896
0.393882
0.322954
0.248648
0.169525
0.0845978
0.0247475
0.0051157
0.00145779
0.000916243
0.000850882
0.000835956
0.000830526
0.000834514
0.000836237
0.000834787
0.000829216
0.000826741
1.19127
1.10275
1.02457
0.954011
0.888889
0.827386
0.76801
0.709535
0.650961
0.591471
0.530428
0.467377
0.401884
0.33353
0.261846
0.185828
0.102753
0.0356797
0.00839362
0.00210532
0.00103385
0.000877367
0.000859846
0.000856342
0.000846873
0.000846153
0.000849157
0.000851837
0.000851196
1.16144
1.07778
1.00389
0.937149
0.875447
0.817056
0.760558
0.704798
0.648837
0.591917
0.533441
0.472945
0.410038
0.344347
0.275447
0.20258
0.122607
0.0491985
0.0127415
0.00311902
0.00123698
0.000921509
0.000872082
0.000866708
0.00086816
0.000865874
0.000858842
0.000859127
0.000861807
1.13055
1.05185
0.982332
0.919475
0.861269
0.806071
0.75254
0.699588
0.64634
0.592092
0.536282
0.478453
0.418247
0.355305
0.289237
0.21948
0.143328
0.0670458
0.0207234
0.0051836
0.00165652
0.00100463
0.000899663
0.000877093
0.000873493
0.000875955
0.00087483
0.000873614
0.000870731
1.09863
1.02493
0.959838
0.900921
0.846274
0.794337
0.743848
0.693791
0.643347
0.591863
0.53882
0.483894
0.426404
0.366342
0.303288
0.236701
0.164601
0.0878561
0.0313061
0.00841682
0.0024544
0.00117488
0.000935278
0.000900262
0.000884326
0.000881267
0.00088273
0.000881811
0.000882061
1.06569
0.997009
0.93636
0.881415
0.830364
0.781739
0.734355
0.687265
0.639712
0.591096
0.540967
0.489056
0.434505
0.377376
0.317397
0.254135
0.186298
0.111831
0.0472232
0.014321
0.00400538
0.00153774
0.00101432
0.000916918
0.00090424
0.000894787
0.000889235
0.000890208
0.000889071
1.03171
0.968046
0.911839
0.86087
0.813432
0.768147
0.723911
0.679844
0.635247
0.589564
0.542329
0.492989
0.44185
0.387972
0.3312
0.271224
0.207279
0.136942
0.0678544
0.023927
0.00697266
0.00229019
0.00119271
0.000958556
0.000913505
0.000908405
0.000903433
0.000896918
0.000898724
0.996714
0.938011
0.886214
0.839199
0.795367
0.753431
0.712366
0.671355
0.629749
0.587015
0.542664
0.496148
0.448113
0.397605
0.34426
0.287773
0.227608
0.161791
0.0919722
0.0378621
0.0121531
0.00377774
0.00157523
0.00105546
0.000939605
0.000915367
0.000914744
0.000911112
0.000905306
0.960681
0.906869
0.859421
0.816315
0.77606
0.737461
0.699569
0.661634
0.623057
0.58335
0.542109
0.499086
0.454114
0.406494
0.356403
0.303418
0.247053
0.185997
0.118671
0.0571307
0.0206477
0.00657544
0.00237442
0.0012667
0.00100184
0.000936058
0.000921348
0.000922264
0.000918614
0.923609
0.874586
0.831399
0.792131
0.7554
0.720106
0.685375
0.65052
0.614995
0.578366
0.540296
0.500568
0.458571
0.414483
0.367736
0.318166
0.265436
0.208749
0.146216
0.0818233
0.0345338
0.0117413
0.00399576
0.00173144
0.00113177
0.000985545
0.000940007
0.000929505
0.00093065
0.885491
0.841127
0.802088
0.766564
0.733283
0.701239
0.669634
0.637842
0.605364
0.571798
0.536802
0.50003
0.460822
0.420304
0.377255
0.331433
0.282531
0.230034
0.172476
0.110013
0.0543404
0.0212162
0.00724298
0.00273164
0.00142081
0.00107058
0.000981152
0.00094938
0.000940003
0.846328
0.806467
0.771437
0.739538
0.709611
0.680741
0.652206
0.623438
0.593985
0.563475
0.531589
0.498031
0.462599
0.42543
0.385572
0.343206
0.298028
0.249575
0.1969
0.13842
0.0795962
0.0355657
0.0132939
0.00478419
0.00205665
0.00125966
0.00104169
0.00098389
0.000962665
0.806133
0.770596
0.739411
0.710995
0.684302
0.658508
0.632965
0.607162
0.58069
0.55321
0.524436
0.494119
0.462066
0.427152
0.391287
0.352782
0.31148
0.267096
0.219009
0.165829
0.107828
0.0563563
0.0235301
0.00871999
0.00340067
0.00168143
0.0011751
0.00103082
0.000989891
0.76494
0.733522
0.705997
0.680901
0.6573
0.634462
0.611811
0.58889
0.56533
0.540825
0.515107
0.487938
0.459068
0.428014
0.39542
0.360382
0.322783
0.282322
0.238577
0.190576
0.137126
0.0822092
0.039856
0.0160422
0.00611944
0.00260898
0.00147128
0.00113303
0.00102868
0.722809
0.695284
0.671212
0.64925
0.628579
0.608557
0.588676
0.568532
0.547794
0.526184
0.503457
0.479389
0.453781
0.426541
0.396302
0.365075
0.331351
0.294902
0.255373
0.212189
0.164207
0.111577
0.0621524
0.0285426
0.0113265
0.00455068
0.00213856
0.00135374
0.00111448
0.679831
0.655952
0.635106
0.616076
0.598157
0.580791
0.563538
0.546042
0.528013
0.509196
0.489367
0.468314
0.445837
0.421731
0.395487
0.367363
0.337293
0.304729
0.269344
0.23065
0.187901
0.140178
0.0899756
0.0471856
0.0209385
0.00843337
0.00358417
0.0018561
0.00128723
0.636134
0.615637
0.597774
0.58146
0.566096
0.55121
0.536425
0.521432
0.505974
0.489824
0.472775
0.454631
0.435201
0.414304
0.391817
0.366729
0.340144
0.311472
0.280169
0.245885
0.207994
0.165707
0.11893
0.0724833
0.0363753
0.0157729
0.00653765
0.00296298
0.0016699
0.59188
0.574487
0.559355
0.545528
0.532514
0.519921
0.507428
0.494773
0.48173
0.468097
0.453685
0.438313
0.421803
0.403978
0.384674
0.363556
0.339888
0.314925
0.287647
0.257617
0.224444
0.187369
0.145744
0.100748
0.0587913
0.0285372
0.0122539
0.00526942
0.00251712
0.547268
0.53269
0.520029
0.508457
0.497582
0.487086
0.476701
0.466207
0.455406
0.44412
0.432178
0.419414
0.405662
0.390756
0.37452
0.356702
0.337006
0.314945
0.291578
0.265728
0.237003
0.204959
0.168753
0.12821
0.0857008
0.0482056
0.0227992
0.00988072
0.0043154
0.502524
0.490471
0.480019
0.47047
0.461524
0.452926
0.44446
0.43594
0.427197
0.418073
0.408415
0.398072
0.386892
0.37472
0.361393
0.34673
0.330584
0.312396
0.291846
0.270014
0.245633
0.218254
0.187375
0.15222
0.113169
0.0734771
0.0400908
0.0184748
0.00796449
0.4579
0.448081
0.439584
0.431833
0.424607
0.417712
0.410975
0.404241
0.397365
0.390208
0.382633
0.374505
0.365686
0.356036
0.345408
0.333651
0.320603
0.306059
0.289447
0.27044
0.250182
0.227341
0.201336
0.171743
0.137837
0.100599
0.0636628
0.0338018
0.0150365
0.413663
0.405796
0.39901
0.39284
0.387136
0.381756
0.376562
0.371426
0.366224
0.360832
0.355131
0.349
0.342314
0.33495
0.326779
0.317668
0.307469
0.296
0.283141
0.268154
0.250695
0.232073
0.210845
0.186315
0.158165
0.125744
0.0901703
0.0563112
0.0280031
0.370086
0.363904
0.358598
0.353806
0.349439
0.345394
0.341566
0.337846
0.334126
0.330298
0.326257
0.321894
0.317102
0.311771
0.305792
0.299053
0.291426
0.282766
0.272874
0.26188
0.248475
0.232517
0.215673
0.196211
0.173333
0.146813
0.115898
0.0820824
0.0492622
0.327444
0.322695
0.318656
0.315056
0.311853
0.308978
0.306347
0.303867
0.301443
0.298979
0.296382
0.293558
0.290411
0.28685
0.282786
0.278125
0.272767
0.266599
0.259462
0.251093
0.242014
0.230274
0.215983
0.201185
0.183669
0.162695
0.137457
0.109252
0.0740719
0.286002
0.282455
0.279488
0.27691
0.274716
0.272859
0.271268
0.269861
0.268551
0.267253
0.265887
0.264368
0.262619
0.260563
0.258127
0.255241
0.251829
0.24781
0.243069
0.23746
0.230788
0.223627
0.213422
0.201346
0.188743
0.173458
0.154431
0.130884
0.104319
0.246013
0.243456
0.241382
0.239675
0.238351
0.237374
0.236677
0.236181
0.23581
0.235483
0.235137
0.234698
0.234103
0.233307
0.232235
0.230793
0.228985
0.22675
0.224041
0.220715
0.216784
0.212268
0.20649
0.198075
0.188657
0.178582
0.165609
0.148463
0.128243
0.207712
0.205948
0.204605
0.203641
0.203065
0.202842
0.202901
0.203157
0.203555
0.203983
0.204466
0.204922
0.205248
0.20541
0.205373
0.205118
0.20457
0.203762
0.202588
0.201083
0.199098
0.196802
0.19316
0.190209
0.184158
0.177306
0.171786
0.16144
0.147664
0.171313
0.170156
0.169399
0.169071
0.169137
0.16955
0.170239
0.171075
0.172089
0.17318
0.174355
0.175395
0.176375
0.177266
0.177974
0.178564
0.178821
0.178989
0.17872
0.178334
0.177625
0.176703
0.17544
0.174307
0.172031
0.167738
0.164784
0.161353
0.158834
0.13701
0.136276
0.135981
0.136208
0.136827
0.137742
0.138989
0.140235
0.141819
0.143355
0.144916
0.14638
0.147672
0.148906
0.149734
0.1505
0.150432
0.150468
0.149066
0.147427
0.145436
0.142131
0.140243
0.137243
0.137345
0.135952
0.136266
0.135437
0.136232
0.104978
0.10448
0.104546
0.105273
0.106374
0.107704
0.109387
0.111036
0.112812
0.114626
0.116177
0.117485
0.118063
0.118423
0.117206
0.115771
0.11185
0.10786
0.103149
0.0995599
0.0960517
0.0918517
0.0896042
0.0854342
0.0843609
0.07949
0.080032
0.0778346
0.0817239
0.0753846
0.07493
0.0752769
0.0764813
0.0779338
0.0798275
0.0816359
0.0833835
0.0848984
0.0861423
0.0860175
0.084999
0.0817706
0.077918
0.0724253
0.0689379
0.0634762
0.0608762
0.0569213
0.0543001
0.051727
0.0511327
0.0505826
0.0524552
0.0531885
0.056913
0.0577873
0.0626637
0.0576683
0.0483982
0.0477961
0.0483943
0.0500263
0.0519142
0.0539493
0.0552443
0.0560009
0.0551557
0.0529751
0.0475395
0.0442906
0.0406883
0.0393007
0.0370425
0.0369621
0.0374585
0.0407291
0.0443657
0.0506618
0.0561878
0.0652929
0.0715043
0.0839265
0.0893475
0.105686
0.109736
0.131437
0.118808
0.0240629
0.0230801
0.0238454
0.0262034
0.0279214
0.0281127
0.0264409
0.0244885
0.0233302
0.0228165
0.022361
0.0242743
0.0269197
0.0311604
0.0364079
0.0434494
0.0513826
0.060781
0.0703328
0.0821183
0.0930839
0.10793
0.11985
0.139324
0.150904
0.178294
0.187174
0.231201
0.222217
0.00637249
0.00577318
0.00628871
0.00788921
0.0108167
0.0107943
0.0133634
0.0142869
0.0177117
0.0216377
0.0257814
0.0324346
0.0391164
0.0469032
0.0555415
0.0658428
0.0769216
0.0896303
0.10228
0.117412
0.131966
0.150845
0.167353
0.192083
0.209957
0.245246
0.263337
0.318894
0.320472
5.80604e-005
5.80604e-005
5.80604e-005
5.80605e-005
5.80605e-005
5.80605e-005
5.80605e-005
5.80605e-005
5.80605e-005
5.80606e-005
5.80606e-005
5.80606e-005
5.80606e-005
5.80606e-005
5.80607e-005
5.80607e-005
5.80607e-005
5.80607e-005
5.80607e-005
5.80608e-005
5.80608e-005
5.80608e-005
5.80608e-005
5.80609e-005
5.80609e-005
5.80609e-005
5.80609e-005
5.8061e-005
5.8061e-005
5.8061e-005
5.8061e-005
5.80611e-005
5.80611e-005
5.80611e-005
5.80612e-005
5.80612e-005
5.80612e-005
5.80612e-005
5.80612e-005
5.80612e-005
5.80613e-005
5.80613e-005
5.80613e-005
5.80613e-005
5.80613e-005
5.80613e-005
5.80613e-005
5.80613e-005
5.80613e-005
5.80613e-005
5.80614e-005
5.80614e-005
5.80614e-005
5.80614e-005
5.80614e-005
5.80614e-005
5.80614e-005
5.80614e-005
5.80614e-005
5.80614e-005
5.80614e-005
5.80614e-005
5.80614e-005
5.80614e-005
5.80614e-005
5.80614e-005
5.80614e-005
5.80615e-005
5.80615e-005
5.80615e-005
5.80615e-005
5.80615e-005
5.80615e-005
5.80615e-005
5.80615e-005
5.80615e-005
5.80615e-005
5.80615e-005
5.80615e-005
5.80615e-005
5.80615e-005
5.80615e-005
5.80615e-005
5.80615e-005
5.80615e-005
5.80615e-005
5.80615e-005
5.80615e-005
5.80615e-005
5.80615e-005
5.80615e-005
5.80615e-005
5.80615e-005
5.80615e-005
5.80615e-005
5.80616e-005
5.80616e-005
5.80616e-005
5.80616e-005
5.80616e-005
5.80616e-005
5.80616e-005
5.80616e-005
5.80616e-005
5.80617e-005
5.80617e-005
5.80617e-005
5.80617e-005
5.80617e-005
5.80617e-005
5.80617e-005
5.80617e-005
5.80617e-005
5.80617e-005
5.80616e-005
5.80616e-005
5.80616e-005
5.80616e-005
5.80616e-005
5.80616e-005
5.80616e-005
5.80616e-005
5.80616e-005
5.80617e-005
5.80617e-005
5.80617e-005
5.80617e-005
5.80617e-005
5.80617e-005
5.80617e-005
5.80619e-005
5.80618e-005
5.8062e-005
5.80621e-005
5.80621e-005
5.80623e-005
5.80623e-005
5.80631e-005
5.9329e-005
4.60759e-006
4.60767e-006
4.60774e-006
4.60779e-006
4.60784e-006
4.60789e-006
4.60793e-006
4.60797e-006
4.60801e-006
4.60805e-006
4.60809e-006
4.60813e-006
4.60818e-006
4.60822e-006
4.60827e-006
4.60833e-006
4.60838e-006
4.60842e-006
4.60847e-006
4.60852e-006
4.60857e-006
4.60863e-006
4.60868e-006
4.60874e-006
4.6088e-006
4.60886e-006
4.60892e-006
4.60899e-006
4.60905e-006
4.60912e-006
4.60918e-006
4.60925e-006
4.60932e-006
4.60939e-006
4.60945e-006
4.6095e-006
4.60955e-006
4.6096e-006
4.60964e-006
4.60968e-006
4.60973e-006
4.60977e-006
4.60981e-006
4.60984e-006
4.60988e-006
4.60991e-006
4.60994e-006
4.60997e-006
4.60999e-006
4.61002e-006
4.61004e-006
4.61006e-006
4.61008e-006
4.6101e-006
4.61012e-006
4.61014e-006
4.61015e-006
4.61017e-006
4.61019e-006
4.61021e-006
4.61023e-006
4.61026e-006
4.61028e-006
4.61031e-006
4.61033e-006
4.61035e-006
4.61038e-006
4.6104e-006
4.61042e-006
4.61044e-006
4.61046e-006
4.61047e-006
4.61049e-006
4.61051e-006
4.61053e-006
4.61054e-006
4.61056e-006
4.61057e-006
4.61058e-006
4.61059e-006
4.6106e-006
4.61061e-006
4.61061e-006
4.61061e-006
4.61061e-006
4.61061e-006
4.6106e-006
4.61059e-006
4.61059e-006
4.61061e-006
4.61063e-006
4.61065e-006
4.61068e-006
4.61071e-006
4.61074e-006
4.61077e-006
4.6108e-006
4.61083e-006
4.61086e-006
4.61089e-006
4.61092e-006
4.61094e-006
4.61097e-006
4.611e-006
4.61102e-006
4.61104e-006
4.61107e-006
4.61108e-006
4.6111e-006
4.61111e-006
4.61111e-006
4.61108e-006
4.61104e-006
4.611e-006
4.61094e-006
4.61087e-006
4.6108e-006
4.61077e-006
4.61078e-006
4.6108e-006
4.61084e-006
4.61086e-006
4.61087e-006
4.6109e-006
4.61087e-006
4.61095e-006
4.61084e-006
4.61097e-006
4.61094e-006
4.61094e-006
4.61123e-006
4.61117e-006
4.61139e-006
4.61187e-006
4.61152e-006
4.61214e-006
4.61736e-006
4.61161e-006
4.67186e-006
7.24016e-007
7.24065e-007
7.24101e-007
7.24133e-007
7.24162e-007
7.24189e-007
7.24214e-007
7.24236e-007
7.24259e-007
7.2428e-007
7.243e-007
7.24321e-007
7.24341e-007
7.24362e-007
7.24383e-007
7.24405e-007
7.24426e-007
7.24447e-007
7.24469e-007
7.24491e-007
7.24515e-007
7.2454e-007
7.24565e-007
7.24591e-007
7.24619e-007
7.24647e-007
7.24675e-007
7.24705e-007
7.24735e-007
7.24765e-007
7.24797e-007
7.24829e-007
7.24861e-007
7.24894e-007
7.24927e-007
7.2496e-007
7.24993e-007
7.25026e-007
7.25059e-007
7.25091e-007
7.25122e-007
7.25154e-007
7.25185e-007
7.25215e-007
7.25245e-007
7.25275e-007
7.25304e-007
7.25333e-007
7.25361e-007
7.25389e-007
7.25417e-007
7.25444e-007
7.2547e-007
7.25496e-007
7.25522e-007
7.25547e-007
7.25572e-007
7.25597e-007
7.25621e-007
7.25646e-007
7.25673e-007
7.257e-007
7.25726e-007
7.25752e-007
7.25777e-007
7.25802e-007
7.25826e-007
7.2585e-007
7.25873e-007
7.25896e-007
7.25918e-007
7.2594e-007
7.25961e-007
7.25982e-007
7.26002e-007
7.26021e-007
7.2604e-007
7.26059e-007
7.26076e-007
7.26094e-007
7.2611e-007
7.26126e-007
7.26141e-007
7.26156e-007
7.2617e-007
7.26184e-007
7.26197e-007
7.26211e-007
7.26221e-007
7.2623e-007
7.26239e-007
7.26248e-007
7.26259e-007
7.26269e-007
7.2628e-007
7.26291e-007
7.26302e-007
7.26313e-007
7.26324e-007
7.26334e-007
7.26343e-007
7.26351e-007
7.26358e-007
7.26364e-007
7.26368e-007
7.2637e-007
7.26371e-007
7.26369e-007
7.26366e-007
7.2636e-007
7.2635e-007
7.26332e-007
7.26304e-007
7.26271e-007
7.26236e-007
7.262e-007
7.26163e-007
7.2613e-007
7.26109e-007
7.26095e-007
7.26081e-007
7.26066e-007
7.26034e-007
7.26022e-007
7.25972e-007
7.25945e-007
7.25906e-007
7.25841e-007
7.25852e-007
7.25795e-007
7.25855e-007
7.25919e-007
7.25748e-007
7.25791e-007
7.28021e-007
7.279e-007
6.11177e-007
7.30818e-007
5.27535e-005
2.12838e-007
2.12861e-007
2.1288e-007
2.12898e-007
2.12914e-007
2.1293e-007
2.12945e-007
2.12959e-007
2.12973e-007
2.12987e-007
2.13001e-007
2.13016e-007
2.1303e-007
2.13045e-007
2.1306e-007
2.13075e-007
2.13091e-007
2.13107e-007
2.13123e-007
2.13139e-007
2.13156e-007
2.13174e-007
2.13191e-007
2.1321e-007
2.13228e-007
2.13247e-007
2.13266e-007
2.13286e-007
2.13306e-007
2.13326e-007
2.13346e-007
2.13367e-007
2.13388e-007
2.13409e-007
2.13431e-007
2.13453e-007
2.13476e-007
2.13498e-007
2.13521e-007
2.13544e-007
2.13566e-007
2.13588e-007
2.13611e-007
2.13633e-007
2.13655e-007
2.13677e-007
2.13699e-007
2.13721e-007
2.13743e-007
2.13765e-007
2.13787e-007
2.13808e-007
2.13829e-007
2.13851e-007
2.13872e-007
2.13893e-007
2.13914e-007
2.13935e-007
2.13956e-007
2.13977e-007
2.13998e-007
2.14019e-007
2.14039e-007
2.14059e-007
2.14078e-007
2.14097e-007
2.14116e-007
2.14134e-007
2.14152e-007
2.14169e-007
2.14187e-007
2.14204e-007
2.1422e-007
2.14237e-007
2.14252e-007
2.14268e-007
2.14283e-007
2.14298e-007
2.14313e-007
2.14328e-007
2.14342e-007
2.14355e-007
2.14368e-007
2.14381e-007
2.14394e-007
2.14406e-007
2.14417e-007
2.14429e-007
2.14438e-007
2.14445e-007
2.14451e-007
2.14457e-007
2.14463e-007
2.14469e-007
2.14474e-007
2.14478e-007
2.14482e-007
2.14486e-007
2.14489e-007
2.14491e-007
2.14493e-007
2.14494e-007
2.14494e-007
2.14493e-007
2.14492e-007
2.14489e-007
2.14486e-007
2.14481e-007
2.14475e-007
2.14468e-007
2.14461e-007
2.14451e-007
2.14436e-007
2.14418e-007
2.14399e-007
2.14378e-007
2.14355e-007
2.14331e-007
2.1431e-007
2.14291e-007
2.1427e-007
2.14249e-007
2.14223e-007
2.14196e-007
2.14166e-007
2.14124e-007
2.14097e-007
2.14049e-007
2.14005e-007
2.14e-007
2.13942e-007
2.13102e-007
2.14449e-007
2.17382e-007
1.90751e-007
1.91184e-007
4.76669e-006
0.000846236
0.0237766
1.04222e-007
1.04234e-007
1.04246e-007
1.04258e-007
1.04271e-007
1.04282e-007
1.04294e-007
1.04305e-007
1.04317e-007
1.04329e-007
1.0434e-007
1.04352e-007
1.04363e-007
1.04376e-007
1.04388e-007
1.04401e-007
1.04414e-007
1.04427e-007
1.0444e-007
1.04453e-007
1.04467e-007
1.0448e-007
1.04494e-007
1.04508e-007
1.04523e-007
1.04537e-007
1.04552e-007
1.04567e-007
1.04582e-007
1.04597e-007
1.04613e-007
1.04628e-007
1.04643e-007
1.04659e-007
1.04675e-007
1.04691e-007
1.04707e-007
1.04723e-007
1.0474e-007
1.04756e-007
1.04772e-007
1.04788e-007
1.04805e-007
1.04821e-007
1.04837e-007
1.04854e-007
1.0487e-007
1.04886e-007
1.04902e-007
1.04918e-007
1.04934e-007
1.0495e-007
1.04966e-007
1.04982e-007
1.04998e-007
1.05014e-007
1.05029e-007
1.05045e-007
1.0506e-007
1.05075e-007
1.0509e-007
1.05104e-007
1.05118e-007
1.05132e-007
1.05146e-007
1.0516e-007
1.05173e-007
1.05186e-007
1.05199e-007
1.05211e-007
1.05224e-007
1.05236e-007
1.05247e-007
1.05259e-007
1.0527e-007
1.05281e-007
1.05292e-007
1.05303e-007
1.05313e-007
1.05323e-007
1.05332e-007
1.05341e-007
1.05351e-007
1.05359e-007
1.05368e-007
1.05376e-007
1.05384e-007
1.05391e-007
1.05398e-007
1.05404e-007
1.05409e-007
1.05414e-007
1.05418e-007
1.05422e-007
1.05425e-007
1.05427e-007
1.05429e-007
1.05431e-007
1.05432e-007
1.05432e-007
1.05432e-007
1.05431e-007
1.05429e-007
1.05427e-007
1.05424e-007
1.05421e-007
1.05417e-007
1.05412e-007
1.05407e-007
1.05401e-007
1.05394e-007
1.05387e-007
1.05379e-007
1.05369e-007
1.05358e-007
1.05345e-007
1.05331e-007
1.05317e-007
1.05302e-007
1.05287e-007
1.0527e-007
1.05252e-007
1.05231e-007
1.05209e-007
1.05182e-007
1.05155e-007
1.05121e-007
1.05094e-007
1.05056e-007
1.04995e-007
1.05366e-007
1.10629e-007
1.04052e-007
8.7479e-008
2.62371e-007
1.47381e-005
0.00115469
0.0269714
0.149792
7.27269e-008
7.27415e-008
7.27559e-008
7.27703e-008
7.27828e-008
7.27961e-008
7.28106e-008
7.28242e-008
7.28382e-008
7.28525e-008
7.28677e-008
7.28833e-008
7.28987e-008
7.29138e-008
7.2929e-008
7.29452e-008
7.29614e-008
7.29779e-008
7.29944e-008
7.30113e-008
7.30285e-008
7.3046e-008
7.3064e-008
7.30821e-008
7.31006e-008
7.31191e-008
7.31378e-008
7.31567e-008
7.31758e-008
7.31948e-008
7.32142e-008
7.32337e-008
7.3253e-008
7.32727e-008
7.32925e-008
7.33124e-008
7.33322e-008
7.3352e-008
7.33718e-008
7.33918e-008
7.34115e-008
7.34312e-008
7.34509e-008
7.34705e-008
7.34901e-008
7.35096e-008
7.3529e-008
7.35482e-008
7.35674e-008
7.35864e-008
7.36052e-008
7.3624e-008
7.36425e-008
7.36609e-008
7.3679e-008
7.3697e-008
7.37149e-008
7.37324e-008
7.37497e-008
7.37667e-008
7.37833e-008
7.37996e-008
7.38157e-008
7.38316e-008
7.38472e-008
7.38626e-008
7.38778e-008
7.38926e-008
7.3907e-008
7.39213e-008
7.39353e-008
7.39489e-008
7.39623e-008
7.39753e-008
7.3988e-008
7.40004e-008
7.40122e-008
7.40239e-008
7.40354e-008
7.40465e-008
7.40572e-008
7.40676e-008
7.40774e-008
7.40871e-008
7.40964e-008
7.41053e-008
7.41137e-008
7.41216e-008
7.41294e-008
7.4137e-008
7.4144e-008
7.41505e-008
7.41564e-008
7.41619e-008
7.41668e-008
7.41712e-008
7.41749e-008
7.4178e-008
7.41803e-008
7.41823e-008
7.41832e-008
7.41838e-008
7.41837e-008
7.41829e-008
7.41816e-008
7.41799e-008
7.41775e-008
7.41745e-008
7.41706e-008
7.41658e-008
7.41604e-008
7.41549e-008
7.41493e-008
7.41432e-008
7.41362e-008
7.41283e-008
7.41192e-008
7.41092e-008
7.40982e-008
7.40858e-008
7.40727e-008
7.40569e-008
7.40404e-008
7.40204e-008
7.39988e-008
7.39758e-008
7.3946e-008
7.39223e-008
7.39143e-008
7.41741e-008
7.43743e-008
5.40183e-008
7.34475e-008
6.57596e-007
5.20782e-005
0.00250068
0.0397033
0.185736
0.436991
5.24069e-008
5.24385e-008
5.2463e-008
5.24804e-008
5.24972e-008
5.25246e-008
5.25454e-008
5.25656e-008
5.25862e-008
5.26075e-008
5.26306e-008
5.26539e-008
5.26768e-008
5.27e-008
5.27252e-008
5.27504e-008
5.27766e-008
5.28031e-008
5.2831e-008
5.2859e-008
5.28876e-008
5.29172e-008
5.29471e-008
5.29774e-008
5.30079e-008
5.30388e-008
5.307e-008
5.31013e-008
5.3133e-008
5.31652e-008
5.31976e-008
5.323e-008
5.3263e-008
5.32958e-008
5.33289e-008
5.33623e-008
5.33956e-008
5.34289e-008
5.34627e-008
5.34961e-008
5.35294e-008
5.35627e-008
5.35959e-008
5.3629e-008
5.36621e-008
5.36949e-008
5.37275e-008
5.37599e-008
5.37922e-008
5.38244e-008
5.38561e-008
5.38875e-008
5.39188e-008
5.39497e-008
5.39801e-008
5.40107e-008
5.40406e-008
5.40701e-008
5.40992e-008
5.4128e-008
5.41563e-008
5.41842e-008
5.42118e-008
5.4239e-008
5.42659e-008
5.42922e-008
5.43179e-008
5.43433e-008
5.43683e-008
5.43929e-008
5.44168e-008
5.444e-008
5.44634e-008
5.44861e-008
5.4508e-008