/*--------------------------------*- C++ -*----------------------------------*\
| =========                 |                                                 |
| \\      /  F ield         | OpenFOAM: The Open Source CFD Toolbox           |
|  \\    /   O peration     | Version:  5.x                                   |
|   \\  /    A nd           | Web:      www.OpenFOAM.org                      |
|    \\/     M anipulation  |                                                 |
\*---------------------------------------------------------------------------*/
/*   Windows 32 and 64 bit porting by blueCAPE: http://www.bluecape.com.pt   *\
|  Based on Windows porting (2.0.x v4) by Symscape: http://www.symscape.com   |
\*---------------------------------------------------------------------------*/
FoamFile
{
    version     2.0;
    format      ascii;
    class       volScalarField;
    location    "170";
    object      p;
}
// * * * * * * * * * * * * * * * * * * * * * * * * * * * * * * * * * * * * * //

dimensions      [0 2 -2 0 0 0 0];

internalField   nonuniform List<scalar> 
43900
(
0.389382
0.389033
0.388998
0.388869
0.388678
0.38844
0.388248
0.387907
0.38766
0.387345
0.387024
0.386698
0.386356
0.386002
0.385639
0.385266
0.384886
0.384497
0.3841
0.383697
0.383287
0.382872
0.382451
0.382024
0.381593
0.381156
0.380715
0.38027
0.37982
0.387264
0.39527
0.389192
0.392439
0.389973
0.390719
0.389824
0.389646
0.389225
0.388802
0.388398
0.387969
0.387543
0.387116
0.386689
0.386259
0.385827
0.385392
0.384954
0.384513
0.38407
0.383623
0.383174
0.382721
0.382265
0.381807
0.381345
0.38088
0.380412
0.380348
0.4021
0.390957
0.397265
0.392113
0.394734
0.392332
0.392696
0.39162
0.391205
0.390646
0.390105
0.389584
0.389075
0.388571
0.388073
0.387579
0.387089
0.386601
0.386115
0.38563
0.385145
0.384659
0.384173
0.383687
0.383198
0.382708
0.382216
0.381722
0.3755
0.402988
0.396317
0.396147
0.395796
0.395347
0.394234
0.394248
0.393436
0.393097
0.392544
0.392041
0.391542
0.391043
0.390541
0.39004
0.38954
0.389041
0.388542
0.388043
0.387543
0.387043
0.386541
0.386037
0.385532
0.385024
0.384515
0.384002
0.383486
0.377666
0.401267
0.396269
0.395695
0.395714
0.395306
0.395122
0.394881
0.394367
0.394069
0.393636
0.393227
0.392808
0.392373
0.391924
0.391466
0.390999
0.390523
0.390039
0.389549
0.389052
0.388549
0.388041
0.387528
0.38701
0.386487
0.38596
0.385428
0.384892
0.382027
0.399946
0.396872
0.396614
0.396556
0.396158
0.395929
0.395686
0.395454
0.395198
0.394837
0.3945
0.39414
0.393761
0.393368
0.392961
0.392539
0.392102
0.391652
0.391188
0.390712
0.390224
0.389725
0.389214
0.388694
0.388165
0.387626
0.387078
0.386522
0.388367
0.401595
0.399856
0.399355
0.399312
0.399174
0.398865
0.398437
0.398143
0.397899
0.397587
0.397253
0.396907
0.396544
0.396169
0.395779
0.395375
0.394957
0.394525
0.394079
0.393618
0.393143
0.392653
0.39215
0.391633
0.391102
0.390558
0.390001
0.389433
0.394484
0.40557
0.404373
0.403798
0.403653
0.403536
0.403344
0.403021
0.402639
0.402286
0.401988
0.401671
0.401312
0.400941
0.400556
0.400156
0.399742
0.399312
0.398865
0.398405
0.397929
0.397435
0.396928
0.396405
0.395868
0.395316
0.394747
0.394166
0.39357
0.401819
0.410677
0.409945
0.409363
0.409129
0.408957
0.408746
0.408482
0.40814
0.407685
0.40725
0.406887
0.406513
0.406105
0.405681
0.405243
0.404788
0.40431
0.403814
0.403304
0.402773
0.402224
0.401656
0.401076
0.400476
0.399855
0.399227
0.398577
0.397907
0.411116
0.416967
0.416601
0.41602
0.415678
0.415405
0.415108
0.414772
0.414391
0.413943
0.413405
0.412867
0.412379
0.411892
0.41138
0.410859
0.410317
0.409752
0.40917
0.408567
0.407947
0.407299
0.406643
0.405965
0.405259
0.404551
0.403812
0.403055
0.402292
0.420088
0.424986
0.424705
0.424087
0.423664
0.423309
0.422929
0.422509
0.422048
0.421543
0.420978
0.420341
0.419696
0.419082
0.418486
0.417879
0.41725
0.416589
0.415909
0.415209
0.414472
0.413727
0.412957
0.412153
0.411341
0.410491
0.409628
0.408757
0.40785
0.430381
0.434335
0.434093
0.433463
0.432989
0.432574
0.432137
0.431659
0.43114
0.43058
0.429973
0.429311
0.428603
0.427891
0.4272
0.426535
0.425843
0.425122
0.424375
0.423579
0.422766
0.42192
0.421038
0.42014
0.419192
0.418233
0.417253
0.416233
0.415204
0.441946
0.444832
0.444593
0.443968
0.443449
0.442973
0.442471
0.441926
0.441337
0.440703
0.440021
0.439285
0.438495
0.437677
0.43686
0.436076
0.43531
0.434513
0.433669
0.432797
0.431875
0.430926
0.429956
0.428923
0.427879
0.426799
0.425674
0.424543
0.423366
0.454471
0.456509
0.45623
0.455595
0.455025
0.45448
0.4539
0.453269
0.452584
0.451844
0.451044
0.45018
0.449249
0.448265
0.447268
0.446292
0.445347
0.4444
0.443418
0.442372
0.44131
0.440217
0.439057
0.437883
0.436661
0.435396
0.434123
0.432793
0.431436
0.467954
0.46939
0.469048
0.468387
0.467764
0.467146
0.466484
0.46576
0.464968
0.464107
0.463173
0.462161
0.461066
0.459888
0.458669
0.457457
0.456304
0.455154
0.45396
0.452742
0.451467
0.450139
0.448786
0.447376
0.445926
0.444459
0.442924
0.441366
0.439767
0.48239
0.483439
0.483027
0.482325
0.481638
0.480943
0.480192
0.47937
0.478469
0.477484
0.476411
0.475246
0.473983
0.472625
0.4712
0.46975
0.468349
0.466995
0.465612
0.464163
0.462668
0.46113
0.459519
0.457878
0.45618
0.454425
0.45266
0.450815
0.448943
0.497726
0.498557
0.498079
0.497323
0.496567
0.495789
0.494946
0.49402
0.493004
0.49189
0.490675
0.489354
0.487919
0.486365
0.48471
0.483022
0.481398
0.479821
0.478205
0.476557
0.47483
0.473025
0.471222
0.469275
0.467304
0.465336
0.46323
0.461127
0.459005
0.513933
0.514668
0.514128
0.513307
0.512476
0.51161
0.510666
0.509625
0.50848
0.507222
0.505846
0.504343
0.502706
0.500931
0.499029
0.497103
0.495132
0.493298
0.491501
0.489527
0.487536
0.485559
0.483335
0.481142
0.478977
0.4766
0.474239
0.471855
0.469344
0.530935
0.531662
0.531063
0.530165
0.529247
0.528283
0.527227
0.526056
0.524763
0.523337
0.521772
0.52006
0.518197
0.516178
0.514004
0.511721
0.509559
0.507409
0.50515
0.502977
0.500757
0.49827
0.495833
0.493362
0.490725
0.48809
0.485399
0.482588
0.479794
0.548674
0.549457
0.548801
0.547816
0.546805
0.545737
0.544562
0.543256
0.541808
0.540208
0.53845
0.536527
0.53443
0.532153
0.529701
0.527127
0.524477
0.521921
0.519517
0.51697
0.514246
0.511512
0.508701
0.505807
0.502872
0.499816
0.496664
0.493507
0.490287
0.56707
0.567949
0.567238
0.566162
0.565052
0.563876
0.562575
0.561126
0.559514
0.557729
0.555761
0.553602
0.551242
0.548666
0.545868
0.542889
0.539978
0.537088
0.534172
0.531229
0.528225
0.525085
0.521882
0.518531
0.515092
0.511636
0.508085
0.504465
0.500764
0.58599
0.586999
0.586234
0.585062
0.58385
0.58256
0.58113
0.57953
0.577746
0.575765
0.573576
0.571169
0.568534
0.565661
0.562556
0.559279
0.555836
0.552497
0.549281
0.545913
0.54244
0.5389
0.535165
0.531408
0.527641
0.523669
0.519627
0.515521
0.511358
0.605306
0.606468
0.60565
0.60438
0.603063
0.601658
0.600092
0.598336
0.596373
0.594187
0.591766
0.5891
0.586179
0.58299
0.579518
0.575808
0.572069
0.568285
0.564516
0.560733
0.556839
0.552799
0.548717
0.544427
0.540034
0.535642
0.531099
0.526431
0.521759
0.624859
0.626188
0.625319
0.623953
0.622533
0.621014
0.619316
0.617406
0.615265
0.612877
0.610229
0.607307
0.604104
0.600609
0.596816
0.592722
0.588388
0.584151
0.579968
0.575622
0.571196
0.5667
0.561995
0.557204
0.552318
0.547315
0.542156
0.536963
0.531664
0.644492
0.645999
0.645083
0.643625
0.642109
0.64048
0.638655
0.636594
0.634279
0.63169
0.628811
0.625629
0.62213
0.618295
0.614109
0.609591
0.604907
0.599998
0.595196
0.590463
0.585575
0.580467
0.57519
0.569766
0.564311
0.558804
0.553081
0.547246
0.541384
0.664018
0.665708
0.664751
0.663206
0.6616
0.659869
0.65792
0.655715
0.653229
0.650442
0.647336
0.643893
0.6401
0.63594
0.63139
0.626435
0.621148
0.615926
0.610603
0.605116
0.599579
0.59393
0.588123
0.582197
0.576095
0.569818
0.563421
0.557076
0.550562
0.683266
0.685142
0.684148
0.682527
0.680838
0.679014
0.676953
0.674611
0.671964
0.668989
0.665665
0.661972
0.657892
0.653407
0.648502
0.643177
0.637511
0.63148
0.625548
0.619628
0.613532
0.607229
0.600709
0.593989
0.587279
0.580455
0.573381
0.566132
0.558837
0.702063
0.704118
0.703095
0.701408
0.69965
0.697743
0.695581
0.693116
0.690322
0.687174
0.683647
0.67972
0.675373
0.670586
0.665333
0.659595
0.653424
0.647098
0.64044
0.633703
0.626949
0.61997
0.612817
0.605593
0.597987
0.590218
0.582559
0.574714
0.566688
0.72025
0.722476
0.72143
0.719689
0.717875
0.715901
0.713652
0.711081
0.708158
0.704856
0.701148
0.697009
0.692417
0.687351
0.681789
0.675696
0.669065
0.661961
0.654832
0.647479
0.639967
0.632342
0.624465
0.616363
0.608244
0.599824
0.591243
0.582442
0.573535
0.737683
0.740064
0.739003
0.737223
0.735366
0.733338
0.731019
0.728358
0.725324
0.721887
0.718018
0.713689
0.708873
0.703545
0.697678
0.691244
0.684235
0.676722
0.668775
0.66077
0.652606
0.644187
0.635543
0.626718
0.61765
0.608453
0.598922
0.589292
0.579582
0.75424
0.756756
0.755686
0.75388
0.751995
0.749927
0.747551
0.744815
0.741687
0.738133
0.734122
0.729621
0.724599
0.719031
0.712886
0.706121
0.698713
0.690705
0.682337
0.673502
0.664551
0.655415
0.645963
0.636317
0.626419
0.616229
0.605843
0.595276
0.584598
0.769825
0.772452
0.771378
0.76956
0.767659
0.765563
0.763145
0.760351
0.757146
0.753496
0.749362
0.744709
0.739506
0.733723
0.727327
0.720283
0.712543
0.704111
0.695019
0.68577
0.675952
0.665956
0.655766
0.645097
0.634224
0.623252
0.611876
0.600274
0.588604
0.784369
0.787077
0.786004
0.784186
0.782282
0.780171
0.777723
0.774884
0.771618
0.767886
0.763647
0.758865
0.753508
0.747537
0.740913
0.733598
0.725561
0.716791
0.707271
0.697143
0.686789
0.67585
0.664617
0.653199
0.641343
0.629249
0.616928
0.604329
0.591589
0.79783
0.800586
0.799518
0.797712
0.795814
0.793697
0.79123
0.788358
0.785044
0.781245
0.776922
0.772034
0.766542
0.760403
0.75358
0.74603
0.7377
0.728583
0.718693
0.708044
0.696758
0.685051
0.672914
0.660462
0.64762
0.634305
0.620815
0.607209
0.59321
0.810192
0.812961
0.811901
0.810117
0.808235
0.806121
0.803645
0.800751
0.797401
0.793552
0.789161
0.784182
0.778568
0.772279
0.765274
0.757511
0.748932
0.739473
0.729158
0.717983
0.706045
0.693433
0.680374
0.666805
0.652827
0.638452
0.623674
0.608735
0.593603
0.821463
0.824209
0.823158
0.821404
0.819547
0.817443
0.814965
0.81206
0.808686
0.804798
0.80035
0.795288
0.789566
0.783141
0.775966
0.767991
0.759161
0.749413
0.738697
0.727023
0.714387
0.701041
0.686934
0.672321
0.657216
0.641603
0.625639
0.609255
0.592685
0.831669
0.834355
0.833315
0.8316
0.829772
0.827684
0.825211
0.822301
0.818911
0.814993
0.810496
0.805367
0.799557
0.793009
0.785669
0.777486
0.768405
0.758363
0.747296
0.735221
0.722051
0.70783
0.69284
0.677023
0.660602
0.643702
0.626325
0.608512
0.590378
0.840853
0.843444
0.842415
0.840746
0.838953
0.836885
0.834424
0.831516
0.828118
0.82418
0.819647
0.814463
0.808567
0.8019
0.794405
0.786027
0.776701
0.766365
0.754936
0.742393
0.728779
0.713887
0.697795
0.680891
0.663087
0.644692
0.62586
0.606416
0.586656
0.84907
0.851534
0.850517
0.848898
0.847144
0.845102
0.842657
0.839759
0.836362
0.832412
0.827851
0.822618
0.816648
0.809878
0.80224
0.793663
0.784084
0.773437
0.761639
0.748619
0.734342
0.718923
0.702082
0.683909
0.664854
0.644823
0.62416
0.603111
0.581496
0.856384
0.85869
0.857687
0.856124
0.854413
0.852399
0.849977
0.847096
0.843707
0.839754
0.835176
0.829907
0.823877
0.81701
0.809231
0.800461
0.790627
0.779654
0.767461
0.753976
0.739113
0.722838
0.705352
0.686129
0.665568
0.644021
0.62145
0.598348
0.574878
0.862861
0.864986
0.863998
0.862494
0.860829
0.858849
0.856455
0.853598
0.850228
0.846283
0.8417
0.836406
0.830324
0.823371
0.815463
0.806511
0.796421
0.78511
0.772492
0.75848
0.743006
0.725957
0.707317
0.68725
0.66528
0.641993
0.617624
0.592253
0.566508
0.868573
0.870497
0.869526
0.868086
0.866469
0.864527
0.862168
0.859344
0.856001
0.852076
0.8475
0.842195
0.836076
0.829052
0.821026
0.811897
0.801557
0.7899
0.776829
0.762242
0.746044
0.72817
0.708487
0.687078
0.663932
0.638911
0.612387
0.584786
0.556474
0.873591
0.875299
0.874348
0.872974
0.871409
0.869509
0.867192
0.864409
0.861104
0.857212
0.852657
0.847356
0.841217
0.834138
0.82601
0.816716
0.806135
0.794137
0.780598
0.765401
0.748423
0.729603
0.708795
0.686068
0.661262
0.634471
0.605812
0.575672
0.544696
0.877981
0.879466
0.878539
0.877233
0.875721
0.873869
0.8716
0.868867
0.865612
0.861765
0.857247
0.851967
0.845826
0.838711
0.830501
0.82106
0.810251
0.797925
0.783922
0.768095
0.750294
0.730423
0.708361
0.684008
0.657548
0.628575
0.597619
0.56488
0.5308
0.88181
0.883068
0.882169
0.880932
0.879477
0.877676
0.875464
0.872791
0.869596
0.865807
0.861341
0.8561
0.849976
0.842846
0.834575
0.825012
0.813996
0.801356
0.786905
0.770449
0.751801
0.730789
0.707341
0.681215
0.652606
0.621518
0.587726
0.552087
0.514808
0.885137
0.886171
0.885305
0.884139
0.882741
0.880998
0.878849
0.876243
0.87312
0.869401
0.865001
0.859817
0.85373
0.846609
0.838303
0.828646
0.817452
0.804521
0.789639
0.772571
0.75308
0.730902
0.705925
0.677917
0.646874
0.612997
0.576335
0.537033
0.496212
0.88802
0.888836
0.888008
0.886913
0.885575
0.883893
0.881813
0.879283
0.87624
0.872604
0.868284
0.863173
0.857144
0.850054
0.841741
0.83202
0.820685
0.807502
0.79222
0.774561
0.754246
0.73092
0.704355
0.674278
0.640627
0.603408
0.563073
0.519872
0.474594
0.89051
0.891116
0.890334
0.889309
0.888032
0.886415
0.884409
0.881963
0.879008
0.875464
0.871238
0.866214
0.86026
0.853223
0.84493
0.835178
0.823741
0.810352
0.794722
0.776514
0.755399
0.730955
0.702815
0.670558
0.634047
0.593143
0.54831
0.500137
0.449922
0.892651
0.893062
0.892333
0.891375
0.89016
0.888611
0.886685
0.884327
0.881468
0.878024
0.8739
0.868977
0.863114
0.85615
0.847902
0.838151
0.826653
0.813106
0.79719
0.778503
0.756647
0.731109
0.701438
0.66698
0.627445
0.582447
0.532475
0.478107
0.42144
0.894485
0.894718
0.894049
0.893155
0.892003
0.890524
0.888681
0.886415
0.883657
0.880317
0.876306
0.871494
0.865736
0.858859
0.850679
0.840959
0.829439
0.815784
0.799647
0.780555
0.758062
0.731493
0.700343
0.663718
0.621098
0.571682
0.515868
0.454166
0.389213
0.896048
0.896124
0.895521
0.894686
0.893596
0.892189
0.890433
0.888261
0.885608
0.882376
0.878483
0.87379
0.868145
0.861368
0.853276
0.84361
0.832108
0.818388
0.802099
0.782676
0.759665
0.732188
0.699679
0.660915
0.615267
0.561194
0.498902
0.428474
0.353405
0.897368
0.897317
0.896784
0.895999
0.894974
0.893637
0.89197
0.889895
0.887349
0.884223
0.880451
0.875881
0.870355
0.863685
0.855695
0.846103
0.834651
0.820909
0.80454
0.784874
0.76148
0.733242
0.699607
0.658818
0.610278
0.551444
0.4823
0.401555
0.313941
0.898472
0.898328
0.897866
0.897122
0.896162
0.894896
0.893319
0.89134
0.8889
0.885876
0.882225
0.877778
0.872373
0.865815
0.857942
0.848447
0.837095
0.823393
0.807053
0.787276
0.763698
0.734942
0.700525
0.65807
0.606983
0.543442
0.467315
0.374696
0.271819
0.899384
0.899188
0.898789
0.898077
0.897185
0.895988
0.894501
0.892614
0.890278
0.887349
0.883818
0.879499
0.874232
0.867811
0.860106
0.850775
0.839634
0.826106
0.809972
0.790284
0.766766
0.737813
0.70299
0.65941
0.606375
0.538586
0.455602
0.349933
0.228357
0.900125
0.89992
0.899574
0.898884
0.898063
0.896933
0.895532
0.893737
0.891507
0.88868
0.88529
0.881137
0.876066
0.869863
0.862427
0.853356
0.842524
0.829268
0.813422
0.79395
0.770592
0.741623
0.706538
0.662229
0.607513
0.53626
0.44603
0.326999
0.181979
0.900723
0.90054
0.900234
0.899567
0.898815
0.897758
0.896448
0.894755
0.892653
0.889972
0.886784
0.882847
0.878012
0.872052
0.864878
0.856046
0.845412
0.832298
0.816494
0.797035
0.773512
0.744269
0.708539
0.663202
0.606477
0.531529
0.433486
0.298218
0.122425
0.9012
0.901051
0.900773
0.900152
0.899464
0.898504
0.8973
0.895738
0.893784
0.891275
0.888266
0.884478
0.879752
0.873872
0.866702
0.85785
0.847047
0.833755
0.817598
0.797772
0.773639
0.7437
0.706842
0.65994
0.600724
0.521436
0.415458
0.261217
0.0402981
0.901569
0.901428
0.901174
0.900648
0.900007
0.899162
0.898033
0.896573
0.894713
0.892267
0.889268
0.885423
0.880556
0.874522
0.867104
0.857987
0.846782
0.833109
0.816412
0.796024
0.77107
0.740187
0.70198
0.6532
0.591389
0.507412
0.395264
0.226079
-0.0459776
0.901846
0.901656
0.90142
0.900938
0.900385
0.899556
0.89842
0.896917
0.894896
0.892354
0.889017
0.884893
0.87978
0.873482
0.86565
0.856152
0.844468
0.830491
0.813241
0.792495
0.766634
0.735385
0.695515
0.646534
0.581148
0.497091
0.377858
0.214113
0.0157137
0.379286
0.378664
0.378035
0.3774
0.376759
0.376112
0.37546
0.374803
0.374142
0.373475
0.372805
0.37213
0.371451
0.370769
0.370083
0.369394
0.368702
0.368007
0.367309
0.366609
0.365906
0.365201
0.364494
0.363785
0.363075
0.362363
0.36165
0.360936
0.360221
0.359506
0.35879
0.358074
0.357358
0.356642
0.355926
0.355211
0.354496
0.353783
0.353071
0.35236
0.351651
0.350943
0.350238
0.349534
0.348834
0.348136
0.347441
0.346749
0.34606
0.345375
0.344694
0.344017
0.343344
0.342676
0.342013
0.341354
0.340701
0.340053
0.339411
0.338774
0.338144
0.337519
0.336901
0.336289
0.335685
0.335086
0.334495
0.333912
0.333336
0.332767
0.332206
0.331653
0.331108
0.330572
0.330044
0.329524
0.329013
0.328512
0.328019
0.327535
0.327061
0.326596
0.32614
0.325695
0.325259
0.324833
0.324417
0.324011
0.323615
0.32323
0.322855
0.322491
0.322138
0.321795
0.321463
0.321142
0.320832
0.320533
0.320244
0.319967
0.319701
0.319445
0.319201
0.318968
0.318746
0.318534
0.318334
0.318144
0.317965
0.317796
0.317638
0.317489
0.317351
0.317222
0.317103
0.316993
0.316893
0.316801
0.31672
0.316648
0.316586
0.316533
0.316489
0.316452
0.316423
0.316401
0.316385
0.316378
0.316374
0.316379
0.316387
0.316403
0.316426
0.316452
0.316492
0.316527
0.316597
0.316622
0.316777
0.379858
0.379214
0.378564
0.377909
0.37725
0.376585
0.375914
0.375239
0.374559
0.373874
0.373185
0.372492
0.371794
0.371092
0.370386
0.369676
0.368963
0.368247
0.367528
0.366806
0.366081
0.365354
0.364624
0.363893
0.363159
0.362425
0.361688
0.360951
0.360213
0.359474
0.358734
0.357994
0.357254
0.356515
0.355776
0.355037
0.3543
0.353563
0.352828
0.352095
0.351364
0.350635
0.349908
0.349183
0.348462
0.347743
0.347028
0.346316
0.345608
0.344904
0.344204
0.343508
0.342817
0.34213
0.341449
0.340772
0.340101
0.339435
0.338775
0.338121
0.337473
0.336832
0.336197
0.335569
0.334948
0.334335
0.333728
0.333129
0.332538
0.331955
0.33138
0.330813
0.330255
0.329705
0.329165
0.328633
0.32811
0.327596
0.327092
0.326597
0.326112
0.325637
0.325173
0.324718
0.324273
0.32384
0.323416
0.323004
0.322602
0.322211
0.32183
0.321461
0.321103
0.320755
0.320419
0.320095
0.319781
0.31948
0.319189
0.31891
0.318643
0.318387
0.318143
0.317911
0.31769
0.317481
0.317283
0.317098
0.316924
0.316761
0.31661
0.316471
0.316344
0.316228
0.316124
0.316031
0.31595
0.315881
0.315821
0.31577
0.315728
0.315695
0.31567
0.315654
0.315644
0.315643
0.315646
0.315653
0.315675
0.315684
0.315713
0.315722
0.315753
0.315752
0.315799
0.315762
0.315765
0.315716
0.31567
0.381138
0.380461
0.37978
0.379095
0.378404
0.377709
0.377008
0.376303
0.375593
0.374878
0.374158
0.373433
0.372703
0.371969
0.37123
0.370487
0.36974
0.368988
0.368233
0.367474
0.366712
0.365947
0.365179
0.364408
0.363635
0.36286
0.362083
0.361304
0.360524
0.359743
0.358962
0.35818
0.357398
0.356616
0.355834
0.355053
0.354274
0.353495
0.352718
0.351942
0.351169
0.350398
0.349629
0.348864
0.348101
0.347342
0.346586
0.345834
0.345086
0.344342
0.343603
0.342868
0.342139
0.341414
0.340695
0.339982
0.339274
0.338572
0.337877
0.337189
0.336506
0.335831
0.335163
0.334503
0.333849
0.333204
0.332567
0.331937
0.331316
0.330703
0.330099
0.329504
0.328918
0.328341
0.327774
0.327216
0.326667
0.326129
0.3256
0.325082
0.324574
0.324076
0.323589
0.323113
0.322647
0.322192
0.321748
0.321315
0.320894
0.320483
0.320084
0.319696
0.31932
0.318956
0.318604
0.318263
0.317935
0.317619
0.317315
0.317023
0.316744
0.316477
0.316223
0.315982
0.315753
0.315538
0.315335
0.315146
0.31497
0.314808
0.314659
0.314524
0.314403
0.314296
0.314203
0.314124
0.314059
0.314007
0.31397
0.313946
0.313936
0.31394
0.313957
0.313988
0.314034
0.314085
0.314161
0.314245
0.314331
0.314437
0.314546
0.31466
0.314776
0.31493
0.314901
0.315319
0.314982
0.315991
0.314798
0.382876
0.382168
0.381453
0.380733
0.380006
0.379274
0.378535
0.377791
0.377041
0.376285
0.375523
0.374756
0.373984
0.373206
0.372424
0.371637
0.370845
0.370049
0.369248
0.368444
0.367636
0.366824
0.366009
0.365191
0.36437
0.363546
0.36272
0.361892
0.361062
0.360231
0.359398
0.358564
0.35773
0.356895
0.35606
0.355226
0.354392
0.353558
0.352726
0.351895
0.351066
0.350239
0.349414
0.348592
0.347772
0.346956
0.346143
0.345333
0.344528
0.343727
0.342931
0.34214
0.341354
0.340573
0.339798
0.33903
0.338267
0.337511
0.336762
0.336019
0.335284
0.334557
0.333837
0.333125
0.332421
0.331726
0.331039
0.330361
0.329692
0.329032
0.328382
0.327741
0.32711
0.326488
0.325877
0.325277
0.324686
0.324106
0.323537
0.322979
0.322432
0.321896
0.321372
0.320858
0.320357
0.319867
0.319389
0.318924
0.31847
0.318029
0.317601
0.317185
0.316782
0.316393
0.316016
0.315654
0.315304
0.314968
0.314646
0.314338
0.314044
0.313764
0.313499
0.313248
0.313012
0.312792
0.312586
0.312395
0.31222
0.312061
0.311917
0.31179
0.311678
0.311583
0.311503
0.311441
0.311395
0.311366
0.311354
0.31136
0.311385
0.311426
0.311492
0.311571
0.311676
0.311803
0.311947
0.312111
0.312328
0.312541
0.312757
0.313214
0.313009
0.314234
0.313029
0.31589
0.312692
0.318589
0.311192
0.384255
0.383513
0.382762
0.382002
0.381235
0.38046
0.379676
0.378884
0.378084
0.377276
0.37646
0.375638
0.374808
0.373971
0.373127
0.372277
0.371421
0.37056
0.369693
0.368822
0.367946
0.367065
0.366182
0.365294
0.364404
0.36351
0.362615
0.361717
0.360816
0.359915
0.359012
0.358107
0.357203
0.356297
0.355392
0.354487
0.353582
0.352679
0.351777
0.350876
0.349977
0.349081
0.348187
0.347296
0.346409
0.345525
0.344645
0.34377
0.342899
0.342032
0.341171
0.340316
0.339466
0.338623
0.337785
0.336955
0.336131
0.335314
0.334505
0.333703
0.33291
0.332125
0.331348
0.33058
0.329821
0.329072
0.328332
0.327601
0.326881
0.32617
0.32547
0.32478
0.324102
0.323434
0.322777
0.322132
0.321498
0.320876
0.320266
0.319668
0.319082
0.318509
0.317949
0.317402
0.316867
0.316347
0.315839
0.315346
0.314867
0.314401
0.31395
0.313514
0.313091
0.312684
0.312291
0.311913
0.31155
0.311203
0.310871
0.310555
0.310254
0.30997
0.309702
0.309449
0.309214
0.308994
0.308792
0.308607
0.308438
0.308287
0.308154
0.308039
0.307942
0.307863
0.307803
0.307763
0.307742
0.307742
0.307763
0.307806
0.307873
0.307961
0.308077
0.308218
0.308384
0.308587
0.308835
0.309094
0.309359
0.309915
0.309799
0.311308
0.309999
0.313692
0.309495
0.317251
0.307512
0.322299
0.299033
0.385857
0.385077
0.384283
0.383478
0.38266
0.38183
0.380989
0.380136
0.379272
0.378399
0.377516
0.376623
0.375721
0.374811
0.373892
0.372967
0.372034
0.371094
0.370148
0.369195
0.368236
0.36727
0.366299
0.365323
0.364341
0.363356
0.362366
0.361373
0.360378
0.359381
0.358382
0.357381
0.356381
0.35538
0.35438
0.353381
0.352383
0.351386
0.350391
0.349399
0.34841
0.347424
0.346442
0.345463
0.344489
0.34352
0.342556
0.341597
0.340643
0.339696
0.338755
0.337821
0.336893
0.335973
0.335061
0.334157
0.333261
0.332373
0.331494
0.330624
0.329764
0.328913
0.328072
0.327242
0.326421
0.325612
0.324813
0.324025
0.323249
0.322484
0.321731
0.32099
0.320261
0.319544
0.31884
0.318149
0.31747
0.316805
0.316153
0.315515
0.31489
0.314279
0.313682
0.3131
0.312531
0.311977
0.311438
0.310913
0.310403
0.309908
0.309429
0.308964
0.308515
0.308082
0.307665
0.307263
0.306878
0.306508
0.306156
0.305819
0.3055
0.305197
0.304912
0.304644
0.304393
0.30416
0.303946
0.303749
0.303571
0.303412
0.303272
0.303152
0.303052
0.302972
0.302914
0.302878
0.302865
0.302875
0.302909
0.302968
0.303056
0.303167
0.303306
0.303479
0.303675
0.303895
0.304146
0.304516
0.30459
0.305431
0.304942
0.306668
0.305213
0.308116
0.30569
0.309582
0.305065
0.316471
0.284597
0.388749
0.387941
0.387114
0.386269
0.385406
0.384524
0.383627
0.382715
0.381789
0.380847
0.379891
0.378922
0.377942
0.37695
0.375944
0.374926
0.373898
0.372861
0.371814
0.37076
0.369698
0.368631
0.367559
0.366482
0.365402
0.364317
0.363229
0.362138
0.361045
0.359949
0.358851
0.357751
0.356651
0.35555
0.354448
0.353348
0.352248
0.351149
0.350053
0.348958
0.347867
0.346779
0.345695
0.344615
0.343541
0.342471
0.341407
0.340349
0.339298
0.338254
0.337218
0.336189
0.335168
0.334156
0.333152
0.332158
0.331173
0.330198
0.329233
0.328278
0.327333
0.3264
0.325478
0.324567
0.323667
0.32278
0.321904
0.321041
0.320191
0.319353
0.318529
0.317717
0.316919
0.316135
0.315364
0.314607
0.313865
0.313136
0.312422
0.311723
0.311038
0.310368
0.309713
0.309073
0.308448
0.307839
0.307245
0.306667
0.306104
0.305557
0.305026
0.304511
0.304012
0.30353
0.303064
0.302614
0.302182
0.301766
0.301368
0.300987
0.300623
0.300277
0.299949
0.299639
0.299348
0.299075
0.29882
0.298585
0.29837
0.298173
0.297997
0.297841
0.297706
0.297591
0.297497
0.297425
0.297375
0.297346
0.297341
0.297356
0.297394
0.297455
0.297533
0.297636
0.297761
0.297899
0.297995
0.298307
0.298208
0.298818
0.298438
0.299328
0.29882
0.299621
0.299798
0.299831
0.300168
0.306762
0.275676
0.392851
0.392001
0.391126
0.390227
0.389304
0.38836
0.387394
0.386404
0.385394
0.384371
0.383328
0.382266
0.381187
0.380089
0.378985
0.377873
0.376753
0.375624
0.374486
0.37334
0.372184
0.371018
0.369841
0.368654
0.367457
0.366252
0.36504
0.363823
0.362601
0.361375
0.360148
0.358919
0.357689
0.356459
0.35523
0.354003
0.352777
0.351554
0.350335
0.349118
0.347906
0.346698
0.345496
0.344299
0.343108
0.341923
0.340745
0.339575
0.338412
0.337257
0.336111
0.334973
0.333845
0.332727
0.331619
0.330521
0.329434
0.328358
0.327293
0.32624
0.3252
0.324171
0.323156
0.322153
0.321164
0.320188
0.319226
0.318278
0.317344
0.316425
0.31552
0.31463
0.313755
0.312895
0.31205
0.311221
0.310407
0.309609
0.308826
0.308059
0.307309
0.306574
0.305856
0.305155
0.30447
0.303801
0.303149
0.302513
0.301895
0.301293
0.300708
0.30014
0.299589
0.299056
0.298539
0.29804
0.297559
0.297095
0.296648
0.296219
0.295809
0.295416
0.295041
0.294684
0.294345
0.294024
0.293722
0.293439
0.293173
0.292926
0.292698
0.292488
0.292296
0.292123
0.291967
0.291829
0.291708
0.291603
0.291513
0.29144
0.291377
0.291334
0.291299
0.29127
0.291265
0.291277
0.291223
0.291364
0.291211
0.291499
0.291275
0.291624
0.291549
0.291512
0.291935
0.29097
0.290413
0.297239
0.269933
0.397109
0.396157
0.395176
0.394172
0.393139
0.392078
0.390995
0.389897
0.388777
0.387632
0.386466
0.385276
0.38408
0.382868
0.381626
0.38036
0.379074
0.377769
0.376447
0.37511
0.373771
0.372441
0.371115
0.369775
0.368418
0.367056
0.365694
0.36433
0.362964
0.361595
0.360226
0.358855
0.357484
0.356113
0.354743
0.353375
0.35201
0.350648
0.349291
0.347937
0.34659
0.345249
0.343914
0.342587
0.341268
0.339957
0.338656
0.337364
0.336082
0.334811
0.333552
0.332303
0.331067
0.329843
0.328632
0.327434
0.326249
0.325079
0.323922
0.322779
0.32165
0.320537
0.319438
0.318354
0.317285
0.316232
0.315195
0.314173
0.313167
0.312177
0.311203
0.310246
0.309305
0.30838
0.307473
0.306582
0.305708
0.304852
0.304012
0.30319
0.302385
0.301597
0.300827
0.300075
0.29934
0.298622
0.297923
0.297241
0.296577
0.295931
0.295302
0.294692
0.294099
0.293525
0.292968
0.292429
0.291908
0.291404
0.290918
0.29045
0.29
0.289566
0.289151
0.288752
0.288371
0.288006
0.287658
0.287327
0.287012
0.286713
0.28643
0.286163
0.28591
0.285673
0.285449
0.28524
0.285044
0.284862
0.28469
0.284534
0.284385
0.284252
0.284137
0.284022
0.283925
0.283872
0.283738
0.283791
0.283617
0.283757
0.283609
0.283694
0.283879
0.283636
0.283962
0.283166
0.281713
0.288185
0.264193
0.401362
0.400262
0.399135
0.397969
0.396779
0.39557
0.394335
0.393056
0.391751
0.390425
0.389086
0.387731
0.386337
0.384917
0.383497
0.382079
0.380645
0.379201
0.377747
0.376283
0.3748
0.373288
0.371757
0.370225
0.368694
0.367159
0.365618
0.364072
0.362524
0.360976
0.359427
0.35788
0.356335
0.354793
0.353255
0.351722
0.350193
0.348671
0.347156
0.345647
0.344147
0.342655
0.341172
0.3397
0.338238
0.336787
0.335348
0.333922
0.332508
0.331107
0.32972
0.328346
0.326987
0.325643
0.324314
0.323
0.321702
0.32042
0.319155
0.317906
0.316675
0.315461
0.314264
0.313086
0.311925
0.310782
0.309658
0.308552
0.307465
0.306397
0.305347
0.304317
0.303304
0.302312
0.301338
0.300384
0.299449
0.298533
0.297636
0.296759
0.2959
0.295061
0.294241
0.29344
0.292658
0.291894
0.29115
0.290424
0.289718
0.289029
0.288359
0.287708
0.287075
0.28646
0.285863
0.285284
0.284724
0.284181
0.283655
0.283147
0.282656
0.282183
0.281726
0.281287
0.280863
0.280456
0.280065
0.27969
0.279331
0.278987
0.278658
0.278345
0.278046
0.277762
0.277492
0.277237
0.276997
0.276773
0.276561
0.276365
0.276188
0.276022
0.275878
0.275755
0.275621
0.275567
0.275429
0.275451
0.275329
0.275389
0.275343
0.275331
0.275548
0.275054
0.274868
0.274237
0.273042
0.27863
0.257506
0.406765
0.405484
0.404174
0.402837
0.401464
0.400055
0.398605
0.397142
0.395698
0.394215
0.392669
0.391105
0.389525
0.387945
0.386338
0.38469
0.383024
0.381351
0.379662
0.37796
0.37625
0.374531
0.372796
0.371055
0.369317
0.367578
0.365833
0.364087
0.362341
0.360595
0.358852
0.357109
0.35537
0.353637
0.351909
0.350186
0.348471
0.346765
0.345069
0.343383
0.341709
0.340047
0.338398
0.336762
0.335139
0.333531
0.331938
0.330361
0.3288
0.327256
0.325729
0.32422
0.322729
0.321257
0.319804
0.318371
0.316956
0.315562
0.314187
0.312832
0.311497
0.310183
0.308889
0.307616
0.306363
0.305131
0.30392
0.30273
0.30156
0.300412
0.299285
0.298178
0.297094
0.296028
0.294985
0.293963
0.292959
0.291978
0.291017
0.290075
0.289156
0.288255
0.287375
0.286516
0.285676
0.284858
0.284059
0.283281
0.282522
0.281784
0.281065
0.280366
0.279687
0.279026
0.278385
0.277763
0.27716
0.276575
0.276009
0.27546
0.27493
0.274417
0.273922
0.273445
0.272984
0.272541
0.272115
0.271705
0.271313
0.270937
0.270577
0.270235
0.269909
0.269599
0.269307
0.269031
0.268772
0.268531
0.268308
0.268099
0.267915
0.267742
0.267591
0.267478
0.267327
0.26728
0.26714
0.267149
0.267032
0.267088
0.267038
0.266909
0.266941
0.266441
0.266056
0.265518
0.264663
0.269305
0.250984
0.413959
0.412475
0.410952
0.40939
0.407793
0.406184
0.404551
0.402868
0.401126
0.399347
0.397557
0.395741
0.393907