/*--------------------------------*- C++ -*----------------------------------*\
| =========                 |                                                 |
| \\      /  F ield         | OpenFOAM: The Open Source CFD Toolbox           |
|  \\    /   O peration     | Version:  5.x                                   |
|   \\  /    A nd           | Web:      www.OpenFOAM.org                      |
|    \\/     M anipulation  |                                                 |
\*---------------------------------------------------------------------------*/
/*   Windows 32 and 64 bit porting by blueCAPE: http://www.bluecape.com.pt   *\
|  Based on Windows porting (2.0.x v4) by Symscape: http://www.symscape.com   |
\*---------------------------------------------------------------------------*/
FoamFile
{
    version     2.0;
    format      ascii;
    class       surfaceScalarField;
    location    "170";
    object      phi;
}
// * * * * * * * * * * * * * * * * * * * * * * * * * * * * * * * * * * * * * //

dimensions      [0 3 -1 0 0 0 0];

internalField   nonuniform List<scalar> 
87341
(
0.362574
39.5605
0.518398
39.7672
0.483022
39.9584
0.581587
39.8245
0.611007
39.8936
0.641944
39.8921
0.674059
39.8909
0.708032
39.8891
0.750632
39.8804
0.789688
39.884
0.826909
39.8858
0.859684
39.8903
0.888663
39.8941
0.914913
39.8968
0.939004
39.8989
0.961263
39.9008
0.981952
39.9023
1.00135
39.9036
1.01972
39.9047
1.03711
39.9056
1.05363
39.9065
1.06926
39.9074
1.08403
39.9083
1.09804
39.909
1.11136
39.9097
1.12402
39.9104
1.13609
39.911
1.14762
39.9115
39.912
1.15871
0.96892
38.5915
1.36267
39.3735
1.4726
39.8485
1.61485
39.6822
1.65358
39.8549
1.81965
39.726
1.91673
39.7938
2.03575
39.77
2.11075
39.8054
2.18753
39.8072
2.25854
39.8148
2.32831
39.8205
2.39549
39.8269
2.45911
39.8332
2.51897
39.8391
2.57516
39.8446
2.62791
39.8496
2.67759
39.854
2.72377
39.8585
2.76659
39.8628
2.8064
39.8667
2.8437
39.8701
2.87883
39.8731
2.91206
39.8758
2.94355
39.8782
2.97351
39.8804
3.00204
39.8824
3.02922
39.8843
39.8855
3.05568
2.02498
36.5666
3.32723
38.0712
4.09617
39.0795
4.1695
39.6089
4.33586
39.6885
4.27569
39.7862
4.31377
39.7558
4.30711
39.7767
4.33237
39.7802
4.35262
39.787
4.37244
39.795
4.39878
39.7942
4.42983
39.7958
4.46265
39.8003
4.49598
39.8058
4.52928
39.8113
4.56222
39.8167
4.59417
39.822
4.62569
39.827
4.65704
39.8315
4.68824
39.8355
4.71954
39.8388
4.75078
39.8419
4.78195
39.8446
4.81313
39.847
4.84418
39.8494
4.87523
39.8514
4.90638
39.8532
39.8546
4.93724
1.67365
34.8929
3.45195
36.2929
4.87001
37.6615
5.72466
38.7542
5.99195
39.4212
6.06005
39.7181
6.06703
39.7488
6.0757
39.768
6.09293
39.7629
6.11122
39.7687
6.13671
39.7695
6.15267
39.7782
6.16293
39.7856
6.17539
39.7879
6.19214
39.789
6.21358
39.7898
6.23921
39.791
6.26899
39.7922
6.30219
39.7938
6.33859
39.7951
6.37789
39.7962
6.4189
39.7978
6.46152
39.7993
6.50524
39.8009
6.5493
39.803
6.59382
39.8048
6.63823
39.807
6.68209
39.8093
39.8116
6.72515
1.05631
33.8366
2.38976
34.9595
3.92573
36.1255
5.3475
37.3325
6.36666
38.4021
6.90166
39.1831
7.07367
39.5768
7.11151
39.7302
7.13914
39.7353
7.17336
39.7345
7.20375
39.7391
7.23806
39.7439
7.27017
39.7535
7.29968
39.7584
7.32941
39.7593
7.36026
39.759
7.3935
39.7578
7.42841
39.7573
7.46682
39.7554
7.50814
39.7538
7.55136
39.753
7.59799
39.7512
7.6464
39.7508
7.69621
39.7511
7.74863
39.7506
7.80179
39.7517
7.85588
39.7529
7.91156
39.7536
39.7553
7.96779
0.82128
33.0153
1.79662
33.9841
2.92756
34.9946
4.21686
36.0432
5.52101
37.0979
6.59723
38.1069
7.25596
38.9181
7.55695
39.4292
7.66725
39.625
7.73629
39.6654
7.80679
39.6686
7.86519
39.6855
7.9306
39.688
7.99869
39.6903
8.06804
39.6899
8.13731
39.6897
8.20379
39.6913
8.27174
39.6894
8.33712
39.69
8.40004
39.6908
8.46368
39.6893
8.52368
39.6912
8.58293
39.6916
8.64319
39.6908
8.7005
39.6933
8.75872
39.6935
8.818
39.6936
8.87524
39.6964
39.6945
8.93606
0.718413
32.2969
1.53933
33.1632
2.45968
34.0742
3.48307
35.0198
4.59778
35.9832
5.76078
36.9439
6.7991
37.8797
7.53077
38.6975
7.88659
39.2692
8.0268
39.5252
8.12109
39.5743
8.23199
39.5746
8.33759
39.5824
8.44535
39.5825
8.55167
39.5836
8.65578
39.5856
8.76404
39.583
8.86678
39.5866
8.96917
39.5876
9.07286
39.5871
9.16959
39.5926
9.26792
39.5929
9.36527
39.5942
9.45636
39.5997
9.54994
39.5997
9.64092
39.6025
9.72679
39.6077
9.81515
39.608
39.6095
9.90021
0.663804
31.6331
1.39412
32.4329
2.19575
33.2726
3.07004
34.1455
4.01331
35.0399
5.01461
35.9426
6.05655
36.8378
7.05103
37.7031
7.81747
38.5027
8.25137
39.0913
8.43661
39.3891
8.56237
39.4488
8.70078
39.444
8.83207
39.4512
8.9625
39.4532
9.09786
39.4503
9.22558
39.4553
9.35669
39.4555
9.48687
39.4574
9.61051
39.4635
9.74111
39.462
9.86802
39.466
9.98857
39.4737
10.1165
39.4718
10.2392
39.477
10.3565
39.4851
10.4797
39.4846
10.5962
39.4915
39.4973
10.7084
0.620779
31.0123
1.28797
31.7657
2.00808
32.5525
2.78309
33.3705
3.6124
34.2106
4.49235
35.0626
5.41515
35.915
6.36405
36.7542
7.30518
37.5616
8.08014
38.3163
8.566
38.9032
8.7931
39.2217
8.95137
39.2858
9.1221
39.2805
9.2914
39.2839
9.44957
39.2921
9.61433
39.2906
9.77634
39.2935
9.93042
39.3033
10.0928
39.3011
10.2491
39.3057
10.4
39.3151
10.5595
39.3142
10.7101
39.3212
10.8581
39.329
11.0122
39.3309
11.1558
39.341
11.2997
39.3476
39.351
11.446
0.596699
30.4156
1.23516
31.1273
1.91152
31.8761
2.62757
32.6544
3.38371
33.4545
4.17864
34.2677
5.009
35.0846
5.86813
35.895
6.74289
36.6869
7.61378
37.4454
8.36844
38.1486
8.87278
38.7174
9.12358
39.035
9.31046
39.0936
9.49956
39.0948
9.69869
39.0929
9.89127
39.098
10.0769
39.1079
10.2755
39.1047
10.4635
39.1132
10.647
39.1222
10.8427
39.1194
11.0249
39.132
11.2048
39.1413
11.3925
39.1414
11.5691
39.1542
11.7469
39.1633
11.9284
39.1661
39.1816
12.0977
0.598372
29.8173
1.22518
30.5004
1.8824
31.2189
2.57039
31.9664
3.28891
32.736
4.03667
33.5199
4.81127
34.31
5.60864
35.0977
6.42216
35.8733
7.2414
36.6262
8.04742
37.3425
8.76316
38.0016
9.25265
38.5455
9.50983
38.8364
9.72576
38.8789
9.93586
38.8829
10.1464
38.8875
10.3706
38.8837
10.5797
38.8956
10.7879
38.905
11.0091
38.9009
11.2114
38.9171
11.4186
38.9248
11.6351
38.9248
11.8358
38.9407
12.0374
38.9526
12.2437
38.957
12.4351
38.9746
38.9815
12.6352
0.589272
29.228
1.20252
29.8872
1.84015
30.5813
2.50154
31.305
3.18586
32.0517
3.89184
32.8139
4.61729
33.5846
5.35905
34.3559
6.11269
35.1197
6.87197
35.8669
7.6275
36.587
8.3629
37.2662
9.02364
37.8847
9.47657
38.3835
9.75868
38.5967
10.0131
38.6285
10.2757
38.6249
10.5169
38.6424
10.7609
38.6517
11.023
38.6429
11.261
38.6629
11.506
38.6722
11.7572
38.6735
11.9898
38.6922
12.2236
38.7069
12.465
38.7112
12.6888
38.7333
12.919
38.7445
38.7529
13.1476
0.5745
28.6535
1.16973
29.292
1.78524
29.9657
2.42024
30.67
3.07296
31.3989
3.74146
32.1454
4.42384
32.9022
5.11758
33.6622
5.81932
34.418
6.52468
35.1616
7.22781
35.8839
7.92022
36.5738
8.58862
37.2163
9.17937
37.7928
9.57822
38.1979
9.9042
38.3025
10.1999
38.3292
10.5034
38.3389
10.8215
38.3336
11.1061
38.3583
11.3952
38.3738
11.6926
38.3747
11.9731
38.3931
12.2566
38.4087
12.548
38.4155
12.8153
38.4439
13.0825
38.4661
13.3512
38.4758
38.494
13.6101
0.56632
28.0872
1.15014
28.7081
1.75086
29.365
2.36804
30.0529
3.00048
30.7665
3.64591
31.5
4.30175
32.2464
4.96562
32.9983
5.63489
33.7487
6.30609
34.4904
6.97483
35.2151
7.63529
35.9134
8.27911
36.5725
8.89639
37.1755
9.41286
37.6814
9.78907
37.9263
10.1434
37.9749
10.5074
37.9749
10.8437
37.9973
11.1787
38.0233
11.5323
38.0202
11.8643
38.0427
12.1879
38.0695
12.5156
38.081
12.8267
38.1045
13.129
38.1416
13.4481
38.147
13.7528
38.171
38.2042
14.0427
0.56713
27.52
1.14976
28.1255
1.74698
28.7678
2.35791
29.4419
2.9819
30.1425
3.61782
30.8641
4.26342
31.6008
4.91579
32.3459
5.57229
33.0922
6.23039
33.8323
6.88693
34.5586
7.53791
35.2624
8.17803
35.9324
8.79994
36.5536
9.37382
37.1076
9.83007
37.47
10.2415
37.5634
10.6282
37.5882
11.0001
37.6254
11.4038
37.6196
11.7875
37.6365
12.1441
37.6861
12.5122
37.7014
12.8756
37.7177
13.2135
37.7665
13.5838
37.7713
13.9299
37.8009
14.2443
37.8567
37.8727
14.5758
0.5764
26.9436
1.16722
27.5347
1.77148
28.1636
2.38805
28.8254
3.01583
29.5147
3.6539
30.226
4.30131
30.9534
4.95621
31.691
5.61579
32.4326
6.27736
33.1707
6.93819
33.8978
7.59466
34.6059
8.24175
35.2853
8.87153
35.9238
9.46781
36.5113
9.98281
36.955
10.4514
37.0947
10.8757
37.164
11.3321
37.1689
11.7679
37.1838
12.1473
37.2571
12.5627
37.2707
12.9894
37.2747
13.3679
37.3392
13.7765
37.3578
14.1617
37.386
14.5022
37.4605
14.8786
37.4802
37.4948
15.2565
0.592437
26.3512
1.19864
26.9285
1.8176
27.5446
2.44815
28.1948
3.08897
28.8739
3.73862
29.5764
4.3958
30.2962
5.05934
31.0275
5.72742
31.7645
6.39703
32.5011
7.0651
33.2297
7.7285
33.9425
8.38342
34.6304
9.02592
35.2813
9.65565
35.8815
10.2487
36.362
10.7231
36.6203
11.2161
36.671
11.7019
36.6831
12.1157
36.7701
12.5913
36.7814
13.0777
36.7843
13.4834
36.869
13.9134
36.9092
14.339
36.9322
14.7183
37.0067
15.1382
37.0406
15.5443
37.0741
37.139
15.9002
0.613124
25.7381
1.23985
26.3018
1.87898
26.9055
2.5292
27.5446
3.18911
28.214
3.8572
28.9083
4.53186
29.6215
5.21147
30.3479
5.89476
31.0812
6.58015
31.8157
7.26535
32.5445
7.94812
33.2597
8.62626
33.9522
9.29655
34.611
9.95168
35.2264
10.5357
35.7779
11.0873
36.0688
11.6199
36.1384
12.082
36.221
12.605
36.247
13.1144
36.2721
13.5627
36.336
14.0365
36.3952
14.5028
36.4429
14.9245
36.5105
15.3758
36.5554
15.8111
36.6053
16.2147
36.6704
36.7304
16.6234
0.639537
25.0985
1.29282
25.6485
1.95859
26.2397
2.63553
26.8677
3.3222
27.5273
4.01713
28.2133
4.71875
28.9199
5.42542
29.6412
6.13542
30.3712
6.84725
31.1039
7.55883
31.8329
8.26701
32.5516
8.96764
33.2516
9.65436
33.9243
10.3199
34.5609
10.9503
35.1476
11.5288
35.4903
12.0634
35.6038
12.6334
35.651
13.164
35.7164
13.6766
35.7594
14.1603
35.8523
14.6319
35.9236
15.1194
35.9554
15.6128
36.0171
16.0763
36.0919
16.5196
36.162
16.9435
36.2466
36.3211
17.3527
0.669951
24.4286
1.35398
24.9644
2.05082
25.5429
2.759
26.1595
3.47702
26.8093
4.20322
27.4871
4.93584
28.1873
5.67297
28.9041
6.41251
29.6317
7.15212
30.3642
7.88931
31.0957
8.62107
31.8198
9.34367
32.529
10.0532
33.2147
10.7468
33.8673
11.4264
34.4679
12.0796
34.837
12.6721
35.0113
13.2034
35.1198
13.74
35.1797
14.2359
35.2636
14.767
35.3212
15.3295
35.3611
15.8418
35.443
16.3
35.559
16.7565
35.6353
17.1955
35.723
17.6314
35.8107
35.8681
18.0845
0.70175
23.7268
1.41816
24.248
2.14776
24.8133
2.88897
25.4183
3.64016
26.0581
4.39955
26.7277
5.16528
27.4216
5.93537
28.134
6.70772
28.8593
7.48018
29.5918
8.25066
30.3253
9.01717
31.0533
9.77784
31.7683
10.5314
32.4612
11.2798
33.119
12.0229
33.7248
12.6469
34.213
13.208
34.4502
13.8062
34.5216
14.3798
34.6062
14.9634
34.68
15.5337
34.7509
16.0294
34.8654
16.5216
34.9509
17.0238
35.0567
17.5225
35.1366
18.0315
35.2141
18.5113
35.3309
35.421
18.9584
0.735183
22.9917
1.4856
23.4976
2.24982
24.0491
3.02624
24.6418
3.81319
25.2712
4.60892
25.932
5.41157
26.6189
6.21921
27.3264
7.02985
28.0487
7.84143
28.7802
8.65187
29.5148
9.45896
30.2462
10.2602
30.9671
11.0521
31.6693
11.8252
32.3459
12.5455
33.0045
13.2284
33.5301
13.8773
33.8013
14.4859
33.913
15.0979
33.9942
15.6526
34.1253
16.2014
34.2021
16.762
34.3048
17.28
34.4329
17.8002
34.5366
18.3279
34.6089
18.8093
34.7326
19.3102
34.83
34.9848
19.7464
0.768724
22.2229
1.55341
22.7129
2.35259
23.2499
3.16468
23.8297
3.98799
24.4479
4.82072
25.0993
5.66095
25.7787
6.50665
26.4807
7.35562
27.1997
8.20554
27.9303
9.0538
28.6666
9.89743
29.4026
10.7327
30.1318
11.5548
30.8472
12.3589
31.5418
13.1469
32.2165
13.8396
32.8374
14.5233
33.1177
15.1743
33.262
15.7682
33.4003
16.3739
33.5196
16.9298
33.6461
17.46
33.7747
18.0548
33.838
18.6157
33.9757
19.1078
34.1168
19.5824
34.2581
20.0201
34.3923
34.5232
20.4817
0.800827
21.4221
1.61824
21.8955
2.45082
22.4173
3.297
22.9836
4.15503
23.5898
5.02304
24.2313
5.89902
24.9027
6.78075
25.5989
7.66585
26.3146
8.55168
27.0444
9.43531
27.7829
10.3134
28.5245
11.182
29.2632
12.0366
29.9926
12.8716
30.7069
13.6781
31.4099
14.4942
32.0213
15.191
32.4208
15.8094
32.6436
16.4455
32.7642
17.0426
32.9224
17.6828
33.0059
18.2765
33.181
18.8051
33.3094
19.34
33.4408
19.8747
33.5821
20.4113
33.7214
20.9391
33.8644
34.0547
21.4077
0.830162
20.5919
1.6776
21.0481
2.54087
21.554
3.41839
22.106
4.30845
22.6998
5.20915
23.3306
6.11841
23.9934
7.034
24.6833
7.9535
25.3951
8.87433
26.1236
9.79372
26.8635
10.7087
27.6095
11.6164
28.3555
12.5136
29.0954
13.3987
29.8218
14.2789
30.5297
15.0881
31.2121
15.8497
31.6592
16.5516
31.9418
17.184
32.1318
17.8165
32.2899
18.3772
32.4452
18.9626
32.5957
19.5756
32.6963
20.1343
32.8822
20.6406
33.0758
21.122
33.24
21.5858
33.4006
33.532
22.1084
0.856829
19.7351
1.73148
20.1734
2.62268
20.6628
3.52897
21.1998
4.44871
21.78
5.38008
22.3992
6.32109
23.0524
7.26957
23.7349
8.22318
24.4415
9.17943
25.1674
10.1357
25.9073
11.0893
26.6559
12.0374
27.4074
12.977
28.1557
13.9047
28.8942
14.813
29.6214
15.7006
30.3245
16.4125
30.9473
17.0574
31.2969
17.7532
31.436
18.4431
31.6001
19.1391
31.7492
19.7363
31.9984
20.243
32.1897
20.7877
32.3374
21.3655
32.498
21.9335
32.672
22.4219
32.9121
33.1183
22.8357
0.879699
18.8554
1.77777
19.2754
2.69306
19.7475
3.6243
20.2685
4.56998
20.8344
5.52841
21.4408
6.4977
22.0831
7.47576
22.7568
8.46033
23.457
9.44895
24.1787
10.439
24.9173
11.4274
25.6675
12.4109
26.4239
13.3855
27.1811
14.3458
27.9339
15.2858
28.6814
16.1674
29.4428
17.0408
30.0739
17.8108
30.5269
18.4451
30.8016
19.0674
30.9778
19.6411
31.1755
20.3319
31.3076
20.9996
31.522
21.5315
31.8055
22.0086
32.0209
22.5507
32.13
23.1207
32.3421
32.6407
23.5983
0.898083
17.9573
1.81494
18.3585
2.74963
18.8128
3.70105
19.3171
4.66786
19.8676
5.64849
20.4601
6.64116
21.0905
7.64384
21.7541
8.65431
22.4465
9.67008
23.163
10.6884
23.8989
11.7063
24.6496
12.72
25.4102
13.7254
26.1757
14.7173
26.942
15.6905
27.7082
16.6409
28.4924
17.4307
29.2841
18.234
29.7237
19.0361
29.9995
19.7792
30.2346
20.4294
30.5253
20.9757
30.7613
21.4975
31.0002
22.195
31.108
22.8034
31.4125
23.2661
31.6673
23.7308
31.8775
32.1812
24.1903
0.911451
17.0459
1.84197
17.428
2.79081
17.864
3.75708
18.3508
4.7396
18.885
5.73696
19.4628
6.74746
20.08
7.76919
20.7324
8.79996
21.4157
9.83731
22.1256
10.8785
22.8577
11.9205
23.6076
12.9599
24.3709
13.9924
25.1432
15.0137
25.9207
16.0201
26.7017
17.0184
27.4941
18.0331
28.2694
18.806
28.9508
19.474
29.3316
20.1615
29.5471
20.8604
29.8264
21.6159
30.0058
22.2181
30.398
22.6406
30.6854
23.2559
30.7973
23.8172
31.106
24.3607
31.334
31.6961
24.8458
0.919705
16.1262
1.85863
16.489
2.81628
16.9064
3.79198
17.3751
4.78478
17.8922
5.79344
18.4541
6.81646
19.057
7.85204
19.6968
8.89817
20.3696
9.95253
21.0712
11.0126
21.7977
12.0754
22.5447
13.138
23.3083
14.1969
24.0844
15.2487
24.869
16.291
25.6594
17.3188
26.4663
18.2894
27.2988
19.2722
27.968
20.05
28.5537
20.7164
28.8807
21.3498
29.1929
21.8956
29.4601
22.677
29.6166
23.3487
30.0138
23.8172
30.3288
24.3561
30.5671
24.825
30.8651
31.1903
25.3308
0.922856
15.2033
1.86496
15.5469
2.82607
15.9452
3.80581
16.3954
4.80349
16.8945
5.8181
17.4395
6.84836
18.0267
7.89274
18.6524
8.94943
19.3129
10.0164
20.0043
11.0912
20.7228
12.1713
21.4646
13.2542
22.2254
14.3367
23.0018
15.4156
23.79
16.4881
24.5869
17.5623
25.3921
18.6197
26.2414
19.5093
27.0784
20.367
27.6961
21.1062
28.1415
21.8858
28.4133
22.5382
28.8077
22.9931
29.1617
23.6859
29.321
24.3117
29.7029
24.8118
30.067
25.3395
30.3374
30.7223
25.8075
0.920907
14.2824
1.86094
14.6069
2.82015
14.986
3.79845
15.4171
4.79542
15.8976
5.8103
16.4246
6.84206
16.9949
7.88939
17.6051
8.95072
18.2516
10.0242
18.9308
11.1078
19.6392
12.1991
20.3734
13.2952
21.1293
14.3936
21.9034
15.4909
22.6927
16.5828
23.495
17.6627
24.3121
18.751
25.1531
19.8063
26.0231
20.6394
26.8629
21.3739
27.407
22.0681
27.7192
22.8869
27.989
23.5972
28.4513
24.0336
28.8846
24.6464
29.0901
25.2368
29.4765
25.685
29.8892
30.1787
26.2286
0.91403
13.3684
1.84692
13.674
2.79901
14.0339
3.77052
14.4456
4.76128
14.9068
5.77079
15.4151
6.79827
15.9675
7.84264
16.5607
8.90257
17.1916
9.97648
17.8569
11.0626
18.5531
12.1587
19.2772
13.2621
20.0259
14.37
20.7956
15.4792
21.5835
16.5866
22.3877
17.6901
23.2086
18.7763
24.0669
19.8308
24.9687
20.8723
25.8214
21.6978
26.5815
22.3862
27.0308
23.0282
27.347
23.8091
27.6704
24.5142
28.1795
24.9494
28.6549
25.5279
28.8981
26.0664
29.3507
29.7843
26.4608
0.902527
12.4659
1.82351
12.753
2.76359
13.0939
3.72326
13.4859
4.70263
13.9274
5.70148
14.4163
6.71926
14.9497
7.75518
15.5248
8.80815
16.1387
9.8768
16.7882
10.9594
17.4705
12.0542
18.1825
13.1586
18.9215
14.27
19.6842
15.3852
20.4683
16.5011
21.2718
17.6143
22.0953
18.737
22.9442
19.8413
23.8644
20.8486
24.8141
21.8354
25.5947
22.6072
26.259
23.2918
26.6624
23.9141
27.0481
24.6499
27.4438
25.3219
27.9829
25.7286
28.4913
26.2952
28.7842
29.3154
26.7641
0.88677
11.5791
1.79147
11.8483
2.71502
12.1703
3.6582
12.5427
4.62141
12.9642
5.60466
13.433
6.6077
13.9466
7.62998
14.5025
8.67069
15.098
9.7287
15.7302
10.8025
16.3967
11.8904
17.0946
12.9901
17.8217
14.0994
18.5749
15.2157
19.3519
16.336
20.1515
17.4576
20.9738
18.5792
21.8225
19.7375
22.7062
20.8599
23.6917
21.823
24.6317
22.7206
25.3613
23.4156
25.9674
24.1089
26.3548
24.726
26.8267
25.4142
27.2947
26.0471
27.8584
26.4589
28.3724
28.7855
26.9889
0.867157
10.7119
1.75161
10.9639
2.65454
11.2674
3.57702
11.6202
4.51969
12.0216
5.48284
12.4699
6.46648
12.963
7.47033
13.4987
8.49384
14.0745
9.53617
14.6879
10.5962
15.3366
11.6727
16.0182
12.7639
16.7305
13.8674
17.4714
14.9808
18.2385
16.1019
19.0304
17.2287
19.847
18.3605
20.6907
19.4923
21.5744
20.678
22.506
21.7829
23.5268
22.712
24.4322
23.5394
25.14
24.1581
25.7361
24.8371
26.1476
25.4358
26.696
26.0651
27.2291
26.632
27.8055
28.3781
27.0394
0.844091
9.86783
1.70474
10.1032
2.5834
10.3887
3.48141
10.7222
4.39966
11.1033
5.33869
11.5308
6.2988
12.0029
7.28001
12.5175
8.28207
13.0724
9.30447
13.6655
10.3465
14.2946
11.407
14.9577
12.4846
15.6529
13.5771
16.3789
14.6826
17.133
15.7992
17.9139
16.925
18.7212
18.0589
19.5568
19.2034
20.4299
20.3381
21.3713
21.5126
22.3523
22.5675
23.3773
23.4506
24.2569
24.2312
24.9555
24.817
25.5618
25.5062
26.0068
26.0882
26.6471
26.6228
27.2709
27.8788
27.1221
0.817951
9.04988
1.65166
9.26953
2.5028
9.53758
3.37299
9.85205
4.26334
10.213
5.17468
10.6195
6.10756
11.07
7.0623
11.5627
8.03896
12.0957
9.03735
12.6671
10.0569
13.275
11.0969
13.9177
12.1562
14.5935
13.2338
15.3013
14.327
16.0398
15.4338
16.8071
16.5521
17.6029
17.6806
18.4282
18.8211
19.2895
19.9836
20.2087
21.1158
21.2202
22.2662
22.2269
23.2687
23.2544
24.1062
24.1179
24.8382
24.8299
25.3809
25.464
26.0762
25.9518
26.6346
26.7125
27.4203
27.0931
0.789092
8.26079
1.59307
8.46556
2.41385
8.7168
3.25327
9.01263
4.11268
9.35356
4.99315
9.73901
5.89552
10.1676
6.82041
10.6378
7.76817
11.148
8.73893
11.6964
9.73249
12.2815
10.7484
12.9018
11.7859
13.556
12.8441
14.2431
13.9208
14.9631
15.0138
15.7141
16.1211
16.4956
17.2407
17.3086
18.3731
18.1571
19.5267
19.0551
20.7099
20.0369
21.8264
21.1104
22.9377
22.1431
23.8745
23.1811
24.6895
24.0149
25.3662
24.7874
25.862
25.4559
26.5312
26.0434
26.9308
27.0207
0.757843
7.50295
1.52966
7.69374
2.31759
7.92886
3.12368
8.20654
3.9495
8.52774
4.79636
8.89215
5.66538
9.29862
6.55748
9.74575
7.47332
10.2321
8.41335
10.7563
9.37772
11.3171
10.3663
11.9133
11.3784
12.5439
12.4134
13.2081
13.4706
13.9059
14.5473
14.6375
15.6408
15.4021
16.7489
16.2004
17.8701
17.0359
19.0077
17.9175
20.1776
18.8671
21.3685
19.9195
22.47
21.0416
23.5271
22.1241
24.4133
23.1286
25.1957
24.005
25.8145
24.8372
26.2792
25.5786
26.3144
26.8955
0.724512
6.77843
1.46206
6.95619
2.215
7.17593
2.98556
7.43599
3.77552
7.73778
4.58642
8.08124
5.41967
8.46537
6.27646
8.88896
7.15779
9.35078
8.06443
9.8497
8.99686
10.3847
9.95527
10.9549
10.9395
11.5597
11.949
12.1985
12.9833
12.8715
14.0407
13.5802
15.1181
14.3247
16.213
15.1056
17.3231
15.9258
18.4489
16.7917
19.5983
17.7176
20.7846
18.7333
21.979
19.8471
23.058
21.0451
24.0516
22.135
24.8937
23.163
25.614
24.1168
26.172
25.0207
25.8905
26.596
0.689402
6.08903
1.3909
6.25469
2.10704
6.45978
2.84023
6.7028
3.59242
6.98559
4.36541
7.30825
5.16085
7.66993
5.98023
8.06958
6.82486
8.50615
7.69585
8.97872
8.59403
9.4865
9.51997
10.0289
10.4739
10.6058
11.4554
11.217
12.4642
11.8628
13.4996
12.5447
14.5593
13.2649
15.6402
14.0247
16.7394
14.8265
17.8557
15.6754
18.9922
16.5811
20.1605
17.565
21.3515
18.6561
22.5497
19.8469
23.5767
21.1079
24.5138
22.2259
25.3061
23.3246
25.9339
24.3928
25.3903
26.4341
0.652816
5.43622
1.31679
5.59072
1.99467
5.7819
2.689
6.00846
3.40192
6.27267
4.13543
6.57475
4.89141
6.91395
5.67165
7.28934
6.47776
7.70004
7.31117
8.14531
8.17309
8.62458
9.06445
9.13758
9.98583
9.68438
10.9374
10.2654
11.9188
10.8815
12.9297
11.5338
13.9694
12.2252
15.035
12.9591
16.123
13.7386
17.2307
14.5677
18.3566
15.4552
19.5096
16.4121
20.6871
17.4786
21.8858
18.6482
23.0593
19.9345
24.0208
21.2643
24.915
22.4303
25.6295
23.6784
24.8579
26.1619
0.615071
4.82115
1.24038
4.96542
1.87889
5.14339
2.53327
5.35408
3.20579
5.60015
3.89863
5.88191
4.61391
6.19866
5.35368
6.54957
6.11982
6.9339
6.9141
7.35103
7.73806
7.80061
8.59303
8.28261
9.48
8.79741
10.3996
9.34584
11.3519
9.92915
12.3366
10.5491
13.3535
11.2083
14.4014
11.9112
15.477
12.663
16.5762
13.4684
17.6959
14.3354
18.8364
15.2716
20.0064
16.3087
21.1916
17.463
22.3907
18.7353
23.5058
20.1493
24.3996
21.5365
25.2308
22.8472
24.2524
25.8363
0.576495
4.24465
1.16234
4.37957
1.76076
4.54497
2.37448
4.74036
3.00587
4.96876
3.65728
5.2305
4.33103
5.5249
5.02939
5.85122
5.7545
6.20878
6.50843
6.5971
7.29309
7.01596
8.11014
7.46555
8.961
7.94655
9.84673
8.46012
10.768
9.0079
11.7248
9.59222
12.7169
10.2162
13.744
10.8842
14.8048
11.6022
15.8952
12.378
17.0108
13.2198
18.1472
14.1352
19.3076
15.1482
20.4904
16.2802
21.6834
17.5424
22.8598
18.9729
23.9006
20.4958
24.727
22.0208
23.532
25.4474
0.537423
3.70723
1.08337
3.83363
1.64136
3.98697
2.21413
4.16759
2.8041
4.37879
3.41373
4.62087
4.04553
4.89311
4.70194
5.19481
5.38538
5.52535
6.09814
5.88434
6.84246
6.27164
7.62036
6.68765
8.43363
7.13328
9.28376
7.60999
10.1719
8.11975
11.0988
8.66534
12.0645
9.25043
13.0688
9.87994
14.1112
10.5598
15.1904
11.2989
16.3019
12.1083
17.4382
12.9989
18.5997
13.9867
19.777
15.1029
20.9708
16.3485
22.1615
17.7823
23.2827
19.3745
24.231
21.0725
22.8003
24.9627
0.498178
3.20905
1.00415
3.32766
1.52182
3.46931
2.05376
3.63565
2.60242
3.83013
3.17034
4.05295
3.76018
4.30327
4.37456
4.58043
5.01607
4.88384
5.68723
5.21318
6.39058
5.56829
7.12846
5.94977
7.90295
6.35878
8.71592
6.79703
9.56906
7.2666
10.4637
7.77071
11.4008
8.31333
12.3804
8.90029
13.4024
9.53785
14.4659
10.2353
15.5705
11.0037
16.7083
11.8611
17.8746
12.8204
19.0623
13.9152
20.2586
15.1522
21.456
16.5849
22.6193
18.2112
23.6408
20.051
21.9605
24.4806
0.459054
2.74999
0.925373
2.86134
1.40323
2.99145
1.89489
3.14399
2.40276
3.32226
2.92942
3.52628
3.47771
3.75498
4.05036
4.00778
4.65015
4.28405
5.27971
4.58362
5.94188
4.90611
6.63927
5.25239
7.37419
5.62386
8.14875
6.02247
8.96518
6.45017
9.82537
6.91052
10.7311
7.40757
11.6834
7.94806
12.6828
8.53838
13.7282
9.1899
14.8208
9.91112
15.9571
10.7248
17.1319
11.6456
18.3325
12.7146
19.5512
13.9335
20.7565
15.3797
21.9462
17.0214
23.0255
18.9717
21.0608
23.9252
0.420294
2.3297
0.847677
2.43395
1.28669
2.55243
1.73895
2.69173
2.2069
2.85431
2.69313
3.04005
3.20066
3.24745
3.73234
3.47611
4.29105
3.72534
4.87944
3.99523
5.50069
4.28485
6.15758
4.5955
6.85257
4.92888
7.58786
5.28717
8.36622
5.67181
9.18998
6.08676
10.0619
6.53564
10.9833
7.02662
11.9569
7.56481
12.9818
8.16506
14.0595
8.83338
15.188
9.59633
16.3685
10.4651
17.5868
11.4963
18.8325
12.6878
20.0757
14.1365
21.2845
15.8126
22.41
17.8461
20.1108
23.36
0.382078
1.94762
0.771674
2.04436
1.1732
2.1509
1.58726
2.27768
2.01647
2.4251
2.46337
2.59315
2.93133
2.77949
3.4232
2.98424
3.94196
3.20657
4.49004
3.44716
5.07109
3.7038
5.68798
3.97861
6.34319
4.27367
7.0388
4.59156
7.77814
4.93247
8.5638
5.30111
9.39966
5.69977
10.2872
6.13905
11.231
6.62109
12.2306
7.16545
13.291
7.77296
14.4071
8.48022
15.5868
9.2854
16.8194
10.2637
18.099
11.4082
19.3862
12.8493
20.6527
14.5461
21.8137
16.6852
19.1071
22.8174
0.344547
1.60308
0.697949
1.69096
1.06369
1.78516
1.44091
1.90046
1.83278
2.03322
2.24174
2.18419
2.67167
2.34956
3.12532
2.53059
3.60573
2.72617
4.11478
2.93811
4.65684
3.16175
5.23473
3.40072
5.85082
3.65758
6.5068
3.93557
7.20664
4.23264
7.95292
4.55483
8.75088
4.90181
9.60162
5.2883
10.5119
5.71081
11.4808
6.19658
12.5184
6.73529
13.6177
7.38097
14.7923
8.11076
16.0298
9.02627
17.3418
10.0962
18.6794
11.5117
20.0248
13.2007
21.2557
15.4542
18.0631
22.2997
0.307845
1.29523
0.627058
1.37174
0.958887
1.45333
1.30067
1.55867
1.65679
1.6771
2.02944
1.81154
2.42326
1.95574
2.84073
2.11313
3.28484
2.28205
3.75655
2.4664
4.26121
2.65709
4.80151
2.86042
5.37957
3.07952
5.99643
3.31871
6.65675
3.57232
7.36276
3.84882
8.12128
4.14329
8.93235
4.47723
9.80561
4.83756
10.7381
5.26404
11.7463
5.72716
12.8207
6.30656
13.986
6.94543
15.2174
7.79485
16.5546
8.759
17.9365
10.1297
19.3779
11.7594
20.7038
14.1284
16.896
21.8708
0.272176
1.02305
0.559502
1.08442
0.85927
1.15357
1.16696
1.25099
1.48906
1.355
1.8273
1.47329
2.1873
1.59573
2.57103
1.7294
2.98132
1.87176
3.41768
2.03004
3.88684
2.18793
4.39118
2.35608
4.93254
2.53816
5.51104
2.74021
6.13209
2.95127
6.79704
3.18387
7.51474
3.42558
8.28314
3.70883
9.11567
4.00503
10.0059
4.3738
10.977
4.75611
12.0149
5.26858
13.1582
5.80214
14.3716
6.58147
15.7223
7.40829
17.1315
8.72054
18.6757
10.2152
20.111
12.693
15.5668
21.4403
0.237838
0.785217
0.495656
0.8266
0.764882
0.884341
1.03971
0.976155
1.32971
1.06501
1.6358
1.1672
1.96465
1.26689
2.31737
1.37668
2.69646
1.49267
3.09967
1.62683
3.5354
1.7522
4.00527
1.88621
4.51105
2.03238
5.05184
2.19942
5.63399
2.36912
6.25698
2.56088
6.9325
2.75006
7.65517
2.98616
8.44368
3.21653
9.28613
3.53135
10.2134
3.82887
11.2042
4.27771
12.3134
4.69295
13.4952
5.39969
14.8476
6.05588
16.2617
7.30642
17.8938
8.58319
19.4287
11.1581
14.0262
20.9692
0.205484
0.579733
0.435499
0.596585
0.675124
0.644715
0.918407
0.732871
1.17852
0.804897
1.45511
0.890603
1.75577
0.966231
2.08014
1.05231
2.43053
1.14229
2.80291
1.25445
3.20738
1.34772
3.64389
1.4497
4.11487
1.56141
4.61854
1.69575
5.16289
1.82477
5.74417
1.97959
6.37818
2.11606
7.05538
2.30895
7.7998
2.47211
8.59436
2.73679
9.47662
2.94661
10.4184
3.3359
11.487
3.62435
12.6286
4.25808
13.9638
4.72066
15.3908
5.87951
17.0973
6.87669
18.8182
9.43715
12.2216
20.6228
0.176164
0.403569
0.378303
0.394446
0.588411
0.434608
0.802069
0.519213
1.03496
0.572004
1.28521
0.640352
1.56089
0.690549
1.85908
0.754119
2.18263
0.818742
2.52664
0.910436
2.90273
0.971632
3.30727
1.04517
3.74486
1.12382
4.21351
1.22709
4.72347
1.31481
5.26983
1.43324
5.8669
1.51899
6.50786
1.668
7.20656
1.77342
7.96667
1.97668
8.79868
2.1146
9.71802
2.41656
10.7316
2.61079
11.8827
3.10692
13.1621
3.44134
14.7016
4.34002
16.4238
5.15448
18.6177
7.24316
9.91551
20.9239
0.151234
0.252336
0.322332
0.223348
0.501731
0.255208
0.689516
0.331428
0.898287
0.363234
1.12638
0.412256
1.38009
0.436837
1.6534
0.48081
1.95085
0.521298
2.2701
0.591182
2.62157
0.620164
2.99969
0.66705
3.40821
0.715296
3.84954
0.785764
4.32825
0.8361
4.84934
0.912142
5.40885
0.959481
6.01863
1.05822
6.66981
1.12223
7.3899
1.25659
8.16383
1.34066
9.03928
1.54112
9.98999
1.66008
11.1036
1.99332
12.3395
2.2054
13.8711
2.80847
15.6729
3.3527
18.3495
4.56648
6.9444
21.3207
0.132198
0.120138
0.265026
0.0905194
0.409532
0.110703
0.580973
0.159988
0.766797
0.177409
0.980123
0.19893
1.21141
0.205549
1.4615
0.230724
1.73699
0.245808
2.0403
0.287865
2.36986
0.290607
2.72075
0.316165
3.098
0.338036
3.50928
0.374485
3.95043
0.394957
4.42929
0.433277
4.93692
0.451852
5.49151
0.503624
6.08444
0.529304
6.74137
0.599661
7.45033
0.631707
8.25311
0.738337
9.13287
0.78032
10.165
0.961215
11.3344
1.03597
12.7783
1.36462
14.5216
1.60935
17.2838
1.80428
3.75403
20.4742
0.120138
0.210657
0.32136
0.481347
0.658757
0.857687
1.06324
1.29396
1.53977
1.82763
2.11824
2.43441
2.77244
3.14693
3.54188
3.97516
4.42701
4.93064
5.45994
6.0596
6.69131
7.42965
8.20997
9.17118
10.2072
11.5718
13.1811
14.9854
18.7394
1.17301
54.1259
1.18652
54.1267
1.19934
54.1274
1.21159
54.128
1.22333
54.1285
1.23458
54.129
1.24536
54.1295
1.2557
54.1299
1.26561
54.1303
1.2751
54.1307
1.28415
54.1312
1.29271
54.1317
1.30074
54.1322
1.30822
54.1328
1.31513
54.1333
1.32143
54.1339
1.32718
54.1345
1.33238
54.135
1.33704
54.1356
1.34116
54.1361
1.3447
54.1367
1.34766
54.1373
1.35002
54.1379
1.35176
54.1385
1.35286
54.1391
1.3533
54.1398
1.35308
54.1405
1.35219
54.1411
1.35061
54.1418
1.34834
54.1425
1.34537
54.1432
1.34171
54.1439
1.33736
54.1446
1.33226
54.1453
1.32657
54.1459
1.3204
54.1464
1.31378
54.1469
1.30673
54.1473
1.29928
54.1477
1.29142
54.1481
1.28319
54.1485
1.2746
54.1488
1.26567
54.1492
1.25643
54.1495
1.2469
54.1498
1.23711
54.15
1.22707
54.1503
1.2168
54.1505
1.20634
54.1507
1.1957
54.1509
1.18489
54.151
1.17393
54.1512
1.16284
54.1513
1.15164
54.1514
1.14032
54.1516
1.12889
54.1517
1.11736
54.1518
1.10571
54.1519
1.09395
54.152
1.08204
54.1521
1.06995
54.1523
1.05767
54.1525
1.0452
54.1527
1.03255
54.1529
1.01972
54.1531
1.00672
54.1532
0.993545
54.1534
0.980222
54.1536
0.966745
54.1537
0.953129
54.1539
0.939372
54.154
0.925487
54.1541
0.911469
54.1543
0.897332
54.1544
0.883076
54.1545
0.868703
54.1546
0.854246
54.1547
0.839711
54.1548
0.825112
54.1548
0.81046
54.1549
0.79578
54.1549
0.781093
54.1549
0.766437
54.1549
0.751832
54.1548
0.737312
54.1548
0.722894
54.1547
0.70862
54.1545
0.694538
54.1543
0.680474
54.1543
0.666252
54.1545
0.6518
54.1547
0.637075
54.155
0.622063
54.1552
0.606741
54.1556
0.591108
54.1559
0.575153
54.1562
0.558883
54.1565
0.542299
54.1568
0.525414
54.1571
0.508233
54.1574
0.490772
54.1577
0.473045
54.158
0.455051
54.1582
0.436811
54.1585
0.418319
54.1587
0.399587
54.159
0.380623
54.1592
0.361454
54.1594
0.342101
54.1596
0.32262
54.1597
0.303202
54.1597
0.284021
54.1594
0.265146
54.1591
0.246707
54.1587
0.22888
54.1581
0.211753
54.1574
0.195225
54.1568
0.178924
54.1565
0.162409
54.1567
0.14549
54.1572
0.128059
54.1577
0.110298
54.158
0.0921983
54.1583
0.0736204