/*--------------------------------*- C++ -*----------------------------------*\
| =========                 |                                                 |
| \\      /  F ield         | OpenFOAM: The Open Source CFD Toolbox           |
|  \\    /   O peration     | Version:  5.x                                   |
|   \\  /    A nd           | Web:      www.OpenFOAM.org                      |
|    \\/     M anipulation  |                                                 |
\*---------------------------------------------------------------------------*/
/*   Windows 32 and 64 bit porting by blueCAPE: http://www.bluecape.com.pt   *\
|  Based on Windows porting (2.0.x v4) by Symscape: http://www.symscape.com   |
\*---------------------------------------------------------------------------*/
FoamFile
{
    version     2.0;
    format      ascii;
    class       volVectorField;
    location    "170";
    object      U;
}
// * * * * * * * * * * * * * * * * * * * * * * * * * * * * * * * * * * * * * //

dimensions      [0 1 -1 0 0 0 0];

internalField   nonuniform List<vector> 
43900
(
(1.16162 -0.000724014 -1.85484e-027)
(1.16726 0.00215157 -4.97118e-027)
(1.16979 0.000342862 1.39719e-030)
(1.16849 0.00177145 2.7204e-030)
(1.16977 0.000804436 3.66594e-030)
(1.17005 0.00183312 3.67706e-030)
(1.17016 0.00117448 6.63848e-027)
(1.16967 0.0016789 -1.32588e-026)
(1.17005 0.0016167 9.60441e-030)
(1.16967 0.00165673 -1.32281e-026)
(1.16963 0.00185217 1.32508e-026)
(1.16964 0.00187985 1.14088e-029)
(1.16968 0.00194157 -1.31934e-026)
(1.16974 0.00201497 2.45326e-029)
(1.16979 0.00207075 2.51608e-029)
(1.16984 0.0021212 2.57594e-029)
(1.16988 0.00216949 -2.62827e-026)
(1.16991 0.00221397 5.37047e-029)
(1.16992 0.00225627 2.63095e-026)
(1.16992 0.00229642 2.7793e-029)
(1.16991 0.00233439 2.82158e-029)
(1.16991 0.00237077 2.86127e-029)
(1.16991 0.00240484 2.89876e-029)
(1.1699 0.00243685 2.93434e-029)
(1.1699 0.00246745 2.96804e-029)
(1.1699 0.00249673 -2.60222e-026)
(1.16989 0.00252434 6.06155e-029)
(1.16989 0.00255071 6.12065e-029)
(1.16989 0.00257576 1.03902e-025)
(1.15877 0.0112948 0)
(1.16566 -0.00482765 0)
(1.17148 0.00893157 0)
(1.16664 -5.98999e-005 0)
(1.16878 0.00611356 0)
(1.16822 0.00284529 0)
(1.16855 0.00487743 0)
(1.16853 0.00471441 0)
(1.16815 0.00459214 0)
(1.16848 0.00526154 0)
(1.16868 0.00517938 0)
(1.16886 0.00536464 0)
(1.16899 0.0055838 0)
(1.16905 0.0057375 0)
(1.16908 0.00586905 0)
(1.1691 0.00600302 0)
(1.16912 0.00613145 0)
(1.16913 0.0062539 0)
(1.16916 0.00636718 0)
(1.16919 0.00647133 0)
(1.16923 0.00656789 0)
(1.16926 0.00665778 0)
(1.1693 0.00674228 0)
(1.16933 0.00682315 0)
(1.16936 0.00689871 0)
(1.16939 0.00697057 0)
(1.16942 0.00703941 0)
(1.16944 0.00710629 0)
(1.16947 0.00716999 0)
(1.10223 0.032102 0)
(1.14506 -0.0176169 0)
(1.16314 0.0287344 0)
(1.16339 -0.0038045 0)
(1.16639 0.020764 0)
(1.16443 0.00392295 0)
(1.16602 0.0149156 0)
(1.16667 0.0083269 0)
(1.1673 0.011819 0)
(1.16759 0.0105031 0)
(1.16768 0.0107827 0)
(1.16769 0.0109324 0)
(1.16771 0.0110217 0)
(1.16777 0.0110682 0)
(1.16783 0.0111433 0)
(1.1679 0.0112321 0)
(1.16797 0.0113155 0)
(1.16804 0.0113937 0)
(1.16812 0.0114713 0)
(1.1682 0.0115486 0)
(1.16827 0.0116255 0)
(1.16833 0.0117011 0)
(1.16839 0.0117775 0)
(1.16844 0.0118541 0)
(1.16848 0.0119324 0)
(1.16853 0.0120093 0)
(1.16856 0.0120844 0)
(1.1686 0.0121589 0)
(1.16863 0.0122358 1.82552e-027)
(1.04156 0.0199061 0)
(1.08754 -0.00681735 0)
(1.13046 0.0199972 0)
(1.15627 0.00784127 0)
(1.16354 0.0219881 0)
(1.16604 0.0101657 0)
(1.16475 0.0202298 0)
(1.16389 0.0130802 0)
(1.16458 0.0175751 0)
(1.16495 0.0152629 0)
(1.16531 0.016247 0)
(1.1655 0.0161741 0)
(1.16557 0.0161651 0)
(1.16567 0.0161519 0)
(1.16579 0.0162117 0)
(1.1659 0.0162742 0)
(1.166 0.0163342 0)
(1.16611 0.0164062 0)
(1.16621 0.0164911 0)
(1.16628 0.0165819 0)
(1.16635 0.016682 0)
(1.1664 0.0167876 0)
(1.16646 0.0168962 0)
(1.16651 0.0170085 0)
(1.16655 0.0171218 0)
(1.1666 0.0172379 0)
(1.16664 0.0173577 0)
(1.16668 0.0174724 0)
(1.16672 0.0175869 1.94181e-027)
(1.00504 0.0100661 3.89167e-027)
(1.04074 -0.00103544 0)
(1.07777 0.0106244 0)
(1.11613 0.0124856 0)
(1.14608 0.0178767 0)
(1.16104 0.0166276 0)
(1.16384 0.0220942 0)
(1.16471 0.0175497 0)
(1.16397 0.0209987 0)
(1.16389 0.0191999 0)
(1.16372 0.020039 0)
(1.1639 0.0200543 0)
(1.16415 0.020035 0)
(1.16433 0.0201275 0)
(1.16444 0.0202376 0)
(1.16454 0.0203126 0)
(1.16464 0.0203979 0)
(1.16471 0.0204951 0)
(1.16479 0.0205969 0)
(1.16484 0.0207099 0)
(1.16488 0.0208277 0)
(1.16496 0.0209516 0)
(1.16501 0.0210902 0)
(1.16507 0.0212265 0)
(1.16516 0.0213689 0)
(1.16521 0.0215171 0)
(1.16529 0.0216625 0)
(1.16538 0.0218178 0)
(1.16544 0.0219689 -8.1783e-027)
(0.978911 0.00672255 -4.06191e-027)
(1.00905 0.000520548 0)
(1.04052 0.0073434 0)
(1.07313 0.010616 0)
(1.1057 0.0143565 0)
(1.1359 0.0174533 0)
(1.15521 0.0213545 0)
(1.16247 0.0209551 0)
(1.16338 0.0232987 0)
(1.16323 0.0217966 0)
(1.16361 0.0229688 0)
(1.16348 0.0228712 0)
(1.16354 0.0230152 0)
(1.16356 0.023259 0)
(1.16364 0.0234534 0)
(1.16368 0.0236507 0)
(1.16368 0.0238511 0)
(1.16377 0.0240457 0)
(1.16377 0.0242443 0)
(1.16382 0.0244283 0)
(1.16392 0.0246105 0)
(1.16393 0.0247996 0)
(1.16402 0.024962 0)
(1.16412 0.0251456 0)
(1.16413 0.0253205 0)
(1.16425 0.0254791 0)
(1.16434 0.0256601 0)
(1.16437 0.0258261 0)
(1.1645 0.0259977 4.32395e-027)
(0.956949 0.00503088 0)
(0.983554 0.00135705 0)
(1.01142 0.00618127 0)
(1.04034 0.00927065 0)
(1.0697 0.0124683 0)
(1.09872 0.0159336 0)
(1.12672 0.0195319 0)
(1.14896 0.022065 0)
(1.15915 0.0245627 0)
(1.16161 0.0243956 0)
(1.16115 0.0248397 0)
(1.16169 0.0252924 0)
(1.16161 0.0255138 0)
(1.16162 0.0258638 0)
(1.16153 0.0261916 0)
(1.16149 0.0265175 0)
(1.16161 0.0268458 0)
(1.16147 0.0271788 0)
(1.16157 0.0274821 0)
(1.16166 0.0278013 0)
(1.16156 0.0281254 0)
(1.16175 0.0283972 0)
(1.16179 0.0287218 0)
(1.16175 0.0290035 0)
(1.16197 0.0292738 0)
(1.16198 0.0295866 0)
(1.162 0.0298321 0)
(1.16223 0.0301072 0)
(1.16224 0.0303831 0)
(0.936506 0.00434272 0)
(0.960882 0.00170978 0)
(0.986452 0.00573329 0)
(1.01302 0.00862962 0)
(1.04019 0.0115218 0)
(1.06751 0.0146573 0)
(1.09444 0.018022 0)
(1.12012 0.0213234 0)
(1.14315 0.0244439 0)
(1.15539 0.0263999 0)
(1.15833 0.0275168 0)
(1.15749 0.0275379 0)
(1.15772 0.0281007 0)
(1.15759 0.0285275 0)
(1.15768 0.0289486 0)
(1.15779 0.0293837 0)
(1.15749 0.0298283 0)
(1.1578 0.030221 0)
(1.15772 0.0306562 0)
(1.15759 0.0310898 0)
(1.15798 0.0314518 0)
(1.1578 0.0319308 0)
(1.15784 0.0322976 0)
(1.15819 0.032686 0)
(1.15798 0.0331511 0)
(1.15816 0.033477 0)
(1.15845 0.0339075 0)
(1.15827 0.0342939 0)
(1.15852 0.0346405 0)
(0.91804 0.00370923 0)
(0.940641 0.0020521 0)
(0.964339 0.00548168 0)
(0.988986 0.00825073 0)
(1.01429 0.0109835 0)
(1.03992 0.0138882 0)
(1.06549 0.0169927 0)
(1.09054 0.0202406 0)
(1.11439 0.0235259 0)
(1.1363 0.0265036 0)
(1.1501 0.0289304 0)
(1.15383 0.0301883 0)
(1.15305 0.030381 0)
(1.15326 0.0310562 0)
(1.15314 0.0316393 0)
(1.15285 0.0322222 0)
(1.15343 0.0327321 0)
(1.15309 0.0333048 0)
(1.15319 0.033876 0)
(1.15366 0.0343492 0)
(1.15321 0.0349998 0)
(1.15355 0.0354323 0)
(1.15387 0.0359817 0)
(1.15349 0.0366167 0)
(1.15396 0.0369594 0)
(1.15416 0.0376063 0)
(1.1539 0.0381054 0)
(1.15444 0.0385248 0)
(1.15455 0.0391016 0)
(0.900293 0.00299124 0)
(0.921723 0.00251338 0)
(0.944178 0.00550944 0)
(0.967512 0.00822676 0)
(0.991481 0.0109026 0)
(1.01582 0.0136939 0)
(1.04022 0.0166398 0)
(1.06436 0.0197176 0)
(1.08782 0.0228862 0)
(1.1101 0.0260735 0)
(1.13037 0.0290607 0)
(1.14463 0.0315778 0)
(1.1488 0.0329949 0)
(1.14822 0.0333784 0)
(1.14841 0.0341698 0)
(1.14917 0.0348208 0)
(1.14857 0.0355555 0)
(1.14901 0.0362275 0)
(1.14939 0.0368365 0)
(1.14887 0.0377424 0)
(1.14957 0.0382092 0)
(1.1497 0.0389682 0)
(1.14935 0.0397715 0)
(1.15015 0.0401934 0)
(1.1501 0.0410802 0)
(1.14999 0.0416423 0)
(1.15082 0.0422243 0)
(1.15067 0.0430362 0)
(1.15072 0.0435453 -1.12818e-026)
(0.882813 0.00283836 0)
(0.903241 0.00282473 0)
(0.924698 0.0057582 0)
(0.947009 0.00851949 0)
(0.969961 0.0112283 0)
(0.993315 0.0140195 0)
(1.01682 0.0169323 0)
(1.0402 0.0199503 0)
(1.06315 0.0230481 0)
(1.08532 0.0261951 0)
(1.10624 0.0293264 0)
(1.12518 0.0322711 0)
(1.13925 0.0348215 0)
(1.14314 0.0362524 0)
(1.14317 0.0368444 0)
(1.14244 0.0377649 0)
(1.14335 0.038493 0)
(1.14359 0.0391583 0)
(1.14316 0.0403076 0)
(1.14414 0.0408601 0)
(1.14401 0.0417439 0)
(1.14386 0.0426659 0)
(1.14491 0.0431905 0)
(1.14466 0.0443743 0)
(1.1448 0.0448464 0)
(1.14569 0.045691 0)
(1.14542 0.0467015 0)
(1.14575 0.0471236 0)
(1.14665 0.048075 1.19172e-026)
(0.865327 0.00264486 0)
(0.884973 0.00308528 0)
(0.905648 0.00597732 0)
(0.927174 0.0087741 0)
(0.949349 0.0115162 0)
(0.971965 0.0143162 0)
(0.994795 0.01721 0)
(1.0176 0.0201842 0)
(1.04013 0.0232182 0)
(1.0621 0.0262908 0)
(1.08317 0.0293703 0)
(1.10288 0.0323897 0)
(1.12054 0.0352637 0)
(1.13286 0.0377563 0)
(1.13495 0.0391405 0)
(1.13611 0.0401888 0)
(1.13568 0.0408847 0)
(1.13522 0.0422902 0)
(1.13636 0.0428846 0)
(1.13614 0.0441987 0)
(1.13617 0.0451617 0)
(1.13721 0.0458497 0)
(1.13677 0.0474287 0)
(1.13715 0.0478283 0)
(1.13792 0.0490355 0)
(1.13786 0.0501395 0)
(1.13842 0.0506859 0)
(1.13917 0.0519756 0)
(1.13899 0.0527476 1.30301e-026)
(0.848279 0.00239236 0)
(0.867275 0.00332369 0)
(0.887299 0.00616307 0)
(0.908213 0.00897882 0)
(0.929814 0.0117532 0)
(0.951891 0.0145689 0)
(0.974243 0.0174558 0)
(0.996657 0.0204028 0)
(1.0189 0.0233928 0)
(1.04073 0.0264092 0)
(1.06187 0.0294307 0)
(1.08194 0.0324222 0)
(1.10044 0.0353164 0)
(1.1166 0.0381162 0)
(1.12583 0.0404343 0)
(1.12641 0.0417638 0)
(1.12659 0.0432203 0)
(1.1279 0.0440072 0)
(1.12739 0.0458365 0)
(1.12723 0.0468881 0)
(1.12824 0.0479037 0)
(1.12784 0.0497778 0)
(1.12855 0.0502506 0)
(1.12926 0.0520292 0)
(1.12931 0.053099 0)
(1.12957 0.05402 0)
(1.13038 0.0556975 0)
(1.13044 0.0563699 0)
(1.13136 0.0576885 -1.37675e-026)
(0.831625 0.00220536 0)
(0.850073 0.00357531 0)
(0.869554 0.00642654 0)
(0.889935 0.00929307 0)
(0.911068 0.0121377 0)
(0.932754 0.015021 0)
(0.954765 0.0179607 0)
(0.976899 0.0209472 0)
(0.998953 0.0239655 0)
(1.0207 0.0270012 0)
(1.0419 0.0300376 0)
(1.06224 0.0330486 0)
(1.08133 0.0359854 0)
(1.0986 0.0388128 0)
(1.11214 0.0416105 0)
(1.11703 0.043727 0)
(1.11815 0.0448946 0)
(1.11743 0.0470137 0)
(1.11757 0.0480437 0)
(1.119 0.0497687 0)
(1.11897 0.0516366 0)
(1.11937 0.0524574 0)
(1.11982 0.0547801 0)
(1.12007 0.0557405 0)
(1.12022 0.057115 0)
(1.12159 0.059018 0)
(1.12214 0.0597574 0)
(1.12267 0.0616812 0)
(1.12309 0.062817 -1.51253e-026)
(0.815083 0.00210424 0)
(0.833054 0.00386575 0)
(0.852085 0.00681194 0)
(0.872032 0.00979282 0)
(0.892739 0.0127606 0)
(0.914054 0.0157666 0)
(0.935795 0.0188296 0)
(0.957737 0.0219345 0)
(0.979666 0.0250661 0)
(1.00139 0.0282121 0)
(1.02266 0.0313593 0)
(1.04323 0.03449 0)
(1.06274 0.0375731 0)
(1.08068 0.0405499 0)
(1.09619 0.0434622 0)
(1.10491 0.0461617 0)
(1.10658 0.0482895 0)
(1.10716 0.0495724 0)
(1.10829 0.0518946 0)
(1.10853 0.0536068 0)
(1.10823 0.0550973 0)
(1.10923 0.0576767 0)
(1.11038 0.0585995 0)
(1.11071 0.0607179 0)
(1.11202 0.0625818 0)
(1.11276 0.0636525 0)
(1.11258 0.0660924 0)
(1.11355 0.0672439 0)
(1.1152 0.0687283 1.59886e-026)
(0.798392 0.0020904 0)
(0.81593 0.00420785 0)
(0.834556 0.00732873 0)
(0.854131 0.010494 0)
(0.874495 0.0136541 0)
(0.895481 0.0168486 0)
(0.916926 0.020095 0)
(0.938664 0.0233894 0)
(0.960477 0.0267151 0)
(0.982136 0.030057 0)
(1.00343 0.0334035 0)
(1.0241 0.0367377 0)
(1.04384 0.0400303 0)
(1.06224 0.0432246 0)
(1.07884 0.0463898 0)
(1.09074 0.0492964 0)
(1.09412 0.0517359 0)
(1.09507 0.0542731 0)
(1.0962 0.0557818 0)
(1.0956 0.0584801 0)
(1.0971 0.060718 0)
(1.09895 0.0619551 0)
(1.09879 0.0648645 0)
(1.09964 0.0666963 0)
(1.1011 0.0681965 0)
(1.10078 0.0710274 0)
(1.10278 0.0722739 0)
(1.10504 0.0740324 0)
(1.10479 0.0764931 0)
(0.781309 0.00215947 0)
(0.798435 0.00460564 0)
(0.816679 0.00797007 0)
(0.835903 0.0113835 0)
(0.855953 0.014796 0)
(0.876663 0.0182417 0)
(0.897856 0.0217334 0)
(0.919361 0.0252642 0)
(0.941017 0.0288267 0)
(0.962621 0.0324059 0)
(0.983945 0.0359855 0)
(1.00478 0.0395513 0)
(1.02485 0.0430773 0)
(1.04382 0.0465056 0)
(1.06128 0.0498058 0)
(1.07462 0.0534215 0)
(1.07915 0.0564994 0)
(1.08205 0.0582087 0)
(1.0813 0.061723 0)
(1.08298 0.0636537 0)
(1.08562 0.0655037 0)
(1.08479 0.0692389 0)
(1.08534 0.0707634 0)
(1.0881 0.0728708 0)
(1.08804 0.0761767 0)
(1.09004 0.0771247 0)
(1.09234 0.0797498 0)
(1.09164 0.0824829 0)
(1.093 0.0834972 0)
(0.763688 0.00229698 0)
(0.780416 0.00505968 0)
(0.798295 0.0087268 0)
(0.81719 0.0124451 0)
(0.836952 0.0161638 0)
(0.85742 0.0199153 0)
(0.878423 0.0237106 0)
(0.899785 0.0275412 0)
(0.921332 0.031396 0)
(0.942899 0.0352685 0)
(0.96428 0.0391479 0)
(0.985223 0.043018 0)
(1.00546 0.0468638 0)
(1.02458 0.0506472 0)
(1.04203 0.0543396 0)
(1.05611 0.0581962 0)
(1.06582 0.0608592 0)
(1.06605 0.0651154 0)
(1.06756 0.0665707 0)
(1.07066 0.069331 0)
(1.06928 0.0737597 0)
(1.07027 0.074636 0)
(1.07421 0.0779126 0)
(1.07432 0.081556 0)
(1.0757 0.0822355 0)
(1.07796 0.0860293 0)
(1.07806 0.0884558 0)
(1.08059 0.0899042 0)
(1.08338 0.0932405 0)
(0.74539 0.00250331 4.60434e-026)
(0.761721 0.00559177 0)
(0.779238 0.00963048 0)
(0.797811 0.0137236 0)
(0.817292 0.017818 0)
(0.837521 0.0219476 0)
(0.858329 0.0261241 0)
(0.879542 0.0303386 0)
(0.90098 0.0345788 0)
(0.922458 0.0388342 0)
(0.94379 0.0430946 0)
(0.964759 0.0473486 0)
(0.985099 0.0515679 0)
(1.00453 0.0557041 0)
(1.02285 0.0596901 0)
(1.04021 0.0633839 0)
(1.04744 0.0683145 0)
(1.0509 0.0697592 0)
(1.05389 0.0738431 0)
(1.0531 0.0782359 0)
(1.05571 0.0790122 0)
(1.05827 0.083874 0)
(1.05843 0.0865964 0)
(1.06063 0.0878317 0)
(1.06326 0.0928899 0)
(1.06405 0.0946338 0)
(1.0666 0.0970747 0)
(1.06813 0.100632 0)
(1.06932 0.102372 0)
(0.726231 0.00276693 1.63177e-027)
(0.742154 0.00620085 0)
(0.7593 0.0106745 0)
(0.777541 0.0152061 0)
(0.796733 0.0197378 0)
(0.816718 0.0243063 0)
(0.837329 0.0289237 0)
(0.858397 0.0335789 0)
(0.879749 0.0382568 0)
(0.901212 0.0429422 0)
(0.922611 0.0476223 0)
(0.943759 0.0522792 0)
(0.964443 0.0568865 0)
(0.984403 0.0614008 0)
(1.00324 0.0657471 0)
(1.01987 0.0704101 0)
(1.03144 0.0737578 0)
(1.03475 0.079491 0)
(1.03535 0.0821997 0)
(1.03925 0.0841487 0)
(1.03958 0.0897968 0)
(1.04273 0.0912671 0)
(1.04608 0.0948708 0)
(1.0464 0.0996981 0)
(1.04741 0.101083 0)
(1.05065 0.104731 0)
(1.05259 0.107716 0)
(1.05602 0.109979 0)
(1.05943 0.112976 0)
(0.706157 0.00307277 -5.33487e-026)
(0.721659 0.00687413 0)
(0.738427 0.0118346 0)
(0.756334 0.0168563 0)
(0.77524 0.0218759 0)
(0.79499 0.0269341 0)
(0.815421 0.032044 0)
(0.83637 0.0371933 0)
(0.857666 0.0423653 0)
(0.879139 0.0475451 0)
(0.900612 0.0527192 0)
(0.921895 0.0578748 0)
(0.942767 0.062997 0)
(0.96296 0.0680513 0)
(0.982121 0.0729663 0)
(0.999887 0.0777098 0)
(1.01033 0.0840553 0)
(1.01687 0.0859256 0)
(1.02161 0.0902444 0)
(1.02222 0.0955034 0)
(1.02674 0.0973308 0)
(1.027 0.102738 0)
(1.02663 0.106047 0)
(1.03031 0.108158 0)
(1.03626 0.113422 0)
(1.038 0.115335 0)
(1.04099 0.119012 0)
(1.04298 0.122684 0)
(1.04338 0.125333 0)
(0.685129 0.00342297 0)
(0.700193 0.00762089 0)
(0.716567 0.0131253 0)
(0.734128 0.0186958 0)
(0.752736 0.0242632 0)
(0.77224 0.0298743 0)
(0.792479 0.0355443 0)
(0.813292 0.0412604 0)
(0.834511 0.0470057 0)
(0.855967 0.0527647 0)
(0.877482 0.0585232 0)
(0.898864 0.0642671 0)
(0.919892 0.0699765 0)
(0.940286 0.0756149 0)
(0.959649 0.081077 0)
(0.977432 0.0868682 0)
(0.99403 0.0904899 0)
(1.00133 0.0974789 0)
(1.00193 0.100803 0)
(1.00527 0.103828 0)
(1.00569 0.110796 0)
(1.00966 0.111821 0)
(1.01616 0.117101 0)
(1.01857 0.121533 0)
(1.01874 0.123644 0)
(1.02154 0.128547 0)
(1.0236 0.131848 0)
(1.02852 0.134618 0)
(1.03372 0.139577 0)
(0.663104 0.00380876 -6.60086e-026)
(0.67771 0.00843424 0)
(0.69367 0.0145343 0)
(0.710863 0.0207057 0)
(0.729152 0.0268735 0)
(0.748389 0.0330913 0)
(0.768415 0.0393766 0)
(0.789071 0.0457149 0)
(0.810193 0.0520871 0)
(0.831611 0.0584751 0)
(0.853152 0.0648608 0)
(0.874632 0.0712251 0)
(0.895851 0.0775442 0)
(0.9166 0.0837764 0)
(0.936723 0.0898187 0)
(0.956676 0.095332 0)
(0.971585 0.102841 0)
(0.979828 0.105684 0)
(0.984664 0.111817 0)
(0.987091 0.117106 0)
(0.993809 0.119546 0)
(0.99484 0.126299 0)
(0.995202 0.129148 0)
(0.999315 0.132292 0)
(1.00561 0.139157 0)
(1.00738 0.141374 0)
(1.01245 0.145105 0)
(1.0138 0.149389 0)
(1.01747 0.151261 6.07441e-026)
(0.640105 0.0042224 -2.22757e-027)
(0.654233 0.00930222 0)
(0.669758 0.0160388 0)
(0.686563 0.0228517 0)
(0.704514 0.0296603 0)
(0.723466 0.0365256 0)
(0.743267 0.0434668 0)
(0.76376 0.0504676 0)
(0.784788 0.0575058 0)
(0.806189 0.0645604 0)
(0.827802 0.07161 0)
(0.849457 0.0786306 0)
(0.870972 0.0855914 0)
(0.892143 0.092451 0)
(0.912724 0.0991291 0)
(0.93262 0.105833 0)
(0.952476 0.111137 0)
(0.960705 0.119847 0)
(0.965359 0.123474 0)
(0.969875 0.12717 0)
(0.970901 0.135117 0)
(0.976857 0.136328 0)
(0.983808 0.144346 0)
(0.98481 0.147711 0)
(0.986199 0.151069 0)
(0.992694 0.156644 0)
(0.996457 0.16006 0)
(1.00305 0.164464 0)
(1.00716 0.168729 1.19856e-027)
(0.616203 0.00465576 7.65117e-026)
(0.629834 0.0102129 0)
(0.644906 0.017619 0)
(0.661304 0.0251061 0)
(0.678899 0.0325888 0)
(0.697551 0.0401362 0)
(0.717113 0.0477698 0)
(0.737434 0.0554718 0)
(0.758359 0.063218 0)
(0.779735 0.0709861 0)
(0.801407 0.0787542 0)
(0.823213 0.0865003 0)
(0.844987 0.0941998 0)
(0.866552 0.101812 0)
(0.887722 0.109249 0)
(0.908432 0.116352 0)
(0.925322 0.125114 0)
(0.939548 0.129212 0)
(0.947024 0.137683 0)
(0.951024 0.142966 0)
(0.958553 0.146258 0)
(0.958327 0.154187 0)
(0.96174 0.156379 0)
(0.967505 0.162496 0)
(0.974929 0.168612 0)
(0.977104 0.170906 0)
(0.981684 0.176741 0)
(0.983973 0.179833 0)
(0.99044 0.184039 -6.94416e-026)
(0.591476 0.00510998 0)
(0.604592 0.0111673 0)
(0.61919 0.0192758 0)
(0.63516 0.0274707 0)
(0.652376 0.0356634 0)
(0.670705 0.0439326 0)
(0.690004 0.0523029 0)
(0.710126 0.0607557 0)
(0.730924 0.0692659 0)
(0.752247 0.0778107 0)
(0.773943 0.0863677 0)
(0.795851 0.094914 0)
(0.817796 0.103425 0)
(0.839585 0.111872 0)
(0.860996 0.120189 0)
(0.881947 0.12838 0)
(0.903699 0.135569 0)
(0.916887 0.146209 0)
(0.926512 0.148523 0)
(0.931653 0.154996 0)
(0.934364 0.163614 0)
(0.943154 0.165797 0)
(0.949533 0.175898 0)
(0.950601 0.17827 0)
(0.953143 0.182511 0)
(0.962598 0.189493 0)
(0.968178 0.192736 0)
(0.975419 0.199211 0)
(0.976003 0.201589 0)
(0.566014 0.00557548 0)
(0.578598 0.0121517 0)
(0.592701 0.0209856 0)
(0.608216 0.0299112 0)
(0.625024 0.0388387 0)
(0.642996 0.0478569 0)
(0.661994 0.056994 0)
(0.681879 0.0662306 0)
(0.702505 0.0755409 0)
(0.723729 0.0849009 0)
(0.745402 0.0942876 0)
(0.767372 0.103676 0)
(0.789473 0.113035 0)
(0.811532 0.122322 0)
(0.833367 0.131461 0)
(0.854854 0.140327 0)
(0.875147 0.149861 0)
(0.896308 0.155522 0)
(0.907156 0.167695 0)
(0.912692 0.171737 0)
(0.918629 0.177065 0)
(0.919241 0.184737 0)
(0.926447 0.187205 0)
(0.936502 0.1974 0)
(0.944163 0.202088 0)
(0.944362 0.205598 0)
(0.948952 0.211607 0)
(0.955822 0.215084 0)
(0.966571 0.223499 8.18795e-026)
(0.53994 0.00604538 0)
(0.551979 0.0131533 0)
(0.565567 0.0227252 0)
(0.580604 0.0323936 0)
(0.596974 0.042069 0)
(0.614557 0.0518511 0)
(0.63322 0.061771 0)
(0.65283 0.0718089 0)
(0.673247 0.0819376 0)
(0.694334 0.0921321 0)
(0.71595 0.102367 0)
(0.737951 0.112614 0)
(0.760187 0.122842 0)
(0.782508 0.133013 0)
(0.80479 0.143046 0)
(0.827074 0.152799 0)
(0.850531 0.162017 0)
(0.868765 0.173737 0)
(0.883618 0.176897 0)
(0.891488 0.188434 0)
(0.89737 0.195769 0)
(0.908533 0.201433 0)
(0.910757 0.2099 0)
(0.913495 0.212305 0)
(0.920837 0.218443 0)
(0.933689 0.228315 0)
(0.936636 0.230851 0)
(0.943166 0.23679 0)
(0.948601 0.239774 1.13152e-027)
(0.513397 0.00651209 0)
(0.524879 0.0141597 0)
(0.537938 0.0244728 0)
(0.552473 0.034886 0)
(0.568381 0.0453128 0)
(0.585543 0.0558636 0)
(0.603839 0.0665725 0)
(0.623138 0.077419 0)
(0.643311 0.0883751 0)
(0.664225 0.0994147 0)
(0.685751 0.110511 0)
(0.707753 0.121633 0)
(0.730097 0.132747 0)
(0.752647 0.143813 0)
(0.775281 0.154782 0)
(0.797932 0.165536 0)
(0.820782 0.176291 0)
(0.846351 0.185417 0)
(0.859281 0.200547 0)
(0.869933 0.202471 0)
(0.876188 0.211346 0)
(0.882296 0.219738 0)
(0.892648 0.224285 0)
(0.904778 0.236933 0)
(0.905244 0.238666 0)
(0.910015 0.243641 0)
(0.921356 0.251986 0)
(0.927128 0.255674 0)
(0.939275 0.264368 -1.87553e-025)
(0.486534 0.00697026 0)
(0.497454 0.0151621 0)
(0.50997 0.0262126 0)
(0.523986 0.0373661 0)
(0.539404 0.0485417 0)
(0.556119 0.0598609 0)
(0.574013 0.0713611 0)
(0.592966 0.0830216 0)
(0.612855 0.0948145 0)
(0.633557 0.106714 0)
(0.654948 0.118693 0)
(0.676902 0.130721 0)
(0.6993 0.142766 0)
(0.722016 0.154792 0)
(0.74494 0.166743 0)
(0.768015 0.178508 0)
(0.791581 0.190214 0)
(0.813496 0.20235 0)
(0.837466 0.210448 0)
(0.848119 0.226404 0)
(0.857459 0.22954 0)
(0.867651 0.238057 0)
(0.86875 0.245853 0)
(0.87873 0.249391 0)
(0.893908 0.263796 0)
(0.896584 0.266396 0)
(0.904357 0.271658 0)
(0.912924 0.279704 0)
(0.920549 0.281963 -9.57714e-028)
(0.459502 0.00741436 0)
(0.469857 0.0161521 0)
(0.481819 0.0279295 0)
(0.495297 0.0398123 0)
(0.510203 0.0517281 0)
(0.526437 0.0638098 0)
(0.543892 0.0760983 0)
(0.562455 0.0885738 0)
(0.582011 0.10121 0)
(0.602444 0.113982 0)
(0.623639 0.126864 0)
(0.645475 0.139825 0)
(0.667834 0.152835 0)
(0.690608 0.165867 0)
(0.713678 0.178876 0)
(0.736954 0.191773 0)
(0.760581 0.204476 0)
(0.786346 0.217147 0)
(0.804634 0.231273 0)
(0.827685 0.23761 0)
(0.834862 0.251209 0)
(0.845212 0.257643 0)
(0.859595 0.267261 0)
(0.85933 0.274855 0)
(0.867896 0.278035 0)
(0.882633 0.290897 0)
(0.889477 0.294431 0)
(0.898762 0.30053 0)
(0.909611 0.308907 1.07339e-025)
(0.432449 0.00783787 0)
(0.442242 0.0171199 0)
(0.453643 0.0296058 0)
(0.466567 0.0421982 0)
(0.480936 0.0548363 0)
(0.496659 0.0676643 0)
(0.513637 0.0807264 0)
(0.531765 0.0940041 0)
(0.550935 0.107472 0)
(0.57104 0.121108 0)
(0.59197 0.134886 0)
(0.613618 0.148778 0)
(0.635862 0.162753 0)
(0.6586 0.176775 0)
(0.681737 0.190807 0)
(0.705186 0.204773 0)
(0.72894 0.218653 0)
(0.753449 0.232436 0)
(0.781473 0.244723 0)
(0.797359 0.2625 0)
(0.817408 0.265561 0)
(0.821509 0.278529 0)
(0.8317 0.286315 0)
(0.850869 0.296348 0)
(0.851749 0.306351 0)
(0.860861 0.30813 0)
(0.875335 0.320059 0)
(0.882706 0.32457 0)
(0.893202 0.329998 1.15551e-025)
(0.405525 0.00823536 0)
(0.414761 0.0180571 0)
(0.425598 0.0312262 0)
(0.437958 0.0445013 0)
(0.45177 0.0578365 0)
(0.466955 0.0713867 0)
(0.483422 0.085199 0)
(0.501074 0.0992563 0)
(0.51981 0.113535 0)
(0.539531 0.128015 0)
(0.560134 0.14267 0)
(0.581526 0.157481 0)
(0.603599 0.172414 0)
(0.626242 0.187424 0)
(0.649375 0.202478 0)
(0.672948 0.217513 0)
(0.697001 0.232346 0)
(0.722082 0.247718 0)
(0.746949 0.261934 0)
(0.776496 0.274041 0)
(0.789448 0.293884 0)
(0.805731 0.295913 0)
(0.810842 0.3095 0)
(0.820956 0.317104 0)
(0.842776 0.326653 0)
(0.845043 0.337958 0)
(0.854977 0.339825 0)
(0.871942 0.351669 0)
(0.877987 0.354915 -1.22651e-025)
(0.378871 0.00860231 0)
(0.387559 0.0189571 0)
(0.397835 0.0327783 0)
(0.409621 0.0467037 0)
(0.422862 0.0607053 0)
(0.437486 0.0749481 0)
(0.453412 0.0894818 0)
(0.47055 0.104291 0)
(0.488809 0.119356 0)
(0.508095 0.134657 0)
(0.528314 0.150171 0)
(0.549377 0.165879 0)
(0.571198 0.181742 0)
(0.593681 0.197728 0)
(0.616745 0.2138 0)
(0.640336 0.229911 0)
(0.664483 0.245899 0)
(0.689551 0.26179 0)
(0.717131 0.278635 0)
(0.74056 0.293647 0)
(0.769384 0.30568 0)
(0.77916 0.325394 0)
(0.794783 0.327692 0)
(0.802824 0.341849 0)
(0.813159 0.349656 0)
(0.836625 0.358523 0)
(0.840136 0.370847 0)
(0.85169 0.372452 0)
(0.869675 0.38373 1.31184e-025)
(0.352617 0.00893497 0)
(0.360771 0.019814 0)
(0.37049 0.0342516 0)
(0.3817 0.0487901 0)
(0.394358 0.0634226 0)
(0.408403 0.0783234 0)
(0.423761 0.0935442 0)
(0.440351 0.109073 0)
(0.45809 0.124891 0)
(0.476893 0.140984 0)
(0.496679 0.157333 0)
(0.517364 0.173912 0)
(0.53887 0.190688 0)
(0.561106 0.207633 0)
(0.584007 0.224708 0)
(0.60753 0.241881 0)
(0.631682 0.25906 0)
(0.656559 0.276153 0)
(0.683013 0.29336 0)
(0.713586 0.31134 0)
(0.733665 0.328103 0)
(0.761692 0.339912 0)
(0.769303 0.357389 0)
(0.785784 0.361093 0)
(0.797515 0.376004 0)
(0.808152 0.384039 0)
(0.832788 0.392683 0)
(0.83748 0.404387 0)
(0.851471 0.407986 -2.78879e-025)
(0.326882 0.00923014 0)
(0.334519 0.0206226 0)
(0.34369 0.0356364 0)
(0.354326 0.0507466 0)
(0.366394 0.0659702 0)
(0.379844 0.0814895 0)
(0.39461 0.0973583 0)
(0.410622 0.113567 0)
(0.427802 0.130102 0)
(0.446076 0.146952 0)
(0.46537 0.164102 0)
(0.485608 0.181526 0)
(0.506728 0.199211 0)
(0.528651 0.217123 0)
(0.551308 0.23521 0)
(0.57466 0.253447 0)
(0.598711 0.271795 0)
(0.623585 0.290121 0)
(0.649348 0.308698 0)
(0.67746 0.327336 0)
(0.70994 0.345692 0)
(0.727107 0.364518 0)
(0.754839 0.375319 0)
(0.761628 0.391838 0)
(0.779098 0.396279 0)
(0.794364 0.411505 0)
(0.805146 0.420075 0)
(0.829616 0.426915 0)
(0.837651 0.440144 4.08515e-028)
(0.301774 0.00948512 0)
(0.308915 0.0213778 0)
(0.31755 0.0369236 0)
(0.327615 0.05256 0)
(0.339089 0.068331 0)
(0.351933 0.0844259 0)
(0.366091 0.1009 0)
(0.381496 0.117748 0)
(0.398083 0.134961 0)
(0.415783 0.152532 0)
(0.434529 0.17045 0)
(0.454255 0.188699 0)
(0.474907 0.207266 0)
(0.496432 0.226107 0)
(0.518749 0.245189 0)
(0.541826 0.264488 0)
(0.565653 0.283961 0)
(0.590293 0.303579 0)
(0.616233 0.323036 0)
(0.643273 0.343733 0)
(0.672473 0.362798 0)
(0.705729 0.381763 0)
(0.72127 0.401226 0)
(0.749094 0.41171 0)
(0.756065 0.427837 0)
(0.774662 0.433439 0)
(0.793595 0.449361 0)
(0.805314 0.457289 0)
(0.82872 0.464148 8.07913e-028)
(0.277388 0.00969759 0)
(0.284055 0.0220737 0)
(0.29217 0.0381029 0)
(0.301671 0.0542163 0)
(0.312553 0.070487 0)
(0.324784 0.08711 0)
(0.338316 0.104142 0)
(0.353092 0.121582 0)
(0.369051 0.139428 0)
(0.386134 0.157678 0)
(0.404283 0.176326 0)
(0.42344 0.195361 0)
(0.443552 0.21476 0)
(0.464593 0.23451 0)
(0.486494 0.254586 0)
(0.509206 0.274923 0)
(0.532723 0.295496 0)
(0.557086 0.316272 0)
(0.582489 0.337163 0)
(0.610286 0.358044 0)
(0.638664 0.380737 0)
(0.668293 0.400456 0)
(0.702154 0.41964 0)
(0.71683 0.439668 0)
(0.745358 0.450058 0)
(0.752771 0.465389 0)
(0.773218 0.47227 0)
(0.796234 0.488129 0)
(0.808437 0.495719 1.66646e-025)
(0.253809 0.00986555 0)
(0.260027 0.0227039 0)
(0.267639 0.0391634 0)
(0.276588 0.0557001 0)
(0.28688 0.0724186 0)
(0.298495 0.0895179 0)
(0.311389 0.107056 0)
(0.325514 0.125038 0)
(0.340816 0.143468 0)
(0.357244 0.16235 0)
(0.374748 0.181684 0)
(0.39328 0.201465 0)
(0.412794 0.221675 0)
(0.433259 0.242313 0)
(0.454665 0.263335 0)
(0.47694 0.2847 0)
(0.500078 0.306368 0)
(0.52411 0.32832 0)
(0.549205 0.350397 0)
(0.575715 0.372995 0)
(0.60616 0.395028 0)
(0.635187 0.420382 0)
(0.66545 0.440107 0)
(0.699174 0.459198 0)
(0.713969 0.480052 0)
(0.743591 0.489968 0)
(0.75153 0.505274 0)
(0.775508 0.513575 0)
(0.800958 0.526777 -1.7436e-025)
(0.231113 0.00998724 0)
(0.236907 0.0232613 0)
(0.244036 0.0400931 0)
(0.252445 0.0569951 0)
(0.262154 0.074105 0)
(0.273151 0.0916244 0)
(0.2854 0.109613 0)
(0.298856 0.128082 0)
(0.313475 0.147042 0)
(0.329212 0.166507 0)
(0.346024 0.186482 0)
(0.363875 0.206968 0)
(0.382728 0.227959 0)
(0.402553 0.249433 0)
(0.423362 0.271384 0)
(0.445124 0.293787 0)
(0.467807 0.316561 0)
(0.491444 0.339678 0)
(0.516142 0.363057 0)
(0.542277 0.386651 0)
(0.570255 0.41105 0)
(0.603422 0.434401 0)
(0.632864 0.462168 0)
(0.664349 0.481547 0)
(0.696459 0.50147 0)
(0.713976 0.522464 0)
(0.744773 0.531055 0)
(0.754734 0.548389 0)
(0.78212 0.555383 1.85744e-025)
(0.209363 0.0100612 0)
(0.214762 0.0237381 0)
(0.221429 0.040879 0)
(0.229313 0.0580836 0)
(0.238448 0.075524 0)
(0.248829 0.0934026 0)
(0.260425 0.111781 0)
(0.273198 0.130677 0)
(0.287109 0.150112 0)
(0.302121 0.170106 0)
(0.318199 0.190672 0)
(0.335315 0.21182 0)
(0.353444 0.233551 0)
(0.372567 0.255849 0)
(0.392681 0.278717 0)
(0.413824 0.302124 0)
(0.435971 0.326016 0)
(0.459142 0.350331 0)
(0.483427 0.375015 0)
(0.509031 0.399973 0)
(0.536636 0.425339 0)
(0.566409 0.451668 0)
(0.601928 0.476665 0)
(0.633015 0.506451 0)
(0.664076 0.524928 0)
(0.696797 0.547332 0)
(0.716934 0.565633 0)
(0.749579 0.57522 0)
(0.763172 0.592357 0)
(0.188618 0.0100863 0)
(0.193648 0.024126 0)
(0.199875 0.0415075 0)
(0.20725 0.0589477 0)
(0.215822 0.0766532 0)
(0.225591 0.0948256 0)
(0.236531 0.113529 0)
(0.248608 0.132789 0)
(0.261788 0.152638 0)
(0.276043 0.173103 0)
(0.291345 0.194209 0)
(0.307674 0.215972 0)
(0.325015 0.238404 0)
(0.343363 0.261502 0)
(0.362718 0.285253 0)
(0.383128 0.309652 0)
(0.404637 0.334671 0)
(0.427247 0.360231 0)
(0.451046 0.386273 0)
(0.476204 0.412693 0)
(0.502982 0.439533 0)
(0.532666 0.466932 0)
(0.564057 0.495128 0)
(0.602728 0.522624 0)
(0.634407 0.551998 0)
(0.666111 0.571742 0)
(0.701051 0.594289 0)
(0.723967 0.61105 0)
(0.758205 0.621758 2.01163e-025)
(0.168926 0.0100617 0)
(0.173615 0.0244169 0)
(0.179422 0.0419656 0)
(0.186307 0.0595701 0)
(0.194328 0.0774713 0)
(0.20349 0.0958681 0)
(0.213771 0.114827 0)
(0.225141 0.134384 0)
(0.237572 0.154581 0)
(0.25104 0.175456 0)
(0.265526 0.197043 0)
(0.281016 0.219371 0)
(0.297509 0.242459 0)
(0.31501 0.266317 0)
(0.333536 0.290941 0)
(0.353117 0.31632 0)
(0.373844 0.342454 0)
(0.395783 0.369294 0)
(0.418987 0.396742 0)
(0.443611 0.424756 0)
(0.469906 0.453076 0)
(0.498233 0.482366 0)
(0.530552 0.511231 0)
(0.56364 0.542587 0)
(0.605788 0.571013 0)
(0.638206 0.600164 0)
(0.672286 0.621974 0)
(0.710663 0.641992 0)
(0.735192 0.659473 -5.021e-027)
(0.150324 0.00998725 0)
(0.154699 0.0246035 0)
(0.16011 0.0422415 0)
(0.16652 0.059936 0)
(0.174003 0.0779603 0)
(0.182565 0.0965089 0)
(0.192187 0.115652 0)
(0.202843 0.135435 0)
(0.214508 0.155911 0)
(0.227163 0.177129 0)
(0.240796 0.199136 0)
(0.255401 0.221971 0)
(0.270985 0.245666 0)
(0.287567 0.270243 0)
(0.305176 0.295712 0)
(0.323855 0.322068 0)
(0.343677 0.349307 0)
(0.364782 0.377419 0)
(0.387277 0.406324 0)
(0.411259 0.435974 0)
(0.437011 0.4661 0)
(0.464707 0.496896 0)
(0.495491 0.528457 0)
(0.530381 0.559262 0)
(0.566281 0.594271 0)