/*--------------------------------*- C++ -*----------------------------------*\
| =========                 |                                                 |
| \\      /  F ield         | OpenFOAM: The Open Source CFD Toolbox           |
|  \\    /   O peration     | Version:  5.x                                   |
|   \\  /    A nd           | Web:      www.OpenFOAM.org                      |
|    \\/     M anipulation  |                                                 |
\*---------------------------------------------------------------------------*/
/*   Windows 32 and 64 bit porting by blueCAPE: http://www.bluecape.com.pt   *\
|  Based on Windows porting (2.0.x v4) by Symscape: http://www.symscape.com   |
\*---------------------------------------------------------------------------*/
FoamFile
{
    version     2.0;
    format      ascii;
    class       volScalarField;
    location    "260";
    object      epsilon;
}
// * * * * * * * * * * * * * * * * * * * * * * * * * * * * * * * * * * * * * //

dimensions      [0 2 -3 0 0 0 0];

internalField   nonuniform List<scalar> 
43900
(
0.00152925
0.00151909
0.00151979
0.00151971
0.00151968
0.00151966
0.00151967
0.00151967
0.00151967
0.00151968
0.00151968
0.00151968
0.00151968
0.00151968
0.00151968
0.00151968
0.00151968
0.00151968
0.00151969
0.00151969
0.00151969
0.00151969
0.00151969
0.00151969
0.00151969
0.00151969
0.00151969
0.00151969
0.00151969
0.000413585
3.81746e-005
3.16655e-005
3.15192e-005
3.27293e-005
3.27926e-005
3.28049e-005
3.27912e-005
3.27923e-005
3.2799e-005
3.27995e-005
3.27996e-005
3.28012e-005
3.2803e-005
3.28035e-005
3.28065e-005
3.28082e-005
3.28081e-005
3.28099e-005
3.281e-005
3.28101e-005
3.2812e-005
3.28118e-005
3.28121e-005
3.28134e-005
3.28128e-005
3.28135e-005
3.28148e-005
3.28142e-005
0.0508049
0.00574321
0.000288712
1.14336e-005
1.70737e-006
1.32762e-006
1.32664e-006
1.40972e-006
1.41881e-006
1.41781e-006
1.41702e-006
1.41716e-006
1.41747e-006
1.41774e-006
1.41806e-006
1.41845e-006
1.41858e-006
1.41878e-006
1.41908e-006
1.41922e-006
1.41945e-006
1.41965e-006
1.41973e-006
1.41992e-006
1.42003e-006
1.4201e-006
1.42027e-006
1.42032e-006
1.42035e-006
0.146303
0.0436391
0.00962747
0.00130964
8.26427e-005
3.37712e-006
3.39938e-007
1.22313e-007
1.08334e-007
1.15703e-007
1.19949e-007
1.20112e-007
1.19576e-007
1.19504e-007
1.19646e-007
1.19691e-007
1.19696e-007
1.19734e-007
1.19774e-007
1.19802e-007
1.19829e-007
1.19855e-007
1.1988e-007
1.19902e-007
1.19919e-007
1.19937e-007
1.19955e-007
1.19969e-007
1.19983e-007
0.197996
0.0846503
0.0339216
0.0112786
0.00265662
0.000358736
2.25687e-005
9.66699e-007
8.39988e-008
2.21592e-008
1.64776e-008
1.73259e-008
1.84985e-008
1.85996e-008
1.84094e-008
1.84223e-008
1.84794e-008
1.84704e-008
1.84703e-008
1.84797e-008
1.84883e-008
1.84936e-008
1.8497e-008
1.85012e-008
1.85054e-008
1.85085e-008
1.85124e-008
1.8516e-008
1.85175e-008
0.222874
0.10918
0.0533177
0.0251071
0.0105015
0.00331657
0.00070457
7.65553e-005
4.17673e-006
1.94954e-007
1.85483e-008
5.40697e-009
4.10072e-009
4.46612e-009
4.75373e-009
4.70612e-009
4.64605e-009
4.67532e-009
4.6848e-009
4.67679e-009
4.67455e-009
4.67618e-009
4.67767e-009
4.67885e-009
4.6798e-009
4.68081e-009
4.6818e-009
4.68278e-009
4.6837e-009
0.23456
0.123822
0.0661981
0.0353389
0.0183852
0.00891444
0.00355667
0.000969018
0.0001508
1.13352e-005
5.74411e-007
3.10882e-008
4.21796e-009
1.70393e-009
1.54008e-009
1.69089e-009
1.73939e-009
1.70012e-009
1.69982e-009
1.71073e-009
1.71108e-009
1.70967e-009
1.70995e-009
1.71046e-009
1.71102e-009
1.71141e-009
1.71183e-009
1.71238e-009
1.71261e-009
0.237813
0.131454
0.0740005
0.0420782
0.0238673
0.0132402
0.00692581
0.00315087
0.00102211
0.000210326
2.16695e-005
1.30037e-006
7.11486e-008
5.03625e-009
1.16066e-009
7.29628e-010
7.56293e-010
8.14869e-010
8.03498e-010
7.96072e-010
8.02176e-010
8.05314e-010
8.04934e-010
8.04775e-010
8.04996e-010
8.05254e-010
8.05439e-010
8.05648e-010
8.05774e-010
0.237305
0.135775
0.0792905
0.0470003
0.0280565
0.0166822
0.0097148
0.00538311
0.00268017
0.00101397
0.000243073
3.06057e-005
2.14167e-006
1.2718e-007
8.14428e-009
1.03208e-009
4.65058e-010
4.17793e-010
4.57284e-010
4.53941e-010
4.44908e-010
4.46221e-010
4.48456e-010
4.49003e-010
4.49064e-010
4.4916e-010
4.49281e-010
4.49506e-010
4.49653e-010
0.233052
0.136368
0.0816567
0.0497936
0.0307451
0.0190821
0.0117853
0.00713394
0.00412595
0.00216757
0.000909095
0.000239624
3.41958e-005
2.70056e-006
1.75048e-007
1.16038e-008
1.08839e-009
3.56946e-010
2.63385e-010
2.87387e-010
2.93601e-010
2.87901e-010
2.85661e-010
2.86329e-010
2.86859e-010
2.87055e-010
2.87182e-010
2.87277e-010
2.87296e-010
0.226032
0.134687
0.0820778
0.0510427
0.0322401
0.0205731
0.0131716
0.00838015
0.00522254
0.0031126
0.0016947
0.00075667
0.000210325
3.21254e-005
2.76133e-006
1.94099e-007
1.36799e-008
1.18477e-009
2.91134e-010
1.90238e-010
1.99236e-010
2.09208e-010
2.0653e-010
2.04552e-010
2.04278e-010
2.04325e-010
2.04387e-010
2.04466e-010
2.04582e-010
0.218236
0.131966
0.0816616
0.0515806
0.0331433
0.0215721
0.0141502
0.00929178
0.00605118
0.00385367
0.00234487
0.00130523
0.000601718
0.000170483
2.67342e-005
2.43997e-006
1.85646e-007
1.41021e-008
1.23589e-009
2.44095e-010
1.47514e-010
1.45591e-010
1.53901e-010
1.54302e-010
1.53582e-010
1.53586e-010
1.53666e-010
1.53706e-010
1.53731e-010
0.209585
0.128357
0.0804549
0.0514756
0.0335461
0.0221819
0.0148217
0.00995726
0.00668073
0.00443487
0.00287204
0.00177284
0.000998768
0.000464804
0.000130943
2.06083e-005
1.98985e-006
1.65309e-007
1.37255e-008
1.26477e-009
2.19842e-010
1.20513e-010
1.06756e-010
1.14766e-010
1.16766e-010
1.16349e-010
1.16268e-010
1.16354e-010
1.16536e-010
0.200172
0.123957
0.0785671
0.0508709
0.0335317
0.022469
0.0152422
0.010425
0.00715238
0.00488898
0.00329789
0.00216398
0.0013487
0.000763183
0.000352524
9.71239e-005
1.52104e-005
1.559e-006
1.42186e-007
1.29612e-008
1.27559e-009
2.05817e-010
1.0158e-010
8.21653e-011
8.61951e-011
8.83451e-011
8.83219e-011
8.8275e-011
8.83229e-011
0.190217
0.118948
0.0761428
0.0498054
0.0332076
0.0224901
0.0154531
0.0107266
0.00749092
0.00523545
0.00363653
0.00248574
0.00164724
0.00103201
0.000582364
0.000262877
7.00469e-005
1.08915e-005
1.18751e-006
1.18417e-007
1.17785e-008
1.24342e-009
1.95464e-010
8.58876e-011
6.70234e-011
6.765e-011
6.91534e-011
6.92715e-011
6.93067e-011
0.179903
0.113505
0.0733079
0.0483965
0.0325804
0.0223113
0.015492
0.0108908
0.00771888
0.00549212
0.00390185
0.00274793
0.0018988
0.00126718
0.000795064
0.000444669
0.000193206
4.95201e-005
7.68926e-006
8.95201e-007
9.75743e-008
1.06203e-008
1.20984e-009
1.8934e-010
7.45071e-011
5.78369e-011
5.60656e-011
5.69745e-011
5.72359e-011
0.169326
0.107727
0.0701571
0.0467109
0.0317291
0.0219363
0.0153962
0.0109396
0.00785331
0.00567246
0.00410444
0.00295849
0.00210843
0.00146972
0.000985418
0.000617279
0.000340437
0.00014047
3.45618e-005
5.40785e-006
6.75776e-007
8.01977e-008
9.46423e-009
1.15579e-009
1.83143e-010
6.77406e-011
5.22929e-011
4.89373e-011
4.95364e-011
0.15859
0.1017
0.066758
0.044807
0.0306896
0.021407
0.0151711
0.0108931
0.00790651
0.00578545
0.00425093
0.00312219
0.00227898
0.00164026
0.00115087
0.000773158
0.000481706
0.000260199
9.99924e-005
2.3634e-005
3.75336e-006
5.00648e-007
6.39314e-008
8.09198e-009
1.05596e-009
1.74646e-010
6.35922e-011
4.90357e-011
4.57309e-011
0.147804
0.095512
0.0631763
0.0427332
0.0295036
0.0207512
0.014838
0.0107608
0.00789049
0.00584101
0.00434904
0.00324485
0.00241474
0.00178158
0.00129245
0.000910814
0.00061149
0.000377534
0.000198445
6.93505e-005
1.57888e-005
2.56182e-006
3.64916e-007
5.02177e-008
6.84009e-009
9.55345e-010
1.66264e-010
6.1249e-011
4.66892e-011
0.137072
0.089244
0.0594731
0.0405345
0.0282037
0.0199968
0.0144192
0.0105517
0.00781768
0.00584385
0.00440368
0.00333112
0.00251966
0.00189665
0.0014119
0.00103043
0.000727784
0.000487027
0.000296919
0.000151195
4.85597e-005
1.05256e-005
1.75156e-006
2.655e-007
3.91274e-008
5.7004e-009
8.49463e-010
1.5689e-010
5.91516e-011
0.126499
0.082976
0.055707
0.0382535
0.026821
0.0191665
0.0139334
0.0102839
0.00768915
0.00581024
0.00442279
0.00338585
0.00259691
0.00198762
0.00151052
0.00113235
0.000829633
0.000585811
0.000389448
0.000233104
0.000112513
3.36989e-005
7.06184e-006
1.21106e-006
1.93638e-007
3.01626e-008
4.65466e-009
7.402e-010
1.454e-010
0.116184
0.0767811
0.0519321
0.0359299
0.0253847
0.0182819
0.0133972
0.00997038
0.00752031
0.00573575
0.00441134
0.00341441
0.00265136
0.00205853
0.0015915
0.00121887
0.000918328
0.00067393
0.000474395
0.000311963
0.00018175
8.11708e-005
2.29496e-005
4.7477e-006
8.44302e-007
1.4224e-007
2.33721e-008
3.80995e-009
6.33128e-010
0.106208
0.0707225
0.0481956
0.0335987
0.0239207
0.0173625
0.012825
0.00962274
0.00731943
0.00563235
0.00437463
0.0034186
0.00268466
0.00211104
0.00165638
0.00129134
0.000994887
0.000751879
0.000551409
0.000385758
0.000249731
0.000140318
5.68019e-005
1.52713e-005
3.16378e-006
5.86198e-007
1.04055e-007
1.80595e-008
3.05177e-009
0.0966396
0.0648528
0.0445368
0.0312892
0.0224509
0.0164248
0.0122298
0.00925113
0.0070956
0.00550723
0.00431606
0.00340775
0.00270371
0.00215027
0.00170907
0.00135273
0.00106153
0.00082116
0.000621194
0.000454114
0.000314657
0.000199449
0.000106785
3.85649e-005
9.97109e-006
2.10168e-006
4.07596e-007
7.64328e-008
1.37535e-008
0.0875334
0.0592139
0.0409877
0.0290254
0.0209935
0.0154824
0.0116219
0.00886349
0.00685495
0.00536573
0.00424238
0.00338076
0.00270787
0.00217679
0.00175078
0.00140456
0.00111983
0.000883206
0.000684869
0.000517632
0.000376331
0.000257444
0.000158891
7.99578e-005
2.64045e-005
6.62608e-006
1.42992e-006
2.90127e-007
5.59781e-008
0.0789277
0.0538372
0.0375725
0.0268259
0.0195626
0.0145463
0.0110097
0.00846644
0.00660276
0.00521219
0.00415654
0.00334172
0.00270282
0.00219432
0.00178408
0.00144874
0.00117128
0.00093922
0.000743351
0.000576864
0.000434783
0.000313589
0.000210988
0.000125837
5.82688e-005
1.81456e-005
4.49684e-006
9.97295e-007
2.06474e-007
0.070849
0.0487455
0.0343097
0.0247051
0.0181691
0.0136248
0.0103996
0.00806503
0.00634306
0.00504989
0.00406194
0.00329476
0.00268972
0.00220464
0.00181085
0.00148698
0.00121738
0.000990485
0.000797702
0.000632628
0.000490522
0.000367945
0.00026253
0.00017287
9.84965e-005
4.14595e-005
1.24182e-005
3.09344e-006
6.92473e-007
0.0633121
0.0439537
0.0312121
0.0226732
0.0168214
0.0127244
0.0097967
0.00766315
0.0060789
0.00488127
0.00396028
0.00324038
0.00266877
0.00220791
0.0018317
0.00152018
0.00125915
0.00103803
0.000848894
0.0006858
0.000544283
0.000421046
0.000313732
0.000220788
0.000141597
7.60677e-005
2.90678e-005
8.51811e-006
2.11166e-006
0.0563227
0.0394703
0.028288
0.0207376
0.0155252
0.0118497
0.00920465
0.00726367
0.00581254
0.0047081
0.00385306
0.00318023
0.00264242
0.00220618
0.00184771
0.00154907
0.00129722
0.00108247
0.000897558
0.000736977
0.000596587
0.00047328
0.000364783
0.000269515
0.000186644
0.000115842
5.78998e-005
2.05884e-005
5.82846e-006
0.0498781
0.0352985
0.0255422
0.0189031
0.0142849
0.0110043
0.00862624
0.00686878
0.00554565
0.00453169
0.00374135
0.00311527
0.00261163
0.00220062
0.00186007
0.0015746
0.00133234
0.00112444
0.000944229
0.000786642
0.000647851
0.000524963
0.000415831
0.00031892
0.000233277
0.000158562
9.44672e-005
4.35205e-005
1.44982e-005
0.0439691
0.031437
0.0229766
0.0171725
0.0131033
0.0101906
0.00806348
0.00648007
0.00527948
0.00435298
0.00362585
0.00304592
0.00257626
0.00219028
0.00186856
0.00159696
0.00136489
0.00116437
0.000989366
0.000835254
0.000698523
0.000576504
0.000467196
0.000369149
0.000281389
0.000203505
0.000135224
7.6981e-005
3.18353e-005
0.0385813
0.027881
0.0205907
0.015547
0.0119821
0.00941027
0.00751788
0.00609873
0.00501492
0.00417263
0.003507
0.00297249
0.00253665
0.00217604
0.00187348
0.00161629
0.001395
0.00120247
0.00103323
0.000883128
0.000748956
0.000628274
0.000519241
0.000420505
0.000331128
0.000250636
0.000178774
0.000116204
6.12332e-005
0.0336958
0.0246229
0.0183821
0.0140266
0.0109222
0.00866462
0.00699052
0.00572565
0.00475263
0.00399108
0.00338507
0.00289509
0.00249282
0.00215765
0.00187433
0.00163234
0.00142258
0.00123872
0.00107591
0.000930412
0.000799353
0.000680524
0.000572248
0.000473285
0.000382758
0.000300168
0.000225247
0.000158722
9.89982e-005
0.0292907
0.0216531
0.0163472
0.0126105
0.00992412
0.00795439
0.00648225
0.00536155
0.00449315
0.00380866
0.00326021
0.00281376
0.00244475
0.00213523
0.00187201
0.00164528
0.00144751
0.00127296
0.00111726
0.000977037
0.000849723
0.000733333
0.000626357
0.000527674
0.000436485
0.000352303
0.000274878
0.000204572
0.000141685
0.0253415
0.0189602
0.0144812
0.011297
0.00898767
0.00728013
0.00599378
0.00500708
0.00423694
0.00362567
0.00313256
0.00272849
0.00239233
0.0021086
0.00186583
0.00165491
0.00146968
0.00130506
0.00115713
0.00102287
0.000899984
0.000786678
0.000681604
0.00058376
0.000492435
0.000407181
0.000327783
0.000254316
0.000187913
0.0218218
0.0165315
0.0127783
0.0100842
0.00811252
0.00664222
0.00552572
0.00466283
0.0039845
0.00344241
0.00300224
0.00263924
0.00233535
0.00207721
0.00185481
0.00166051
0.0014886
0.00133466
0.00119526
0.00106773
0.000950008
0.000840496
0.000737994
0.000641609
0.000550717
0.000464929
0.000384072
0.000308137
0.00023811
0.0187039
0.0143533
0.0112323
0.00896948
0.00729801
0.0060409
0.00507865
0.00432941
0.00373632
0.00325924
0.00286942
0.002546
0.00227363
0.00204085
0.00183896
0.00166122
0.00150352
0.00136117
0.00123119
0.00111127
0.000999561
0.000894663
0.000795498
0.000701278
0.00061146
0.000525715
0.000443919
0.000366094
0.000292831
0.0159593
0.012411
0.00983604
0.00794977
0.00654328
0.0054763
0.00465311
0.00400748
0.00349298
0.00307654
0.00273431
0.0024488
0.00220706
0.00199935
0.00181826
0.00165814
0.00151465
0.00138438
0.00126459
0.00115314
0.00104837
0.000949006
0.000854062
0.000762829
0.000674827
0.00058978
0.000507609
0.000428396
0.000352491
0.0135587
0.0106894
0.00858201
0.00702175
0.00584715
0.0049484
0.00424959
0.00369768
0.00325509
0.00289482
0.00259721
0.00234775
0.00213558
0.00195247
0.00179217
0.0016499
0.00152121
0.00140372
0.00129494
0.0011929
0.00109609
0.00100329
0.000913593
0.000826319
0.000741021
0.000657454
0.000575569
0.000495498
0.000417536
0.0114729
0.00917267
0.00746208
0.00618159
0.00520821
0.00445703
0.00386854
0.00340067
0.00302332
0.00271463
0.00245853
0.00224304
0.00205914
0.00189991
0.00176001
0.00163514
0.00152161
0.00141807
0.00132137
0.00122987
0.00114217
0.00105714
0.000973901
0.000891764
0.000810267
0.000729154
0.000648375
0.00056809
0.000488621
0.0096724
0.00784471
0.00646767
0.00542505
0.0046247
0.00400181
0.00351028
0.00311711
0.0027984
0.00253661
0.00231873
0.00213496
0.00197783
0.00184157
0.00172167
0.00161454
0.00151728
0.00142747
0.00134341
0.00126337
0.00118596
0.00111004
0.00103467
0.000959095
0.000882774
0.000805368
0.000726767
0.000647106
0.000566742
0.00812839
0.00668909
0.00558974
0.0047475
0.00409453
0.00358213
0.00317502
0.0028476
0.00258107
0.00236151
0.00217845
0.00202394
0.00189186
0.00177743
0.00167689
0.00158723
0.00150605
0.00143025
0.00135983
0.00129235
0.00122653
0.00116119
0.00109533
0.00102805
0.000958648
0.000886602
0.000811639
0.000733775
0.000653333
0.00681264
0.00568938
0.00481896
0.00414387
0.00361528
0.00319713
0.00286282
0.00259269
0.00237212
0.00219016
0.00203845
0.00191061
0.00180166
0.00170769
0.00162557
0.00155276
0.00148713
0.00142659
0.00136996
0.0013158
0.00126273
0.0012095
0.00115496
0.00109803
0.00103772
0.000973218
0.000903924
0.000829572
0.000750303
0.00569806
0.00482935
0.00414584
0.00360888
0.00318425
0.00284577
0.00257364
0.00235295
0.00217247
0.00202361
0.00189982
0.00179597
0.00170808
0.00163298
0.0015681
0.00151134
0.00146097
0.00141556
0.00137252
0.0013325
0.00129327
0.00125361
0.00121227
0.00116795
0.00111933
0.00106515
0.0010043
0.000935971
0.000859858
0.00475905
0.00409331
0.00356094
0.0031371
0.00279862
0.00252691
0.00230745
0.0021291
0.00198327
0.00186333
0.00176414
0.00168165
0.00161269
0.00155472
0.00150568
0.00146389
0.00142792
0.00139653
0.00136831
0.00134219
0.00131728
0.00129228
0.00126581
0.00123636
0.00120224
0.00116167
0.00111282
0.00105399
0.000984049
0.00397193
0.00346644
0.0030552
0.00272324
0.00245565
0.00223954
0.00206449
0.00192222
0.00180626
0.00171149
0.0016339
0.00157031
0.00151822
0.00147562
0.00144091
0.00141278
0.00139012
0.00137197
0.00135754
0.00134516
0.00133476
0.00132502
0.00131461
0.00130191
0.00128488
0.00126138
0.00122874
0.00118385
0.00112423
0.00331526
0.00293512
0.00262021
0.00236244
0.00215293
0.00198307
0.00184548
0.0017341
0.00164404
0.00157135
0.00151287
0.0014661
0.00142907
0.00140021
0.00137833
0.00136241
0.00135178
0.00134559
0.0013435
0.00134457
0.00134784
0.00135319
0.00135924
0.00136443
0.0013661
0.0013629
0.00135124
0.00132529
0.00128094
0.00277012
0.0024872
0.00224849
0.00205048
0.00188867
0.00175754
0.00165197
0.00156752
0.00150044
0.00144761
0.0014065
0.00137508
0.00135174
0.00133532
0.00132495
0.00131984
0.00132003
0.00132412
0.00133313
0.00134618
0.00136192
0.00138118
0.00140313
0.00142647
0.00144906
0.00146838
0.00147952
0.00147578
0.00145405
0.00232028
0.00211224
0.00193367
0.00178402
0.00166185
0.00156383
0.00148645
0.00142637
0.00138064
0.00134662
0.00132216
0.0013055
0.00129524
0.0012905
0.00129089
0.00129535
0.00130486
0.00131864
0.00133668
0.00135861
0.00138567
0.00141737
0.00145402
0.0014948
0.00153822
0.00158156
0.00162022
0.00164476
0.00164301
0.00195211
0.00180148
0.00167057
0.00156058
0.00147218
0.00140355
0.00135226
0.00131564
0.00129123
0.00127642
0.00126935
0.00126827
0.00127157
0.00127888
0.00128968
0.00130295
0.00131973
0.00134043
0.00136581
0.00139662
0.00143367
0.00147663
0.00152656
0.00158351
0.00164699
0.00171462
0.00178291
0.00183997
0.00186978
0.00165433
0.00154764
0.00145491
0.00137831
0.00131987
0.00127876
0.00125332
0.00124108
0.00124006
0.00124691
0.00126024
0.00127681
0.001295
0.00131476
0.00133599
0.00135908
0.00138464
0.00141346
0.0014467
0.00148574
0.00153183
0.00158559
0.00164777
0.00171996
0.00180269
0.00189443
0.00199411
0.00208612
0.00215917
0.00141747
0.00134451
0.001283
0.00123554
0.00120509
0.00119144
0.00119371
0.00120901
0.00123603
0.00126952
0.00130757
0.00134787
0.00138837
0.00142771
0.00146562
0.00150278
0.00154036
0.00157984
0.00162299
0.00167184
0.00172835
0.00179427
0.00187086
0.00196008
0.00206329
0.002181
0.00231535
0.00244503
0.00257786
0.00123332
0.00118646
0.00115122
0.00113036
0.0011276
0.00114305
0.00117698
0.00122622
0.00128823
0.00135998
0.00143736
0.00151635
0.00159361
0.00166664
0.00173444
0.00179762
0.00185797
0.00191778
0.00197981
0.00204711
0.00212267
0.00220963
0.0023099
0.00242794
0.00256284
0.00272206
0.00290561
0.0030869
0.00331861
0.00109437
0.001068
0.00105566
0.00106024
0.00108591
0.00113486
0.00120643
0.00129997
0.00141369
0.00154353
0.00168419
0.00182969
0.00197425
0.00211306
0.00224317
0.00236434
0.00247889
0.00258989
0.00270154
0.00281873
0.00294614
0.00308968
0.00325082
0.00344236
0.00364906
0.00390834
0.00418227
0.00448607
0.00491114
0.000993539
0.000983634
0.000991963
0.00102174
0.00107887
0.00116601
0.00128612
0.0014405
0.00162841
0.00184703
0.0020911
0.00235323
0.00262502
0.00289848
0.00316757
0.00342891
0.00368426
0.00393883
0.00419926
0.00447433
0.00477296
0.00510846
0.00548097
0.00593107
0.00638955
0.00702286
0.00755941
0.00841954
0.00924574
0.000924138
0.000927766
0.000955477
0.00101149
0.00110304
0.00123649
0.00141817
0.00165359
0.00194687
0.00229941
0.00270912
0.00317025
0.00367442
0.00421245
0.00477678
0.00536347
0.00597336
0.00661621
0.00731011
0.00807549
0.00893979
0.00994137
0.0110999
0.0125354
0.0140841
0.0163332
0.0181938
0.0222553
0.0241763
0.000879962
0.000894947
0.000941678
0.00102495
0.00115532
0.00134329
0.00160118
0.00194228
0.00237975
0.00292486
0.00358541
0.00436491
0.00526317
0.00627859
0.00741166
0.00866905
0.0100674
0.0116364
0.0134218
0.0154935
0.017954
0.0209243
0.0245765
0.0292002
0.0348874
0.0428806
0.0515322
0.0694617
0.079053
0.000855583
0.000880257
0.000945953
0.0010578
0.00123099
0.00148172
0.00183113
0.00230428
0.00292936
0.00373575
0.00475209
0.00600492
0.00751906
0.00932035
0.0114409
0.0139261
0.0168433
0.0202899
0.0244086
0.0293926
0.0355373
0.0431987
0.0530642
0.0657547
0.0830028
0.10608
0.13935
0.192576
0.244925
0.000847108
0.000879982
0.000964916
0.00110639
0.00132594
0.00164706
0.00210258
0.00273405
0.00359202
0.00473503
0.00622831
0.00814305
0.0105576
0.0135617
0.0172652
0.0218098
0.0273867
0.0342545
0.0427792
0.0534465
0.0670161
0.0843712
0.107389
0.137423
0.180629
0.237065
0.333616
0.455116
0.655188
0.00151969
0.00151969
0.00151969
0.00151969
0.00151969
0.00151969
0.00151969
0.00151969
0.00151969
0.00151969
0.00151969
0.00151969
0.00151969
0.00151969
0.00151969
0.00151969
0.0015197
0.0015197
0.0015197
0.0015197
0.0015197
0.0015197
0.0015197
0.0015197
0.0015197
0.0015197
0.0015197
0.0015197
0.0015197
0.0015197
0.0015197
0.0015197
0.0015197
0.0015197
0.0015197
0.0015197
0.0015197
0.0015197
0.0015197
0.0015197
0.0015197
0.0015197
0.0015197
0.0015197
0.0015197
0.0015197
0.0015197
0.0015197
0.0015197
0.0015197
0.0015197
0.0015197
0.0015197
0.0015197
0.0015197
0.0015197
0.0015197
0.0015197
0.0015197
0.0015197
0.0015197
0.0015197
0.0015197
0.0015197
0.0015197
0.0015197
0.0015197
0.0015197
0.0015197
0.0015197
0.0015197
0.0015197
0.0015197
0.00151971
0.0015197
0.00151971
0.00151971
0.00151971
0.00151971
0.00151971
0.00151971
0.00151971
0.00151971
0.00151971
0.00151971
0.00151971
0.00151971
0.00151971
0.00151971
0.00151971
0.00151971
0.00151971
0.00151971
0.00151971
0.00151971
0.00151971
0.00151971
0.00151971
0.00151971
0.00151971
0.00151971
0.00151971
0.00151971
0.00151971
0.00151971
0.00151971
0.00151971
0.00151971
0.00151971
0.00151971
0.00151971
0.00151971
0.00151971
0.00151971
0.00151971
0.00151971
0.00151971
0.00151971
0.00151971
0.00151971
0.00151971
0.00151971
0.00151971
0.00151971
0.00151971
0.00151971
0.00151971
0.00151971
0.00151971
0.00151971
0.00151971
0.00151971
0.00151971
0.00151972
0.00151972
0.00151972
0.00151972
0.00151973
0.00154205
3.28154e-005
3.28161e-005
3.28139e-005
3.28135e-005
3.28174e-005
3.28203e-005
3.28183e-005
3.2814e-005
3.28132e-005
3.28171e-005
3.28212e-005
3.28207e-005
3.28152e-005
3.28117e-005
3.28129e-005
3.28194e-005
3.28252e-005
3.28276e-005
3.28283e-005
3.28288e-005
3.28294e-005
3.283e-005
3.28303e-005
3.28303e-005
3.28298e-005
3.28283e-005
3.28256e-005
3.28235e-005
3.28229e-005
3.28236e-005
3.28251e-005
3.28261e-005
3.28268e-005
3.28274e-005
3.28278e-005
3.2828e-005
3.28283e-005
3.28286e-005
3.28287e-005
3.28287e-005
3.28286e-005
3.28283e-005
3.2828e-005
3.2828e-005
3.28283e-005
3.28287e-005
3.28291e-005
3.28295e-005
3.28298e-005
3.28301e-005
3.28304e-005
3.28306e-005
3.28308e-005
3.2831e-005
3.28312e-005
3.28314e-005
3.28315e-005
3.28317e-005
3.28318e-005
3.28321e-005
3.28322e-005
3.28325e-005
3.28328e-005
3.28329e-005
3.28332e-005
3.28334e-005
3.28337e-005
3.28338e-005
3.28342e-005
3.28342e-005
3.28345e-005
3.28349e-005
3.28344e-005
3.28356e-005
3.28349e-005
3.28356e-005
3.28357e-005
3.28357e-005
3.28363e-005
3.28359e-005
3.28366e-005
3.28364e-005
3.28373e-005
3.28377e-005
3.28379e-005
3.28381e-005
3.28381e-005
3.28385e-005
3.28384e-005
3.28388e-005
3.28389e-005
3.28391e-005
3.28392e-005
3.28393e-005
3.28394e-005
3.28395e-005
3.28394e-005
3.28396e-005
3.28395e-005
3.28396e-005
3.28396e-005
3.28395e-005
3.28395e-005
3.28394e-005
3.28394e-005
3.28392e-005
3.28392e-005
3.2839e-005
3.28389e-005
3.28387e-005
3.28385e-005
3.28382e-005
3.28379e-005
3.28375e-005
3.28372e-005
3.28368e-005
3.28363e-005
3.28359e-005
3.28357e-005
3.28358e-005
3.28359e-005
3.28361e-005
3.28365e-005
3.28371e-005
3.28376e-005
3.2838e-005
3.28385e-005
3.28392e-005
3.28396e-005
3.28407e-005
3.28417e-005
3.28431e-005
3.28435e-005
3.28484e-005
3.28459e-005
3.28519e-005
3.28603e-005
3.28641e-005
3.38859e-005
1.4205e-006
1.42053e-006
1.42052e-006
1.42073e-006
1.42096e-006
1.42085e-006
1.42064e-006
1.42065e-006
1.42093e-006
1.42124e-006
1.42117e-006
1.42091e-006
1.42072e-006
1.42094e-006
1.4213e-006
1.42166e-006
1.42174e-006
1.42183e-006
1.42194e-006
1.42205e-006
1.42213e-006
1.42219e-006
1.42223e-006
1.42222e-006
1.42216e-006
1.42206e-006
1.42204e-006
1.42211e-006
1.42216e-006
1.42221e-006
1.42225e-006
1.4223e-006
1.42235e-006
1.42242e-006
1.42248e-006
1.42254e-006
1.42261e-006
1.42267e-006
1.42273e-006
1.42278e-006
1.42284e-006
1.42291e-006
1.42297e-006
1.42304e-006
1.4231e-006
1.42315e-006
1.42321e-006
1.42326e-006
1.42331e-006
1.42336e-006
1.42341e-006
1.42346e-006
1.42351e-006
1.42356e-006
1.42361e-006
1.42366e-006
1.42371e-006
1.42375e-006
1.42379e-006
1.42384e-006
1.42388e-006
1.42393e-006
1.42398e-006
1.42403e-006
1.42407e-006
1.42412e-006
1.42417e-006
1.42422e-006
1.42426e-006
1.42431e-006
1.42436e-006
1.42439e-006
1.42446e-006
1.42449e-006
1.42454e-006
1.42458e-006
1.42463e-006
1.42467e-006
1.42471e-006
1.42477e-006
1.42478e-006
1.42484e-006
1.42486e-006
1.42488e-006
1.42492e-006
1.42495e-006
1.425e-006
1.42502e-006
1.42505e-006
1.42506e-006
1.42508e-006
1.42509e-006
1.4251e-006
1.42512e-006
1.42513e-006
1.42514e-006
1.42516e-006
1.42516e-006
1.42517e-006
1.42518e-006
1.42518e-006
1.42518e-006
1.42518e-006
1.42517e-006
1.42516e-006
1.42515e-006
1.42513e-006
1.42511e-006
1.42509e-006
1.42506e-006
1.42503e-006
1.42499e-006
1.42494e-006
1.42489e-006
1.42484e-006
1.42479e-006
1.42472e-006
1.42467e-006
1.42463e-006
1.4246e-006
1.42457e-006
1.42454e-006
1.42451e-006
1.4245e-006
1.42445e-006
1.42442e-006
1.42438e-006
1.42429e-006
1.42432e-006
1.42433e-006
1.42425e-006
1.42445e-006
1.42432e-006
1.42481e-006
1.42461e-006
1.42742e-006
1.36078e-006
1.34067e-006
7.28909e-006
1.19998e-007
1.20017e-007
1.20034e-007
1.20045e-007
1.20054e-007
1.20067e-007
1.20085e-007
1.20108e-007
1.20115e-007
1.20117e-007
1.20119e-007
1.20137e-007
1.20158e-007
1.20171e-007
1.2018e-007
1.20194e-007
1.20215e-007
1.20232e-007
1.20239e-007
1.20245e-007
1.20253e-007
1.20265e-007
1.20272e-007
1.20277e-007
1.20284e-007
1.20292e-007
1.20298e-007
1.20303e-007
1.20313e-007
1.20327e-007
1.20349e-007
1.20365e-007
1.20379e-007
1.20392e-007
1.20404e-007
1.20417e-007
1.2043e-007
1.20443e-007
1.20456e-007
1.20469e-007
1.20481e-007
1.20492e-007
1.20504e-007
1.20515e-007
1.20527e-007
1.2054e-007
1.20553e-007
1.20567e-007
1.20579e-007
1.20592e-007
1.20605e-007
1.20617e-007
1.20629e-007
1.20641e-007
1.20654e-007
1.20666e-007
1.20677e-007
1.2069e-007
1.20701e-007
1.20713e-007
1.20724e-007
1.20736e-007
1.20747e-007
1.20758e-007
1.20769e-007
1.2078e-007
1.20791e-007
1.208e-007
1.20812e-007
1.20821e-007
1.20831e-007
1.20842e-007
1.20849e-007
1.20861e-007
1.20868e-007
1.20877e-007
1.20884e-007
1.20892e-007
1.20902e-007
1.20906e-007
1.20918e-007
1.20922e-007
1.20933e-007
1.20942e-007
1.20949e-007
1.20956e-007
1.2096e-007
1.20969e-007
1.20973e-007
1.20981e-007
1.20986e-007
1.2099e-007
1.20994e-007
1.20998e-007
1.21e-007
1.21003e-007
1.21004e-007
1.21007e-007
1.21008e-007
1.21009e-007
1.21009e-007
1.21008e-007
1.21008e-007
1.21006e-007
1.21004e-007
1.21002e-007
1.20999e-007
1.20994e-007
1.2099e-007
1.20984e-007
1.20979e-007
1.20972e-007
1.20964e-007
1.20955e-007
1.20945e-007
1.20934e-007
1.20922e-007
1.20909e-007
1.20898e-007
1.20887e-007
1.20875e-007
1.20862e-007
1.20849e-007
1.20834e-007
1.2082e-007
1.20801e-007
1.20789e-007
1.20768e-007
1.20753e-007
1.20746e-007
1.20798e-007
1.20625e-007
1.20705e-007
1.21776e-007
1.20482e-007
1.0932e-007
2.56171e-007
2.07497e-005
0.00238798
1.85219e-008
1.8526e-008
1.85279e-008
1.85315e-008
1.85379e-008
1.85427e-008
1.85431e-008
1.85431e-008
1.85454e-008
1.85528e-008
1.85582e-008
1.85598e-008
1.85588e-008
1.85597e-008
1.85666e-008
1.85735e-008
1.85802e-008
1.85844e-008
1.8589e-008
1.85942e-008
1.85971e-008
1.85985e-008
1.86002e-008
1.86032e-008
1.86067e-008
1.86107e-008
1.86149e-008
1.86187e-008
1.8622e-008
1.86249e-008
1.86277e-008
1.86306e-008
1.86345e-008
1.86384e-008
1.86422e-008
1.86459e-008
1.86496e-008
1.86533e-008
1.8657e-008
1.86607e-008
1.86642e-008
1.86678e-008
1.86715e-008
1.86753e-008
1.86792e-008
1.8683e-008
1.86867e-008
1.86905e-008
1.86942e-008
1.86979e-008
1.87016e-008
1.87052e-008
1.87088e-008
1.87123e-008
1.87158e-008
1.87193e-008
1.87227e-008
1.8726e-008
1.87293e-008
1.87326e-008
1.87358e-008
1.8739e-008
1.87421e-008
1.87451e-008
1.87481e-008
1.87511e-008
1.8754e-008
1.8757e-008
1.87597e-008
1.87626e-008
1.87653e-008
1.87678e-008
1.87711e-008
1.87737e-008
1.87761e-008
1.87783e-008
1.87811e-008
1.87835e-008
1.87859e-008
1.87887e-008
1.87907e-008
1.87933e-008
1.87952e-008
1.87968e-008
1.87988e-008
1.88011e-008
1.88035e-008
1.8805e-008
1.88068e-008
1.88083e-008
1.88096e-008
1.88109e-008
1.88122e-008
1.88134e-008
1.88145e-008
1.88154e-008
1.88163e-008
1.88169e-008
1.88174e-008
1.88178e-008
1.8818e-008
1.88181e-008
1.88179e-008
1.88177e-008
1.88172e-008
1.88167e-008
1.88159e-008
1.88149e-008
1.88138e-008
1.88124e-008
1.88108e-008
1.88092e-008
1.88073e-008
1.88051e-008
1.88026e-008
1.87998e-008
1.87968e-008
1.87937e-008
1.87906e-008
1.87873e-008
1.87838e-008
1.878e-008
1.87758e-008
1.87714e-008
1.87664e-008
1.87611e-008
1.87553e-008
1.87511e-008
1.87204e-008
1.87777e-008
1.86267e-008
1.88625e-008
1.89101e-008
1.66257e-008
1.81372e-008
1.35491e-007
1.22788e-005
0.000995476
0.0197823
4.68497e-009
4.68621e-009
4.68764e-009
4.6893e-009
4.69032e-009
4.69076e-009
4.6916e-009
4.69354e-009
4.69571e-009
4.69723e-009
4.69744e-009
4.69788e-009
4.69956e-009
4.70143e-009
4.70355e-009
4.70526e-009
4.70704e-009
4.70837e-009
4.70907e-009
4.70951e-009
4.71039e-009
4.71205e-009
4.71412e-009
4.7157e-009
4.71728e-009
4.7184e-009
4.71939e-009
4.72056e-009
4.72202e-009
4.72351e-009
4.72568e-009
4.72747e-009
4.72886e-009
4.73037e-009
4.73185e-009
4.73332e-009
4.7348e-009
4.73626e-009
4.73773e-009
4.73921e-009
4.7407e-009
4.74223e-009
4.74379e-009
4.74532e-009
4.74679e-009
4.74822e-009
4.74964e-009
4.75104e-009
4.75246e-009
4.75387e-009
4.75529e-009
4.75669e-009
4.75809e-009
4.75949e-009
4.76086e-009
4.76221e-009
4.76357e-009
4.76488e-009
4.76622e-009
4.7675e-009
4.76878e-009
4.77005e-009
4.77127e-009
4.77252e-009
4.77371e-009
4.77492e-009
4.77609e-009
4.77726e-009
4.7784e-009
4.77954e-009