/*--------------------------------*- C++ -*----------------------------------*\
| =========                 |                                                 |
| \\      /  F ield         | OpenFOAM: The Open Source CFD Toolbox           |
|  \\    /   O peration     | Version:  5.x                                   |
|   \\  /    A nd           | Web:      www.OpenFOAM.org                      |
|    \\/     M anipulation  |                                                 |
\*---------------------------------------------------------------------------*/
/*   Windows 32 and 64 bit porting by blueCAPE: http://www.bluecape.com.pt   *\
|  Based on Windows porting (2.0.x v4) by Symscape: http://www.symscape.com   |
\*---------------------------------------------------------------------------*/
FoamFile
{
    version     2.0;
    format      ascii;
    class       volScalarField;
    location    "260";
    object      k;
}
// * * * * * * * * * * * * * * * * * * * * * * * * * * * * * * * * * * * * * //

dimensions      [0 2 -2 0 0 0 0];

internalField   nonuniform List<scalar> 
43900
(
0.000985516
0.000989438
0.000990248
0.000990176
0.000990126
0.000990115
0.00099012
0.000990121
0.000990122
0.000990127
0.000990127
0.000990127
0.000990128
0.00099013
0.00099013
0.000990132
0.000990134
0.000990134
0.000990135
0.000990135
0.000990135
0.000990136
0.000990136
0.000990136
0.000990137
0.000990137
0.000990137
0.000990138
0.000990138
0.00164793
5.59658e-005
3.89312e-005
3.81726e-005
4.08109e-005
4.09662e-005
4.09873e-005
4.09562e-005
4.09569e-005
4.09655e-005
4.09666e-005
4.0967e-005
4.09689e-005
4.0971e-005
4.09718e-005
4.09757e-005
4.09777e-005
4.09777e-005
4.09801e-005
4.09802e-005
4.09805e-005
4.09828e-005
4.09826e-005
4.09831e-005
4.09848e-005
4.09841e-005
4.0985e-005
4.09865e-005
4.09858e-005
0.294207
0.0539157
0.00408752
0.000117127
4.98255e-006
3.08314e-006
2.97816e-006
3.34468e-006
3.38112e-006
3.37619e-006
3.37172e-006
3.37192e-006
3.37297e-006
3.37366e-006
3.37436e-006
3.37527e-006
3.3756e-006
3.3761e-006
3.37679e-006
3.37713e-006
3.37769e-006
3.37815e-006
3.37836e-006
3.37881e-006
3.37907e-006
3.37924e-006
3.37964e-006
3.37976e-006
3.37983e-006
0.878978
0.375731
0.119545
0.0236651
0.00205766
8.16668e-005
3.97719e-006
5.89183e-007
4.576e-007
4.9975e-007
5.34106e-007
5.35596e-007
5.3108e-007
5.30362e-007
5.31368e-007
5.31578e-007
5.31497e-007
5.31682e-007
5.31876e-007
5.3199e-007
5.32098e-007
5.32208e-007
5.32315e-007
5.32408e-007
5.32484e-007
5.32564e-007
5.32639e-007
5.32701e-007
5.32759e-007
1.29102
0.739998
0.395288
0.176822
0.0562384
0.0103497
0.00082766
3.76452e-005
1.69992e-006
2.28385e-007
1.28499e-007
1.29255e-007
1.45863e-007
1.47816e-007
1.44905e-007
1.45054e-007
1.45869e-007
1.45687e-007
1.45628e-007
1.4574e-007
1.45832e-007
1.45872e-007
1.45898e-007
1.4593e-007
1.45961e-007
1.45985e-007
1.46014e-007
1.4604e-007
1.46053e-007
1.54732
0.984334
0.616882
0.369931
0.198801
0.0832363
0.0231249
0.00324996
0.000207064
9.90431e-006
5.20395e-007
9.22308e-008
5.37697e-008
5.55753e-008
6.23887e-008
6.14271e-008
5.98389e-008
6.05742e-008
6.07906e-008
6.05727e-008
6.05026e-008
6.05304e-008
6.05519e-008
6.05654e-008
6.05764e-008
6.05891e-008
6.06009e-008
6.06134e-008
6.06248e-008
1.71327
1.15154
0.774453
0.514737
0.33116
0.198457
0.10025
0.0348283
0.00696366
0.000631465
3.48444e-005
1.83221e-006
1.29199e-007
3.8439e-008
2.88457e-008
3.21664e-008
3.44727e-008
3.29427e-008
3.28528e-008
3.32654e-008
3.32661e-008
3.31992e-008
3.32029e-008
3.32151e-008
3.32269e-008
3.32338e-008
3.3241e-008
3.32508e-008
3.32545e-008
1.81191
1.25864
0.880077
0.615029
0.425004
0.28559
0.181105
0.101853
0.0426889
0.0110387
0.00138558
9.18733e-005
5.23465e-006
3.19608e-007
4.04516e-008
2.11526e-008
1.89415e-008
2.1743e-008
2.15698e-008
2.11355e-008
2.14254e-008
2.15814e-008
2.15495e-008
2.15316e-008
2.15364e-008
2.15427e-008
2.15463e-008
2.15508e-008
2.15545e-008
1.88006
1.33764
0.9606
0.692962
0.49884
0.355033
0.246314
0.162638
0.0974202
0.0464005
0.0138513
0.0021276
0.000165948
1.03821e-005
6.57051e-007
5.6428e-008
1.93451e-008
1.44073e-008
1.56206e-008
1.57308e-008
1.52174e-008
1.5268e-008
1.54203e-008
1.54534e-008
1.54474e-008
1.54485e-008
1.54525e-008
1.54598e-008
1.5464e-008
1.9052
1.37813
1.00829
0.74344
0.549813
0.405346
0.295387
0.210082
0.142759
0.0889415
0.0459165
0.0149305
0.00258541
0.000227715
1.55412e-005
1.04901e-006
8.34646e-008
1.75325e-008
1.19688e-008
1.21003e-008
1.27511e-008
1.23043e-008
1.20533e-008
1.21163e-008
1.21702e-008
1.21805e-008
1.21838e-008
1.21859e-008
1.21863e-008
1.90544
1.39482
1.03379
0.773679
0.582531
0.439307
0.329899
0.244717
0.17718
0.122769
0.0784551
0.042479
0.0144451
0.00265417
0.000252949
1.86432e-005
1.34907e-006
1.07441e-007
1.75223e-008
1.04456e-008
9.88741e-009
1.07985e-008
1.0712e-008
1.04677e-008
1.0407e-008
1.04139e-008
1.0421e-008
1.0425e-008
1.04293e-008
1.89682
1.40232
1.05018
0.794858
0.606275
0.464419
0.355753
0.270984
0.203662
0.149284
0.104725
0.0678978
0.0376229
0.012956
0.00241603
0.000241943
1.92042e-005
1.49877e-006
1.25174e-007
1.80216e-008
9.72024e-009
8.26167e-009
8.90503e-009
9.24307e-009
9.15904e-009
9.11609e-009
9.11112e-009
9.11145e-009
9.11317e-009
1.8756
1.3985
1.05644
0.807153
0.622163
0.482449
0.375086
0.29114
0.224361
0.170337
0.125948
0.0890102
0.058071
0.0323308
0.010986
0.0020287
0.000212222
1.83014e-005
1.55844e-006
1.40048e-007
1.93973e-008
8.6675e-009
7.07179e-009
7.35542e-009
7.69694e-009
7.72346e-009
7.70388e-009
7.70236e-009
7.71006e-009
1.84392
1.38539
1.05448
0.812072
0.631498
0.494652
0.389166
0.306484
0.240587
0.187195
0.143247
0.106555
0.0755819
0.0493109
0.0272149
0.00896964
0.00162119
0.000177685
1.67439e-005
1.56226e-006
1.52075e-007
2.05192e-008
7.80979e-009
6.19932e-009
6.05709e-009
6.21353e-009
6.29945e-009
6.31121e-009
6.31445e-009
1.8039
1.36416
1.04572
0.810993
0.635443
0.501994
0.398862
0.31783
0.253121
0.200608
0.157319
0.1211
0.0904046
0.0641427
0.0416077
0.0224693
0.00709349
0.00124991
0.00014396
1.47682e-005
1.50029e-006
1.57691e-007
2.13791e-008
7.28325e-009
5.5997e-009
5.21423e-009
5.25157e-009
5.28793e-009
5.30498e-009
1.75722
1.33673
1.03087
0.804959
0.634949
0.50536
0.404941
0.325878
0.262617
0.211197
0.168745
0.133172
0.102949
0.0769722
0.0544698
0.0349555
0.0182373
0.0054722
0.000944403
0.000114916
1.28367e-005
1.42382e-006
1.61957e-007
2.25219e-008
7.0515e-009
5.23914e-009
4.88476e-009
4.81343e-009
4.81442e-009
1.70483
1.30402
1.01129
0.794271
0.630777
0.505307
0.40795
0.331122
0.26954
0.219398
0.17794
0.143149
0.113539
0.0880186
0.0657972
0.0463286
0.0292868
0.014581
0.00414178
0.000706687
9.14922e-005
1.10899e-005
1.33041e-006
1.62319e-007
2.34404e-008
7.01107e-009
5.03205e-009
4.7674e-009
4.71348e-009
1.64757
1.26679
0.987616
0.779931
0.622966
0.502483
0.408304
0.333927
0.274196
0.225485
0.185151
0.151255
0.122362
0.0974086
0.0756105
0.0564021
0.0394011
0.0244007
0.0113959
0.00305856
0.000520012
7.1305e-005
9.26694e-006
1.18908e-006
1.54923e-007
2.36398e-008
7.07608e-009
4.99691e-009
4.7363e-009
1.58628
1.22577
0.960483
0.762475
0.612361
0.496812
0.406478
0.334647
0.276917
0.229754
0.19064
0.157724
0.129629
0.105325
0.0840457
0.0652248
0.0484592
0.033489
0.0202015
0.00864022
0.00218876
0.00037348
5.42897e-005
7.57253e-006
1.04232e-006
1.45098e-007
2.34831e-008
7.19672e-009
5.03362e-009
1.52174
1.18165
0.930472
0.742393
0.599372
0.488965
0.402461
0.333598
0.277953
0.232444
0.194641
0.162774
0.135532
0.111933
0.0912338
0.0728807
0.0564653
0.0417042
0.0284325
0.016633
0.00633921
0.00150663
0.000261031
4.03142e-005
6.02145e-006
8.86324e-007
1.31699e-007
2.27166e-008
7.21883e-009
1.45478
1.13511
0.898163
0.720173
0.58441
0.479303
0.396724
0.330891
0.277532
0.233767
0.197332
0.166569
0.140228
0.117372
0.0972918
0.0794501
0.0634451
0.0489849
0.0358749
0.0240173
0.0134384
0.00458344
0.00103742
0.000183963
2.9948e-005
4.72741e-006
7.36588e-007
1.16662e-007
2.13852e-008
1.38621
1.08682
0.864113
0.696282
0.567876
0.468169
0.38961
0.326812
0.275885
0.233853
0.198869
0.169269
0.143875
0.1218
0.10237
0.0850699
0.0695112
0.0554037
0.042541
0.0307938
0.0201182
0.010515
0.00330274
0.000723042
0.000131776
2.25287e-005
3.7448e-006
6.15176e-007
1.01427e-007
1.31674
1.03738
0.828831
0.671152
0.550134
0.455879
0.381399
0.321695
0.273149
0.233109
0.199541
0.171102
0.146661
0.125375
0.106605
0.0898625
0.0747722
0.0610505
0.0484885
0.0369423
0.0263336
0.0166487
0.00789994
0.00231207
0.00049876
9.40408e-005
1.68819e-005
2.95758e-006
5.02386e-007
1.24705
0.987357
0.79277
0.645163
0.53151
0.442713
0.372332
0.315746
0.269602
0.231443
0.19939
0.172165
0.148705
0.128229
0.110136
0.0939636
0.0793551
0.0660374
0.0538045
0.042508
0.0320527
0.0223969
0.0135474
0.00568547
0.00156741
0.000339509
6.66716e-005
1.2613e-005
2.28717e-006
1.17769
0.9372
0.756319
0.618639
0.512278
0.42891
0.362622
0.309163
0.265441
0.229182
0.198701
0.172662
0.150188
0.130529
0.113118
0.09752
0.0833981
0.0704922
0.0586032
0.0475833
0.0373305
0.0277863
0.0189381
0.0108024
0.00398148
0.00105524
0.000233294
4.7952e-005
9.33541e-006
1.10914
0.887303
0.719797
0.591847
0.492664
0.414662
0.352436
0.30209
0.260781
0.226413
0.197421
0.172617
0.151159
0.132336
0.115621
0.100609
0.0869838
0.0744988
0.0629645
0.0522372
0.042213
0.0328252
0.0240438
0.0158772
0.00838063
0.00282846
0.000730384
0.000165044
3.45417e-005
1.0418
0.837988
0.683466
0.565004
0.472849
0.400123
0.341909
0.294651
0.25575
0.223285
0.195821
0.17228
0.151808
0.133801
0.117773
0.103343
0.0902123
0.0781499
0.0669747
0.0565479
0.0467666
0.0375597
0.0288868
0.0207406
0.0131472
0.00627824
0.00199771
0.000512273
0.000116257
0.975997
0.789512
0.647535
0.53828
0.452975
0.385413
0.331143
0.286935
0.25042
0.219845
0.193895
0.171579
0.152124
0.134958
0.119631
0.10579
0.0931597
0.0815241
0.0707128
0.0605937
0.0510667
0.0420592
0.0335248
0.0254433
0.0178336
0.0106974
0.00457152
0.00140033
0.000354262
0.911978
0.742081
0.612169
0.511807
0.433149
0.370621
0.320213
0.279005
0.244849
0.216148
0.191704
0.170606
0.152151
0.135841
0.12123
0.107993
0.0958756
0.0846761
0.0742366
0.0644331
0.0551701
0.0463766
0.0380037
0.0300241
0.0224392
0.0152617
0.00853012
0.0032885
0.000965261
0.849947
0.695855
0.577496
0.485688
0.413453
0.355814
0.309175
0.27091
0.239079
0.212239
0.189301
0.169437
0.152017
0.136543
0.122641
0.110009
0.0984081
0.087652
0.0775922
0.0681124
0.0591223
0.0505538
0.0423581
0.034505
0.0269848
0.019812
0.0129725
0.00668316
0.00235589
0.790062
0.650959
0.543614
0.46
0.393949
0.34104
0.298067
0.26268
0.233138
0.208139
0.1867
0.168072
0.151682
0.137065
0.123885
0.111867
0.100794
0.0904908
0.0808204
0.0716741
0.0629669
0.0546339
0.0466278
0.0389176
0.0314888
0.0243492
0.0175016
0.0109824
0.00504066
0.73244
0.60749
0.510599
0.434803
0.374681
0.326333
0.286914
0.254334
0.227036
0.203855
0.183904
0.166508
0.151143
0.137401
0.124963
0.113579
0.103049
0.0932152
0.0839492
0.0751504
0.0667395
0.0586551
0.0508518
0.0432988
0.0359793
0.0288947
0.0220515
0.0155204
0.00904748
0.677172
0.565521
0.47851
0.410141
0.355683
0.311714
0.27573
0.245879
0.220779
0.199388
0.180914
0.164748
0.150417
0.137551
0.125875
0.115146
0.105182
0.0958364
0.086994
0.0785611
0.070464
0.062645
0.0550611
0.0476817
0.0404891
0.0334798
0.0266601
0.0200941
0.0136482
0.624327
0.525111
0.447395
0.38605
0.336979
0.297202
0.264525
0.237319
0.214362
0.194731
0.177719
0.162781
0.14949
0.137512
0.126612
0.116557
0.107181
0.09835
0.0899556
0.0819124
0.0741516
0.0666195
0.0592753
0.0520896
0.045044
0.0381322
0.0313587
0.0247573
0.0183871
0.573956
0.48631
0.417293
0.362562
0.318592
0.282809
0.253303
0.228651
0.20778
0.189875
0.174309
0.160597
0.148362
0.137307
0.127184
0.117816
0.109047
0.100752
0.0928312
0.0852038
0.0778055
0.0705858
0.0635058
0.0565373
0.049662
0.0428717
0.036169
0.0295694
0.0231768
0.526099
0.449158
0.388242
0.339705
0.300544
0.268548
0.242071
0.219875
0.201025
0.184805
0.170664
0.158173
0.146993
0.136861
0.127547
0.118893
0.110758
0.103028
0.0956098
0.0884287
0.0814236
0.0745463
0.0677594
0.0610357
0.054357
0.0477142
0.0411081
0.0345484
0.0281074
0.480787
0.413695
0.360279
0.317512
0.282857
0.254435
0.230834
0.210988
0.194087
0.179507
0.166765
0.15548
0.145352
0.13614
0.127642
0.11974
0.112276
0.105148
0.0982697
0.091572
0.0849969
0.0784981
0.0720393
0.0655933
0.0591418
0.0526751
0.0461927
0.0397025
0.0332429
0.438046
0.379955
0.333441
0.296014
0.265558
0.240486
0.219602
0.201993
0.186961
0.173968
0.16259
0.152496
0.143418
0.135144
0.127498
0.120352
0.113581
0.107085
0.100785
0.0946119
0.0885098
0.0824329
0.0763444
0.0702164
0.0640293
0.0577724
0.0514434
0.0450494
0.0386116
0.397891
0.347973
0.307765
0.27525
0.248677
0.226727
0.20839
0.192895
0.179644
0.168175
0.158122
0.149195
0.141161
0.133831
0.127056
0.120674
0.114625
0.108799
0.103119
0.0975167
0.0919375
0.086334
0.0806675
0.0749075
0.0690317
0.0630266
0.0568876
0.05062
0.0442389
0.360334
0.31778
0.283293
0.255258
0.232252
0.213186
0.197221
0.183707
0.17214
0.162124
0.153346
0.145553
0.138543
0.132146
0.126222
0.120635
0.11535
0.110235
0.105221
0.100242
0.0952429
0.0901738
0.0849922
0.0796628
0.0741582
0.0684596
0.0625582
0.0564558
0.0501648
0.325375
0.289403
0.260062
0.236083
0.216324
0.199901
0.186123
0.174451
0.16446
0.155817
0.148254
0.141554
0.13554
0.130065
0.125008
0.120264
0.115718
0.11134
0.107032
0.10273
0.0983732
0.0939086
0.0892873
0.0844666
0.0794103
0.0740911
0.0684917
0.0626075
0.0564471
0.293
0.26286
0.238109
0.217766
0.200938
0.186916
0.175137
0.165159
0.156629
0.149268
0.14285
0.137189
0.132134
0.127557
0.12335
0.119423
0.115648
0.112039
0.108479
0.104906
0.101257
0.0974741
0.0935007
0.0892836
0.0847741
0.079931
0.074723
0.0691331
0.0631613
0.263181
0.238161
0.217463
0.200354
0.186146
0.174282
0.164312
0.155877
0.148687
0.14251
0.137157
0.132471
0.128323
0.124605
0.121223
0.118095
0.115148
0.112267
0.109484
0.106684
0.103805
0.100782
0.097552
0.0940483
0.0902063
0.0859647
0.0812707
0.0760855
0.0703911
0.235873
0.215303
0.198153
0.183889
0.172002
0.162062
0.153714
0.14667
0.140695
0.135598
0.131222
0.127437
0.124134
0.121223
0.118623
0.116266
0.114091
0.112003
0.109978
0.107978
0.105915
0.103723
0.101329
0.0986555
0.0956184
0.0921319
0.0881121
0.0834858
0.0782028
0.211018
0.194276
0.180201
0.168419
0.15857
0.150331
0.143425
0.137625
0.132741
0.128618
0.125127
0.122161
0.11963
0.11746
0.115585
0.11395
0.112501
0.111192
0.109906
0.108707
0.107485
0.106172
0.104692
0.102957
0.100865
0.0983039
0.0951517
0.0912843
0.0865999
0.188544
0.175062
0.163629
0.153997
0.145926
0.139182
0.133553
0.128859
0.124949
0.121697
0.118998
0.116764
0.114924
0.113417
0.112194
0.11121
0.110427
0.109807
0.109304
0.10882
0.108431
0.108012
0.107491
0.106773
0.105743
0.104275
0.102202
0.0993264
0.0954768
0.168377
0.157645
0.148464
0.140684
0.134163
0.128733
0.124234
0.120525
0.117483
0.115006
0.113006
0.111416
0.110178
0.109247
0.108587
0.108169
0.107964
0.107958
0.108098
0.108378
0.108717
0.109159
0.10959
0.109921
0.110005
0.109776
0.109001
0.107347
0.104595
0.150443
0.142011
0.134743
0.128559
0.123392
0.119125
0.115635
0.11281
0.110546
0.108757
0.107372
0.106336
0.105608
0.105156
0.104956
0.105001
0.105257
0.105757
0.106454
0.107354
0.108397
0.109578
0.110901
0.112257
0.113531
0.114589
0.115156
0.114903
0.11359
0.134676
0.128154
0.12251
0.11771
0.113741
0.110521
0.107951
0.105932
0.104374
0.1032
0.102351
0.101781
0.101467
0.10139
0.101533
0.101915
0.102535
0.103402
0.104515
0.105884
0.107509
0.10934
0.111406
0.11369
0.116083
0.118442
0.120522
0.121888
0.12189
0.121017
0.116076
0.111819
0.108235
0.105349
0.103096
0.101386
0.100124
0.0992218
0.0986059
0.0982225
0.0980359
0.0980434
0.0982202
0.0986021
0.0992008
0.100036
0.101132
0.102509
0.104191
0.106199
0.108551
0.111215
0.114241
0.117611
0.121181
0.124767
0.12786
0.129773
0.109408
0.105774
0.102713
0.100222
0.0983442
0.0970137
0.0961396
0.0956145
0.0953478
0.0952571
0.0952936
0.0954267
0.0956659
0.0960135
0.0965097
0.0971921
0.0980998
0.0992742
0.100754
0.102579
0.10479
0.107428
0.110535
0.114109
0.11823
0.122819
0.127804
0.13262
0.136834
0.0997759
0.0972257
0.0952138
0.0937319
0.0928236
0.0924085
0.0923863
0.092619
0.0930132
0.0934646
0.0939203
0.0943521
0.0947733
0.0952129
0.0957265
0.0963758
0.097223
0.0983295
0.0997536
0.101552
0.103783
0.106507
0.109794
0.11371
0.118327
0.123662
0.129829
0.136211
0.143041
0.0920216
0.0903735
0.0893005
0.0887762
0.0888365
0.0893683
0.0902616
0.0913471
0.092495
0.0935807
0.0945173
0.0952888
0.0959113
0.0964311
0.0969234
0.0974771
0.0981807
0.0991193
0.100373
0.102019
0.104125
0.106773
0.110039
0.114037
0.118857
0.124671
0.131693
0.139287
0.14922
0.0860037
0.0851124
0.0848994
0.0853123
0.0863705
0.087944
0.089877
0.0919646
0.0940398
0.0959627
0.0976337
0.0989907
0.100032
0.100806
0.1014
0.101931
0.102517
0.103277
0.104321
0.105756
0.107668
0.110167
0.113314
0.117324
0.122161
0.12832
0.135952
0.14456
0.158192
0.0815401
0.081291
0.0818826
0.083247
0.0853772
0.0881186
0.0912716
0.0946414
0.0980253
0.10123
0.10411
0.106565
0.10856
0.110122
0.111334
0.11233
0.113261
0.114279
0.115531
0.117176
0.119315
0.122125
0.125582
0.130174
0.135275
0.142493
0.150412
0.160917
0.178263
0.0784182
0.0787203
0.0800939
0.0824436
0.0857432
0.0898219
0.0944973
0.099538
0.104709
0.109794
0.114606
0.119006
0.122922
0.126354
0.129377
0.132112
0.134743
0.137479
0.140529
0.144152
0.148498
0.153899
0.160218
0.1686
0.176973
0.190281
0.200727
0.222868
0.237796
0.0764126
0.0771946
0.0793498
0.0827307
0.0873216
0.0929651
0.0994642
0.106597
0.114127
0.121826
0.129487
0.136949
0.14412
0.150995
0.157659
0.16428
0.17111
0.178469
0.186708
0.196202
0.207374
0.220897
0.23687
0.257445
0.279569
0.313448
0.342127
0.409511
0.421906
0.0753079
0.0765113
0.0794608
0.0839256
0.0899405
0.097347
0.105976
0.115632
0.126104
0.137182
0.148677
0.160441
0.172406
0.1846
0.19717
0.210379
0.224619
0.240392
0.258307
0.279112
0.303718
0.333358
0.369187
0.414349
0.468183
0.543636
0.624996
0.781287
0.843175
0.0749433
0.0765127
0.0802824
0.0858795
0.0934281
0.10278
0.113813
0.12638
0.140329
0.155511
0.171799
0.18912
0.207487
0.227031
0.248029
0.270923
0.296331
0.325055
0.358111
0.396758
0.442691
0.497959
0.565633
0.64989
0.755948
0.896311
1.0801
1.34619
1.57757
0.000990139
0.000990139
0.000990137
0.000990137
0.00099014
0.000990143
0.000990141
0.000990137
0.000990136
0.00099014
0.000990143
0.000990143
0.000990138
0.000990135
0.000990136
0.000990141
0.000990146
0.000990148
0.000990149
0.000990149
0.00099015
0.00099015
0.000990151
0.000990151
0.00099015
0.000990149
0.000990147
0.000990145
0.000990144
0.000990145
0.000990146
0.000990147
0.000990147
0.000990148
0.000990148
0.000990148
0.000990149
0.000990149
0.000990149
0.000990149
0.000990149
0.000990148
0.000990148
0.000990148
0.000990148
0.000990148
0.000990149
0.000990149
0.000990149
0.00099015
0.00099015
0.00099015
0.00099015
0.00099015
0.00099015
0.000990151
0.000990151
0.000990151
0.000990151
0.000990151
0.000990151
0.000990151
0.000990152
0.000990152
0.000990152
0.000990152
0.000990152
0.000990152
0.000990153
0.000990153
0.000990153
0.000990153
0.000990153
0.000990154
0.000990153
0.000990154
0.000990154
0.000990154
0.000990154
0.000990154
0.000990154
0.000990154
0.000990155
0.000990155
0.000990155
0.000990156
0.000990155
0.000990156
0.000990156
0.000990156
0.000990156
0.000990156
0.000990156
0.000990156
0.000990157
0.000990157
0.000990157
0.000990157
0.000990157
0.000990157
0.000990157
0.000990157
0.000990157
0.000990157
0.000990156
0.000990156
0.000990156
0.000990156
0.000990156
0.000990156
0.000990156
0.000990156
0.000990155
0.000990155
0.000990155
0.000990154
0.000990154
0.000990154
0.000990154
0.000990154
0.000990154
0.000990154
0.000990154
0.000990155
0.000990155
0.000990156
0.000990156
0.000990157
0.000990157
0.000990158
0.000990159
0.00099016
0.000990161
0.000990164
0.000990163
0.000990168
0.000990165
0.000990176
0.00100825
4.09873e-005
4.09882e-005
4.09855e-005
4.09852e-005
4.09901e-005
4.09933e-005
4.09906e-005
4.09855e-005
4.09849e-005
4.09899e-005
4.09947e-005
4.09937e-005
4.09869e-005
4.09831e-005
4.09849e-005
4.0993e-005
4.09999e-005
4.10028e-005
4.10037e-005
4.10043e-005
4.10052e-005
4.10059e-005
4.10062e-005
4.10062e-005
4.10054e-005
4.10036e-005
4.10003e-005
4.09979e-005
4.09972e-005
4.09981e-005
4.09998e-005
4.1001e-005
4.10019e-005
4.10026e-005
4.10032e-005
4.10035e-005
4.10039e-005
4.10042e-005
4.10045e-005
4.10045e-005
4.10043e-005
4.1004e-005
4.10038e-005
4.10039e-005
4.10042e-005
4.10047e-005
4.10052e-005
4.10057e-005
4.10061e-005
4.10065e-005
4.10068e-005
4.10072e-005
4.10074e-005
4.10077e-005
4.1008e-005
4.10082e-005
4.10083e-005
4.10086e-005
4.10087e-005
4.10091e-005
4.10093e-005
4.10096e-005
4.101e-005
4.10102e-005
4.10106e-005
4.10108e-005
4.10111e-005
4.10113e-005
4.10118e-005
4.10118e-005
4.10122e-005
4.10127e-005
4.10122e-005
4.10136e-005
4.10129e-005
4.10137e-005
4.10138e-005
4.1014e-005
4.10146e-005
4.10142e-005
4.10151e-005
4.10148e-005
4.1016e-005
4.10164e-005
4.10167e-005
4.10169e-005
4.10169e-005
4.10174e-005
4.10173e-005
4.10178e-005
4.1018e-005
4.10181e-005
4.10183e-005
4.10184e-005
4.10185e-005
4.10187e-005
4.10186e-005
4.10188e-005
4.10187e-005
4.10188e-005
4.10188e-005
4.10187e-005
4.10187e-005
4.10186e-005
4.10185e-005
4.10184e-005
4.10183e-005
4.1018e-005
4.10179e-005
4.10177e-005
4.10174e-005
4.1017e-005
4.10167e-005
4.10161e-005
4.10158e-005
4.10152e-005
4.10146e-005
4.1014e-005
4.10139e-005
4.1014e-005
4.10141e-005
4.10143e-005
4.10148e-005
4.10155e-005
4.1016e-005
4.10166e-005
4.10171e-005
4.1018e-005
4.10184e-005
4.10197e-005
4.10209e-005
4.10227e-005
4.10231e-005
4.10296e-005
4.10261e-005
4.10335e-005
4.10551e-005
4.10583e-005
4.17393e-005
3.38019e-006
3.38025e-006
3.38026e-006
3.38074e-006
3.38123e-006
3.38098e-006
3.38055e-006
3.38065e-006
3.38127e-006
3.38193e-006
3.38174e-006
3.38117e-006
3.38083e-006
3.38135e-006
3.38218e-006
3.38294e-006
3.38311e-006
3.38332e-006
3.38357e-006
3.3838e-006
3.38398e-006
3.38411e-006
3.3842e-006
3.38418e-006
3.38404e-006
3.38384e-006
3.38383e-006
3.38399e-006
3.38411e-006
3.38423e-006
3.38435e-006
3.38446e-006
3.38459e-006
3.38474e-006
3.3849e-006
3.38505e-006
3.3852e-006
3.38535e-006
3.38549e-006
3.38564e-006
3.38578e-006
3.38594e-006
3.3861e-006
3.38626e-006
3.3864e-006
3.38653e-006
3.38666e-006
3.38678e-006
3.38691e-006
3.38703e-006
3.38716e-006
3.38729e-006
3.38741e-006
3.38753e-006
3.38765e-006
3.38777e-006
3.38788e-006
3.38799e-006
3.38811e-006
3.38821e-006
3.38833e-006
3.38845e-006
3.38856e-006
3.38868e-006
3.38879e-006
3.38891e-006
3.38902e-006
3.38915e-006
3.38925e-006
3.38938e-006
3.38949e-006
3.38958e-006
3.38974e-006
3.38981e-006
3.38993e-006
3.39002e-006
3.39014e-006
3.39025e-006
3.39033e-006
3.39047e-006
3.39052e-006
3.39065e-006
3.3907e-006
3.39076e-006
3.39085e-006
3.39093e-006
3.39103e-006
3.39109e-006
3.39116e-006
3.39119e-006
3.39123e-006
3.39126e-006
3.39129e-006
3.39133e-006
3.39136e-006
3.39138e-006
3.39142e-006
3.39143e-006
3.39145e-006
3.39146e-006
3.39147e-006
3.39147e-006
3.39146e-006
3.39145e-006
3.39142e-006
3.3914e-006
3.39135e-006
3.39131e-006
3.39125e-006
3.39118e-006
3.39111e-006
3.39102e-006
3.3909e-006
3.39078e-006
3.39065e-006
3.39053e-006
3.39038e-006
3.39023e-006
3.39014e-006
3.39006e-006
3.38998e-006
3.38991e-006
3.38983e-006
3.38979e-006
3.38967e-006
3.38958e-006
3.38949e-006
3.38927e-006
3.38932e-006
3.38939e-006
3.38913e-006
3.38969e-006
3.38937e-006
3.38988e-006
3.39038e-006
3.40091e-006
3.1085e-006
3.11823e-006
3.58409e-005
5.32825e-007
5.32905e-007
5.32978e-007
5.33026e-007
5.33068e-007
5.33133e-007
5.33211e-007
5.33298e-007
5.33322e-007
5.33334e-007
5.33357e-007
5.33437e-007
5.33523e-007
5.33565e-007
5.33612e-007
5.3367e-007
5.33764e-007
5.33832e-007
5.33871e-007
5.33903e-007
5.33942e-007
5.33984e-007
5.34008e-007
5.34028e-007
5.3406e-007
5.34106e-007
5.34141e-007
5.34168e-007
5.34216e-007
5.34275e-007
5.34359e-007
5.34424e-007
5.34484e-007
5.34541e-007
5.34597e-007
5.34653e-007
5.3471e-007
5.34766e-007
5.34821e-007
5.34877e-007
5.3493e-007
5.34981e-007
5.35029e-007
5.35079e-007
5.35134e-007
5.35191e-007
5.35248e-007
5.35307e-007
5.35362e-007
5.35418e-007
5.35473e-007
5.35528e-007
5.35581e-007
5.35634e-007
5.35688e-007
5.35741e-007
5.35792e-007
5.35845e-007
5.35895e-007
5.35948e-007
5.35998e-007
5.36047e-007
5.36098e-007
5.36143e-007
5.36193e-007
5.36238e-007
5.36286e-007
5.36327e-007
5.36377e-007
5.36416e-007
5.3646e-007
5.36508e-007
5.36538e-007
5.36592e-007
5.36621e-007
5.36662e-007
5.36694e-007
5.36728e-007
5.3677e-007
5.36793e-007
5.3684e-007
5.36862e-007
5.36907e-007
5.36945e-007
5.36977e-007
5.37006e-007
5.37028e-007
5.37063e-007
5.37086e-007
5.37115e-007
5.37137e-007
5.37156e-007
5.37174e-007
5.37189e-007
5.37201e-007
5.37213e-007
5.37218e-007
5.37228e-007
5.37232e-007
5.37235e-007
5.37236e-007
5.37234e-007
5.3723e-007
5.37223e-007
5.37215e-007
5.37202e-007
5.37189e-007
5.3717e-007
5.37151e-007
5.37126e-007
5.37101e-007
5.3707e-007
5.37037e-007
5.36996e-007
5.36954e-007
5.36907e-007
5.36855e-007
5.36798e-007
5.36749e-007
5.36699e-007
5.36648e-007
5.36592e-007
5.36535e-007
5.36472e-007
5.36407e-007
5.36326e-007
5.36273e-007
5.36184e-007
5.36158e-007
5.36e-007
5.36557e-007
5.35179e-007
5.35684e-007
5.44303e-007
5.33419e-007
4.70052e-007
2.14641e-006
0.000248224
0.0185163
1.46085e-007
1.46115e-007
1.46132e-007
1.46163e-007
1.46208e-007
1.46238e-007
1.4624e-007
1.46244e-007
1.4627e-007
1.46324e-007
1.4636e-007
1.46366e-007
1.46364e-007
1.46376e-007
1.46428e-007
1.46477e-007
1.46523e-007
1.46554e-007
1.46587e-007
1.46618e-007
1.46637e-007
1.46647e-007
1.46665e-007
1.4669e-007
1.46719e-007
1.46748e-007
1.46777e-007
1.46803e-007
1.46828e-007
1.46849e-007
1.46871e-007
1.46896e-007
1.46924e-007
1.46953e-007
1.4698e-007
1.47007e-007
1.47035e-007
1.47062e-007
1.47089e-007
1.47116e-007
1.47143e-007
1.4717e-007
1.47198e-007
1.47226e-007
1.47255e-007
1.47282e-007
1.4731e-007
1.47337e-007
1.47364e-007
1.47391e-007
1.47418e-007
1.47445e-007
1.47471e-007
1.47498e-007
1.47524e-007
1.47549e-007
1.47574e-007
1.47599e-007
1.47624e-007
1.47648e-007
1.47672e-007
1.47695e-007
1.47718e-007
1.47741e-007
1.47763e-007
1.47785e-007
1.47806e-007
1.47829e-007
1.47848e-007
1.4787e-007
1.4789e-007
1.47909e-007
1.47933e-007
1.47952e-007
1.4797e-007
1.47987e-007
1.48007e-007
1.48025e-007
1.48042e-007
1.48063e-007
1.48077e-007
1.48096e-007
1.4811e-007
1.48122e-007
1.48137e-007
1.48153e-007
1.48169e-007
1.4818e-007
1.48194e-007
1.48205e-007
1.48215e-007
1.48226e-007
1.48235e-007
1.48244e-007
1.48252e-007
1.48258e-007
1.48265e-007
1.48269e-007
1.48273e-007
1.48276e-007
1.48277e-007
1.48278e-007
1.48277e-007
1.48275e-007
1.48271e-007
1.48267e-007
1.48261e-007
1.48254e-007
1.48245e-007
1.48235e-007
1.48223e-007
1.48211e-007
1.48197e-007
1.48181e-007
1.48162e-007
1.48142e-007
1.4812e-007
1.48097e-007
1.48074e-007
1.4805e-007
1.48025e-007
1.47998e-007
1.47966e-007
1.47934e-007
1.47896e-007
1.47858e-007
1.47816e-007
1.47795e-007
1.47385e-007
1.48269e-007
1.45988e-007
1.49694e-007
1.49818e-007
1.20761e-007
1.50405e-007
2.08195e-006
0.00022281
0.0125101
0.153682
6.06385e-008
6.0654e-008
6.06722e-008
6.069e-008
6.06996e-008
6.07053e-008
6.07197e-008
6.07437e-008
6.07675e-008
6.07795e-008
6.07818e-008
6.07904e-008
6.08123e-008
6.08342e-008
6.08556e-008
6.08752e-008
6.0894e-008
6.09067e-008
6.09121e-008
6.09177e-008
6.09306e-008
6.09526e-008
6.09746e-008
6.09919e-008
6.10092e-008
6.10211e-008
6.10329e-008
6.10479e-008
6.10657e-008
6.10844e-008
6.1109e-008
6.11275e-008
6.11431e-008
6.11602e-008
6.11771e-008
6.11939e-008
6.12106e-008
6.12272e-008
6.12438e-008
6.12606e-008
6.12776e-008
6.12949e-008
6.13124e-008
6.13293e-008
6.13459e-008
6.1362e-008
6.13781e-008
6.13939e-008
6.141e-008
6.14258e-008
6.14418e-008
6.14576e-008
6.14733e-008
6.1489e-008
6.15045e-008
6.15197e-008
6.1535e-008
6.15498e-008
6.15648e-008
6.15793e-008
6.15938e-008
6.1608e-008
6.16219e-008
6.16358e-008
6.16494e-008
6.16629e-008
6.16763e-008
6.16891e-008
6.17023e-008
6.17148e-008
6.17274e-008
6.174e-008
6.17526e-008
6.17644e-008
6.17751e-008
6.17864e-008
6.17957e-008
6.18065e-008
6.18161e-008
6.18264e-008
6.18364e-008
6.18452e-008
6.18537e-008
6.18631e-008
6.18714e-008
6.18784e-008
6.18854e-008
6.18928e-008
6.18999e-008
6.19083e-008
6.19162e-008
6.19235e-008
6.19299e-008
6.19357e-008
6.1941e-008
6.19457e-008
6.195e-008
6.19536e-008
6.19568e-008
6.19593e-008
6.19613e-008
6.19625e-008
6.19632e-008
6.19633e-008
6.19627e-008
6.19614e-008
6.19594e-008
6.19568e-008
6.19532e-008
6.19489e-008
6.19433e-008
6.19371e-008
6.19303e-008
6.19226e-008
6.19135e-008
6.19033e-008
6.18926e-008
6.18816e-008
6.18697e-008
6.18571e-008
6.18425e-008
6.1827e-008
6.1807e-008
6.17895e-008
6.1765e-008
6.17469e-008
6.17167e-008
6.16219e-008
6.24629e-008
6.05538e-008
6.5293e-008
5.86525e-008
5.54086e-008
1.77558e-007
6.83264e-006
0.000428735
0.0135218
0.126349
0.523516
3.32625e-008
3.32751e-008
3.32834e-008
3.32897e-008
3.32991e-008
3.33115e-008
3.33246e-008
3.33335e-008
3.33382e-008
3.33446e-008
3.3356e-008
3.3369e-008
3.33815e-008
3.33916e-008
3.34013e-008
3.34111e-008
3.342e-008
3.343e-008
3.34421e-008
3.34585e-008
3.34701e-008
3.34811e-008
3.34904e-008
3.35028e-008
3.35154e-008
3.35277e-008
3.35446e-008
3.35591e-008
3.35705e-008
3.3581e-008
3.35917e-008
3.36014e-008
3.36155e-008
3.36297e-008
3.36428e-008
3.36556e-008
3.36681e-008
3.36806e-008
3.3693e-008
3.37053e-008
3.37177e-008
3.37298e-008
3.37415e-008
3.37531e-008
3.37649e-008
3.3777e-008
3.37891e-008
3.38013e-008
3.38131e-008
3.38248e-008
3.38362e-008
3.38476e-008
3.38588e-008
3.38699e-008
3.38809e-008
3.38918e-008
3.39024e-008
3.39131e-008
3.39234e-008
3.39339e-008
3.3944e-008
3.3954e-008
3.39642e-008
3.39737e-008
3.39837e-008
3.39929e-008
3.40026e-008
3.40111e-008
3.40208e-008
3.40291e-008
3.40373e-008
3.4047e-008
3.40546e-008
3.40634e-008
3.40704e-008
3.40781e-008
3.40859e-008
3.40926e-008
3.41008e-008
3.41078e-008
3.41143e-008
3.41212e-008
3.41273e-008
3.41325e-008
3.41389e-008
3.41451e-008
3.41508e-008
3.41557e-008
3.41606e-008
3.41653e-008
3.41698e-008
3.41752e-008
3.41808e-008
3.41855e-008
3.41897e-008
3.4194e-008
3.41971e-008
3.4201e-008
3.42038e-008
3.42065e-008