/*--------------------------------*- C++ -*----------------------------------*\
| =========                 |                                                 |
| \\      /  F ield         | OpenFOAM: The Open Source CFD Toolbox           |
|  \\    /   O peration     | Version:  5.x                                   |
|   \\  /    A nd           | Web:      www.OpenFOAM.org                      |
|    \\/     M anipulation  |                                                 |
\*---------------------------------------------------------------------------*/
/*   Windows 32 and 64 bit porting by blueCAPE: http://www.bluecape.com.pt   *\
|  Based on Windows porting (2.0.x v4) by Symscape: http://www.symscape.com   |
\*---------------------------------------------------------------------------*/
FoamFile
{
    version     2.0;
    format      ascii;
    class       volScalarField;
    location    "260";
    object      nut;
}
// * * * * * * * * * * * * * * * * * * * * * * * * * * * * * * * * * * * * * //

dimensions      [0 2 -1 0 0 0 0];

internalField   nonuniform List<scalar> 
43900
(
5.71597e-005
5.80009e-005
5.80694e-005
5.80642e-005
5.80595e-005
5.80585e-005
5.80589e-005
5.8059e-005
5.80591e-005
5.80595e-005
5.80595e-005
5.80595e-005
5.80596e-005
5.80597e-005
5.80597e-005
5.80599e-005
5.806e-005
5.806e-005
5.80601e-005
5.80601e-005
5.80601e-005
5.80602e-005
5.80602e-005
5.80602e-005
5.80602e-005
5.80602e-005
5.80602e-005
5.80603e-005
5.80603e-005
0.000590959
7.38435e-006
4.30776e-006
4.16074e-006
4.57993e-006
4.60592e-006
4.60896e-006
4.60387e-006
4.60388e-006
4.60488e-006
4.60507e-006
4.60512e-006
4.60532e-006
4.60556e-006
4.60568e-006
4.60611e-006
4.60634e-006
4.60635e-006
4.60663e-006
4.60664e-006
4.60669e-006
4.60696e-006
4.60693e-006
4.60701e-006
4.60719e-006
4.60711e-006
4.60723e-006
4.60739e-006
4.60731e-006
0.153336
0.0455532
0.00520833
0.000107988
1.30863e-006
6.44404e-007
6.01706e-007
7.14197e-007
7.2517e-007
7.23563e-007
7.22052e-007
7.22067e-007
7.22361e-007
7.2252e-007
7.22656e-007
7.22845e-007
7.22921e-007
7.23031e-007
7.23176e-007
7.23251e-007
7.23372e-007
7.23468e-007
7.23516e-007
7.23613e-007
7.23665e-007
7.23706e-007
7.2379e-007
7.23813e-007
7.23833e-007
0.475275
0.291153
0.133595
0.0384864
0.00461089
0.000177741
4.18788e-006
2.5543e-007
1.7396e-007
1.94268e-007
2.14043e-007
2.14946e-007
2.12285e-007
2.11838e-007
2.1239e-007
2.12478e-007
2.12405e-007
2.12485e-007
2.1257e-007
2.12611e-007
2.12649e-007
2.12691e-007
2.12733e-007
2.12769e-007
2.12798e-007
2.12829e-007
2.12858e-007
2.12883e-007
2.12904e-007
0.757627
0.582204
0.414566
0.249496
0.107147
0.0268733
0.00273175
0.000131938
3.09617e-006
2.11847e-007
9.01874e-008
8.67841e-008
1.03513e-007
1.05726e-007
1.02652e-007
1.02792e-007
1.03628e-007
1.03421e-007
1.03338e-007
1.03444e-007
1.03526e-007
1.03553e-007
1.03571e-007
1.03594e-007
1.03614e-007
1.03631e-007
1.0365e-007
1.03666e-007
1.03676e-007
0.966812
0.798704
0.642355
0.490555
0.33871
0.188009
0.0683091
0.0124172
0.000923879
4.52854e-005
1.31403e-006
1.41593e-007
6.34538e-008
6.22408e-008
7.36919e-008
7.21604e-008
6.93627e-008
7.06327e-008
7.09943e-008
7.06071e-008
7.04776e-008
7.05179e-008
7.05454e-008
7.05591e-008
7.05705e-008
7.05848e-008
7.05971e-008
7.06117e-008
7.06244e-008
1.12626
0.963839
0.815431
0.674776
0.536847
0.39763
0.254313
0.112662
0.0289412
0.003166
0.000190233
9.71849e-006
3.56171e-007
7.80435e-008
4.86251e-008
5.50723e-008
6.14891e-008
5.74489e-008
5.71458e-008
5.82167e-008
5.8207e-008
5.8021e-008
5.80244e-008
5.80497e-008
5.80722e-008
5.8083e-008
5.8094e-008
5.81097e-008
5.81145e-008
1.24245
1.08461
0.941996
0.80905
0.681122
0.554413
0.426218
0.296322
0.160462
0.0521415
0.00797365
0.00058419
3.46618e-005
1.82545e-006
1.26885e-007
5.51909e-008
4.26956e-008
5.22149e-008
5.21133e-008
5.05028e-008
5.15028e-008
5.20517e-008
5.19224e-008
5.18466e-008
5.18555e-008
5.18693e-008
5.18745e-008
5.18827e-008
5.18927e-008
1.34054
1.18605
1.04739
0.919519
0.798237
0.680028
0.562065
0.442237
0.318697
0.1911
0.0710368
0.0133113
0.00115727
7.62773e-005
4.77076e-006
2.77662e-007
7.24234e-008
4.47142e-008
4.80235e-008
4.90621e-008
4.6844e-008
4.70175e-008
4.77212e-008
4.78676e-008
4.78242e-008
4.78202e-008
4.78322e-008
4.78534e-008
4.7864e-008
1.40175
1.25345
1.12052
0.998987
0.884904
0.774941
0.666322
0.556787
0.444554
0.328458
0.208723
0.0837267
0.0175926
0.00172811
0.000124181
8.535e-006
5.76054e-007
7.75047e-008
4.89499e-008
4.58531e-008
4.98406e-008
4.73273e-008
4.57723e-008
4.61442e-008
4.64696e-008
4.65166e-008
4.65215e-008
4.65215e-008
4.65215e-008
1.44565
1.30003
1.17188
1.05543
0.947292
0.844266
0.743643
0.643158
0.540993
0.435807
0.326882
0.214628
0.0892885
0.0197356
0.00208541
0.000161162
1.19737e-005
8.76895e-007
9.49143e-008
5.16195e-008
4.41612e-008
5.01639e-008
5.00038e-008
4.82109e-008
4.77166e-008
4.77691e-008
4.78202e-008
4.78377e-008
4.78501e-008
1.48377
1.34114
1.21549
1.10239
0.998127
0.899849
0.804964
0.711263
0.61691
0.520471
0.420947
0.317883
0.211716
0.0886138
0.0196507
0.00215915
0.000178793
1.43361e-005
1.14101e-006
1.19748e-007
5.76454e-008
4.21932e-008
4.63738e-008
4.98315e-008
4.91588e-008
4.86976e-008
4.86192e-008
4.861e-008
4.86206e-008
1.51065
1.37135
1.24848
1.13908
1.03851
0.944381
0.854292
0.766137
0.678129
0.588816
0.497088
0.402209
0.303876
0.202398
0.0829546
0.0179736
0.00203706
0.000182353
1.59256e-005
1.39569e-006
1.54033e-007
5.61044e-008
4.2161e-008
4.24272e-008
4.56629e-008
4.61427e-008
4.59412e-008
4.58891e-008
4.59092e-008
1.5287
1.39353
1.27374
1.16671
1.07036
0.980073
0.894262
0.810925
0.728342
0.645078
0.559986
0.472213
0.381209
0.286747
0.18909
0.0745532
0.0155514
0.00182263
0.000177461
1.69474e-005
1.63173e-006
1.84111e-007
5.404e-008
4.20961e-008
3.83079e-008
3.93311e-008
4.0437e-008
4.06097e-008
4.06294e-008
1.53964
1.40805
1.29254
1.1885
1.09436
1.00843
0.926558
0.847557
0.769774
0.69181
0.612513
0.530978
0.446547
0.3588
0.267544
0.17285
0.0646506
0.0129096
0.00157068
0.000165761
1.71989e-005
1.79987e-006
2.10453e-007
5.55856e-008
4.21062e-008
3.61705e-008
3.58929e-008
3.63295e-008
3.65455e-008
1.54475
1.41681
1.30468
1.20497
1.11369
1.03019
0.952613
0.877588
0.804146
0.730931
0.656804
0.580847
0.502349
0.420798
0.335855
0.247307
0.154933
0.0544234
0.0104393
0.00132766
0.00015199
1.71797e-005
1.95127e-006
2.41108e-007
6.00631e-008
4.27128e-008
3.8303e-008
3.65992e-008
3.6447e-008
1.54484
1.42065
1.31196
1.21552
1.12859
1.04759
0.972842
0.902025
0.832602
0.763722
0.694282
0.623373
0.550269
0.474413
0.3954
0.312939
0.226752
0.136219
0.0446705
0.00831135
0.00111483
0.000138018
1.68318e-005
2.05164e-006
2.70013e-007
6.53073e-008
4.35803e-008
4.1799e-008
4.03647e-008
1.54048
1.42015
1.31497
1.22183
1.1381
1.06153
0.988994
0.92129
0.855816
0.790937
0.725791
0.659481
0.591282
0.520625
0.447076
0.370309
0.290052
0.20594
0.11689
0.0356238
0.0064841
0.000914008
0.000120893
1.57256e-005
2.04562e-006
2.87986e-007
7.08638e-008
4.58282e-008
4.4148e-008
1.5322
1.41581
1.31422
1.22441
1.14389
1.07049
1.00217
0.936633
0.874658
0.813355
0.7521
0.689991
0.626287
0.560402
0.491879
0.420377
0.345625
0.267357
0.185084
0.0968817
0.0273079
0.00490035
0.000726917
0.00010277
1.4295e-005
1.98338e-006
2.98509e-007
7.61049e-008
4.88413e-008
1.52046
1.40812
1.31017
1.22373
1.14638
1.07606
1.01099
0.949222
0.889423
0.832108
0.774278
0.715847
0.656122
0.594523
0.53058
0.463927
0.394279
0.321403
0.245038
0.164683
0.0744794
0.0194092
0.00350107
0.000550928
8.33995e-005
1.24029e-005
1.83765e-006
2.9603e-007
7.92885e-008
1.50574
1.39754
1.3033
1.22024
1.14605
1.07875
1.01663
0.958195
0.901552
0.846478
0.792392
0.737499
0.681481
0.623791
0.563986
0.501706
0.436669
0.368647
0.297423
0.22271
0.144455
0.0561059
0.0137162
0.002515
0.000416858
6.66838e-005
1.04907e-005
1.65481e-006
2.83077e-007
1.48852
1.38452
1.29404
1.21439
1.14334
1.07901
1.01974
0.964112
0.910882
0.858098
0.806871
0.755232
0.70266
0.648607
0.592626
0.534363
0.473538
0.409926
0.343335
0.273569
0.200424
0.122593
0.0427777
0.00991028
0.00185106
0.000321139
5.40008e-005
8.93967e-006
1.46239e-006
1.46923
1.36951
1.28282
1.2066
1.13869
1.07729
1.02081
0.967907
0.917414
0.868305
0.819156
0.770734
0.721079
0.670144
0.617504
0.562807
0.505765
0.446143
0.383747
0.318403
0.249914
0.177783
0.0988843
0.0315042
0.0070765
0.00135778
0.000246503
4.35923e-005
7.44332e-006
1.44828
1.35289
1.27004
1.19726
1.13248
1.07396
1.02019
0.96989
0.921934
0.875377
0.829011
0.782822
0.736098
0.688214
0.638768
0.587423
0.533899
0.477963
0.419423
0.358112
0.293856
0.226352
0.154682
0.0754367
0.022175
0.00493603
0.000981509
0.000187327
3.42315e-005
1.42603
1.33501
1.25603
1.1867
1.12504
1.06939
1.0183
0.97054
0.925067
0.880994
0.837591
0.793641
0.749696
0.704433
0.657771
0.609382
0.558989
0.506364
0.451312
0.393669
0.333273
0.269911
0.20315
0.131347
0.0540323
0.0151248
0.00342562
0.000713293
0.000140117
1.40277
1.31615
1.24106
1.17519
1.11665
1.06384
1.01538
0.970095
0.926978
0.88517
0.84391
0.802486
0.760845
0.718284
0.674375
0.628823
0.581379
0.531832
0.479999
0.425724
0.36886
0.30924
0.246599
0.180295
0.108483
0.0396798
0.0106767
0.00245821
0.000520074
1.37873
1.29653
1.22535
1.16295
1.10753
1.05754
1.01169
0.968843
0.928061
0.888544
0.849625
0.810756
0.771122
0.730844
0.68937
0.646392
0.601656
0.554947
0.506084
0.454912
0.401288
0.345067
0.286064
0.223957
0.157938
0.0855647
0.0289234
0.00763491
0.00175661
1.35411
1.27634
1.20906
1.15013
1.09782
1.05065
1.00738
0.966944
0.928445
0.891133
0.854378
0.817663
0.780416
0.742437
0.703194
0.662574
0.620329
0.576243
0.530133
0.481837
0.431214
0.378125
0.322416
0.263885
0.202146
0.135393
0.0647071
0.0207185
0.00534895
1.32901
1.25567
1.1923
1.13683
1.08762
1.04327
1.00257
0.964517
0.928267
0.893102
0.858421
0.823704
0.788475
0.752772
0.715866
0.67759
0.637742
0.596137
0.552607
0.506999
0.459174
0.409
0.356337
0.301024
0.242797
0.18096
0.113103
0.0472732
0.0143872
1.30352
1.23459
1.17512
1.12311
1.077
1.03545
0.997312
0.96164
0.927629
0.89461
0.862023
0.829402
0.796366
0.762492
0.727752
0.691713
0.654166
0.614933
0.573854
0.530784
0.485591
0.438148
0.388328
0.335988
0.280938
0.222792
0.160328
0.092366
0.0344539
1.27766
1.21313
1.15755
1.10899
1.06596
1.0272
0.991628
0.958336
0.926568
0.895698
0.865208
0.834673
0.803753
0.77196
0.739217
0.705272
0.669906
0.632934
0.594193
0.55354
0.510842
0.465977
0.418826
0.369261
0.317137
0.262203
0.203867
0.141012
0.0718303
1.25144
1.19128
1.13955
1.09442
1.05447
1.0185
0.985488
0.954578
0.92506
0.896343
0.867939
0.839443
0.810509
0.780825
0.750161
0.718321
0.685107
0.650343
0.613871
0.575548
0.535244
0.492838
0.448215
0.401258
0.351846
0.299803
0.244801
0.186564
0.120313
1.2248
1.16896
1.12106
1.07934
1.04245
1.00927
0.978819
0.950301
0.923045
0.896496
0.870196
0.843759
0.816858
0.789205
0.760813
0.731024
0.699916
0.667314
0.63306
0.597011
0.559034
0.519006
0.476812
0.432338
0.385473
0.336082
0.283993
0.228952
0.169343
1.19767
1.1461
1.102
1.06365
1.02981
0.9994
0.971516
0.9454
0.920423
0.896065
0.871893
0.847539
0.822687
0.797041
0.770696
0.743161
0.714265
0.683872
0.651848
0.61806
0.582379
0.544683
0.504856
0.462784
0.418357
0.371458
0.321974
0.269651
0.214756
1.16995
1.1226
1.08223
1.04723
1.0164
0.988758
0.963438
0.939735
0.91706
0.894928
0.872933
0.850738
0.828065
0.804696
0.780255
0.754879
0.728193
0.700037
0.67027
0.638761
0.605381
0.570007
0.532522
0.492808
0.450756
0.406253
0.359195
0.309423
0.257272
1.14153
1.09832
1.06163
1.02992
1.00208
0.977179
0.954417
0.933135
0.912784
0.892911
0.873138
0.853153
0.832697
0.811562
0.789373
0.766143
0.74167
0.715778
0.68831
0.659123
0.628081
0.595057
0.559925
0.522565
0.482863
0.440708
0.395991
0.34862
0.29861
1.11229
1.07312
1.04005
1.01157
0.986669
0.964479
0.944261
0.9254
0.907387
0.889799
0.872283
0.854539
0.836309
0.817344
0.797361
0.776771
0.754585
0.731023
0.705921
0.679124
0.650488
0.619871
0.587141
0.552168
0.51483
0.47501
0.432598
0.387512
0.339643
1.0821
1.04689
1.01732
0.992003
0.969984
0.950463
0.932761
0.91631
0.900639
0.885355
0.870129
0.85468
0.838761
0.822147
0.80463
0.78619
0.766544
0.745499
0.722913
0.698639
0.672527
0.644428
0.614196
0.58169
0.546775
0.509322
0.469216
0.426359
0.380654
1.05088
1.01949
0.99333
0.971072
0.951854
0.93494
0.919707
0.905635
0.892293
0.879318
0.866406
0.853294
0.839758
0.825603
0.810695
0.794352
0.777337
0.758949
0.73904
0.717455
0.694036
0.668619
0.641043
0.611146
0.578774
0.543781
0.506035
0.465421
0.42185
1.01855
0.990834
0.967954
0.948643
0.932125
0.917733
0.904901
0.893157
0.882107
0.871422
0.860821
0.850061
0.838926
0.827214
0.814704
0.801007
0.786995
0.771235
0.754084
0.735334
0.71479
0.69226
0.667553
0.640477
0.610847
0.578485
0.54323
0.504943
0.46352
0.98509
0.960888
0.94113
0.924627
0.910686
0.898707
0.888183
0.878688
0.869869
0.861427
0.853107
0.844686
0.835964
0.826757
0.816891
0.806239
0.794286
0.781583
0.767474
0.751806
0.734388
0.715013
0.693459
0.6695
0.642906
0.613452
0.580929
0.545155
0.505989
0.950544
0.929664
0.912852
0.898999
0.887491
0.877797
0.869465
0.862117
0.855437
0.849159
0.843054
0.836921
0.83058
0.823864
0.816615
0.808691
0.799252
0.789892
0.778846
0.766408
0.752343
0.736406
0.718338
0.697865
0.674699
0.64855
0.619139
0.586208
0.549554
0.915029
0.89726
0.883203
0.871826
0.862594
0.85504
0.848768
0.843443
0.838787
0.834564
0.83057
0.82663
0.822583
0.818283
0.813588
0.808357
0.802424
0.795149
0.787478
0.77849
0.76801
0.755795
0.741561
0.724988
0.705724
0.683397
0.657626
0.628047
0.594349
0.878765
0.86388
0.852377
0.843297
0.836181
0.830622
0.82627
0.822832
0.820061
0.817751
0.815723
0.813826
0.811925
0.809895
0.80762
0.804982
0.801867
0.797581
0.793122
0.787489
0.780673
0.772375
0.762273
0.749999
0.735134
0.717217
0.695744
0.670202
0.640117
0.842092
0.829859
0.820711
0.81376
0.808613
0.80491
0.802342
0.800645
0.799599
0.799019
0.798753
0.798676
0.798682
0.798676
0.798573
0.798287
0.797725
0.796784
0.794517
0.792401
0.78933
0.785064
0.779294
0.771632
0.761609
0.748691
0.732238
0.711535
0.6859
0.8055
0.795688
0.788716
0.783752
0.78045
0.778484
0.777565
0.777444
0.777913
0.778808
0.780001
0.781399
0.782934
0.784556
0.786217
0.787881
0.789478
0.790966
0.79206
0.792291
0.792773
0.792442
0.79102
0.788112
0.783213
0.775812
0.765079
0.750024
0.729765
0.769645
0.762039
0.757092
0.754005
0.752454
0.752113
0.752684
0.753909
0.755579
0.757545
0.75971
0.762032
0.764503
0.76713
0.769923
0.77293
0.776051
0.779539
0.782772
0.786215
0.789219
0.792498
0.795221
0.79699
0.797235
0.795781
0.791359
0.782547
0.768657
0.735342
0.72975
0.726713
0.725423
0.725534
0.726672
0.728485
0.730672
0.733008
0.735369
0.737712
0.740079
0.742574
0.745284
0.748265
0.751812
0.755373
0.760204
0.765057
0.770505
0.776479
0.782416
0.788889
0.795073
0.800544
0.804808
0.806662
0.80516
0.798622
0.703535
0.699786
0.698562
0.698989
0.700626
0.702976
0.705575
0.708046
0.710141
0.711802
0.713083
0.71417
0.715394
0.716921
0.718741
0.721658
0.725135
0.729745
0.735482
0.742695
0.750716
0.759126
0.768223
0.778229
0.788422
0.798302
0.806871
0.812942
0.813836
0.675201
0.673131
0.673607
0.675604
0.678489
0.681546
0.684127
0.685771
0.686205
0.685573
0.684045
0.682027
0.680362
0.678912
0.678474
0.679742
0.682443
0.686708
0.692425
0.699562
0.70801
0.718193
0.729211
0.741765
0.755876
0.770805
0.785803
0.799659
0.810632
0.651201
0.650625
0.652611
0.655883
0.659493
0.662401
0.663722
0.662966
0.659812
0.654939
0.648511
0.641881
0.636043
0.631045
0.627453
0.625544
0.62552
0.627526
0.631523
0.637411
0.645167
0.655065
0.667336
0.681338
0.69788
0.716635
0.737191
0.758787
0.780442
0.632089
0.632763
0.635938
0.63997
0.643487
0.645051
0.643516
0.638576
0.629944
0.619295
0.607148
0.594428
0.582248
0.57147
0.56271
0.556268
0.552279
0.550804
0.551803
0.555173
0.560865
0.568996
0.579903
0.593701
0.61073
0.631042
0.655197
0.68294
0.714336
0.61794
0.619544
0.623437
0.627506
0.629901
0.628846
0.622986
0.612438
0.597705
0.579537
0.559372
0.538922
0.519516
0.502152
0.487462
0.475719
0.466935
0.461063
0.45799
0.457571
0.459695
0.464349
0.471783
0.482051
0.496097
0.513901
0.537195
0.565639
0.603867
0.608295
0.610457
0.614509
0.617822
0.618269
0.613355
0.602611
0.585533
0.563004
0.536949
0.509391
0.482007
0.456164
0.432819
0.412533
0.395496
0.381576
0.370654
0.362557
0.357109
0.354129
0.353536
0.355481
0.35988
0.368065
0.379175
0.397743
0.419251
0.458592
0.602282
0.604636
0.608318
0.610434
0.608073
0.599343
0.58295
0.559619
0.531075
0.49933
0.466501
0.434321
0.404066
0.376547
0.352184
0.331188
0.313369
0.298405
0.286066
0.276179
0.268441
0.262763
0.258965
0.257134
0.257757
0.260206
0.269351
0.276793
0.309331
0.598879
0.601143
0.604256
0.604774
0.599863
0.587242
0.5667
0.539252
0.506847
0.471829
0.436344
0.402056
0.370092
0.341105
0.31537
0.292876
0.27355
0.257101
0.243136
0.231586
0.222003
0.214422
0.208136
0.20409
0.200137
0.199509
0.199311
0.200865
0.210504
0.597184
0.599265
0.601772
0.601002
0.593998
0.579044
0.556078
0.526525
0.492595
0.456687
0.420877
0.386709
0.355178
0.326819
0.301832
0.280182
0.261746
0.246348
0.233755
0.223614
0.215571
0.20988
0.205467
0.20428
0.201628
0.206212
0.204427
0.217284
0.202655
0.596571
0.598527
0.600729
0.599275
0.591423
0.575599
0.552002
0.522231
0.488572
0.45338
0.418642
0.385804
0.355782
0.329061
0.305818
0.286035
0.269593
0.256332
0.246021
0.238541
0.233613
0.231522
0.231171
0.234989
0.237674
0.25074
0.252285
0.285274
0.261243
0.596718
0.598736
0.601164
0.59995
0.592479
0.577232
0.55446
0.525763
0.493398
0.459663
0.426495
0.395304
0.366995
0.342056
0.320684
0.302888
0.288574
0.277612
0.269802
0.265078
0.263187
0.264506
0.268135
0.276607
0.284734
0.304994
0.314721
0.358369
0.341865
5.80603e-005
5.80604e-005
5.80602e-005
5.80602e-005
5.80605e-005
5.80607e-005
5.80605e-005
5.80602e-005
5.80602e-005
5.80604e-005
5.80607e-005
5.80607e-005
5.80603e-005
5.80601e-005
5.80601e-005
5.80606e-005
5.80609e-005
5.80611e-005
5.80611e-005
5.80612e-005
5.80612e-005
5.80612e-005
5.80613e-005
5.80613e-005
5.80612e-005
5.80611e-005
5.8061e-005
5.80608e-005
5.80608e-005
5.80608e-005
5.80609e-005
5.8061e-005
5.8061e-005
5.80611e-005
5.80611e-005
5.80611e-005
5.80611e-005
5.80611e-005
5.80611e-005
5.80611e-005
5.80611e-005
5.80611e-005
5.80611e-005
5.80611e-005
5.80611e-005
5.80611e-005
5.80611e-005
5.80612e-005
5.80612e-005
5.80612e-005
5.80612e-005
5.80612e-005
5.80612e-005
5.80612e-005
5.80613e-005
5.80613e-005
5.80613e-005
5.80613e-005
5.80613e-005
5.80613e-005
5.80613e-005
5.80613e-005
5.80613e-005
5.80613e-005
5.80614e-005
5.80614e-005
5.80614e-005
5.80614e-005
5.80614e-005
5.80614e-005
5.80614e-005
5.80615e-005
5.80614e-005
5.80615e-005
5.80615e-005
5.80615e-005
5.80615e-005
5.80615e-005
5.80615e-005
5.80615e-005
5.80616e-005
5.80615e-005
5.80616e-005
5.80616e-005
5.80616e-005
5.80616e-005
5.80616e-005
5.80617e-005
5.80617e-005
5.80617e-005
5.80617e-005
5.80617e-005
5.80617e-005
5.80617e-005
5.80617e-005
5.80617e-005
5.80617e-005
5.80617e-005
5.80617e-005
5.80617e-005
5.80617e-005
5.80617e-005
5.80617e-005
5.80617e-005
5.80617e-005
5.80617e-005
5.80617e-005
5.80617e-005
5.80617e-005
5.80617e-005
5.80617e-005
5.80616e-005
5.80616e-005
5.80616e-005
5.80616e-005
5.80616e-005
5.80615e-005
5.80615e-005
5.80615e-005
5.80615e-005
5.80615e-005
5.80615e-005
5.80616e-005
5.80616e-005
5.80616e-005
5.80617e-005
5.80617e-005
5.80618e-005
5.80618e-005
5.80619e-005
5.80619e-005
5.8062e-005
5.80621e-005
5.80623e-005
5.80622e-005
5.80626e-005
5.80624e-005
5.80632e-005
5.93309e-005
4.60749e-006
4.60758e-006
4.60728e-006
4.60728e-006
4.60782e-006
4.60815e-006
4.60782e-006
4.60728e-006
4.60725e-006
4.60782e-006
4.60832e-006
4.60817e-006
4.60742e-006
4.60704e-006
4.60728e-006
4.60819e-006
4.60893e-006
4.60924e-006
4.60935e-006
4.60943e-006
4.60953e-006
4.60961e-006
4.60964e-006
4.60963e-006
4.60954e-006
4.60933e-006
4.60898e-006
4.60873e-006
4.60866e-006
4.60876e-006
4.60894e-006
4.60907e-006
4.60917e-006
4.60925e-006
4.60931e-006
4.60935e-006
4.60939e-006
4.60943e-006
4.60946e-006
4.60947e-006
4.60946e-006
4.60944e-006
4.60942e-006
4.60943e-006
4.60947e-006
4.60952e-006
4.60958e-006
4.60964e-006
4.60968e-006
4.60973e-006
4.60976e-006
4.6098e-006
4.60983e-006
4.60986e-006
4.6099e-006
4.60993e-006
4.60994e-006
4.60998e-006
4.60999e-006
4.61003e-006
4.61006e-006
4.61009e-006
4.61014e-006
4.61016e-006
4.61021e-006
4.61023e-006
4.61028e-006
4.6103e-006
4.61035e-006
4.61036e-006
4.61041e-006
4.61046e-006
4.61041e-006
4.61056e-006
4.61049e-006
4.61058e-006
4.6106e-006
4.61062e-006
4.61068e-006
4.61065e-006
4.61074e-006
4.61072e-006
4.61084e-006
4.61089e-006
4.61092e-006
4.61095e-006
4.61096e-006
4.61101e-006
4.611e-006
4.61105e-006
4.61107e-006
4.61109e-006
4.61111e-006
4.61112e-006
4.61113e-006
4.61115e-006
4.61114e-006
4.61116e-006
4.61115e-006
4.61116e-006
4.61116e-006
4.61116e-006
4.61115e-006
4.61114e-006
4.61113e-006
4.61112e-006
4.61111e-006
4.61108e-006
4.61106e-006
4.61103e-006
4.61101e-006
4.61096e-006
4.61092e-006
4.61086e-006
4.61082e-006
4.61075e-006
4.61068e-006
4.61062e-006
4.6106e-006
4.61061e-006
4.61062e-006
4.61064e-006
4.61069e-006
4.61077e-006
4.61083e-006
4.61088e-006
4.61094e-006
4.61103e-006
4.61108e-006
4.61122e-006
4.61135e-006
4.61156e-006
4.61159e-006
4.61235e-006
4.61192e-006
4.61273e-006
4.61642e-006
4.61662e-006
4.62716e-006
7.23906e-007
7.23919e-007
7.23931e-007
7.24031e-007
7.24123e-007
7.24069e-007
7.23989e-007
7.24026e-007
7.24156e-007
7.24278e-007
7.2423e-007
7.24118e-007
7.2407e-007
7.24184e-007
7.24353e-007
7.24495e-007
7.24527e-007
7.24568e-007
7.24618e-007
7.24663e-007
7.24699e-007
7.24728e-007
7.24746e-007
7.24741e-007
7.24714e-007
7.24676e-007
7.2468e-007
7.24713e-007
7.24742e-007
7.24767e-007
7.24795e-007
7.24821e-007
7.2485e-007
7.24883e-007
7.24916e-007
7.24948e-007
7.24982e-007
7.25014e-007
7.25046e-007
7.25078e-007
7.2511e-007
7.25143e-007
7.25178e-007
7.25212e-007
7.25243e-007
7.25272e-007
7.253e-007
7.25326e-007
7.25355e-007
7.25382e-007
7.2541e-007
7.25438e-007
7.25465e-007
7.25492e-007
7.25519e-007
7.25544e-007
7.2557e-007
7.25594e-007
7.2562e-007
7.25644e-007
7.2567e-007
7.25696e-007
7.25721e-007
7.25748e-007
7.25772e-007
7.25799e-007
7.25823e-007
7.2585e-007
7.25872e-007
7.259e-007
7.25924e-007
7.25945e-007
7.25979e-007
7.25994e-007
7.26022e-007
7.26042e-007
7.26066e-007
7.2609e-007
7.26107e-007
7.26136e-007
7.26149e-007
7.26177e-007
7.26188e-007
7.26203e-007
7.26221e-007
7.26239e-007
7.2626e-007
7.26273e-007
7.26289e-007
7.26296e-007
7.26304e-007
7.26312e-007
7.26319e-007
7.26326e-007
7.26333e-007
7.26337e-007
7.26344e-007
7.26347e-007
7.26351e-007
7.26354e-007
7.26355e-007
7.26355e-007
7.26353e-007
7.2635e-007
7.26345e-007
7.26339e-007
7.26329e-007
7.26319e-007
7.26306e-007
7.26292e-007
7.26276e-007
7.26257e-007
7.26232e-007
7.26205e-007
7.26178e-007
7.26151e-007
7.26118e-007
7.26086e-007
7.26065e-007
7.26047e-007
7.26029e-007
7.26013e-007
7.25994e-007
7.25983e-007
7.25958e-007
7.25937e-007
7.25916e-007
7.25869e-007
7.25872e-007
7.25896e-007
7.25826e-007
7.25964e-007
7.25895e-007
7.25862e-007
7.26177e-007
7.29258e-007
6.39082e-007
6.52732e-007
1.58608e-005
2.1293e-007
2.12962e-007
2.12989e-007
2.13007e-007
2.13024e-007
2.13054e-007
2.13083e-007
2.13113e-007
2.1312e-007
2.13126e-007
2.13142e-007
2.13172e-007
2.13205e-007
2.13215e-007
2.13237e-007
2.13258e-007
2.13295e-007
2.13321e-007
2.13338e-007
2.13355e-007
2.1337e-007
2.13383e-007
2.13389e-007
2.13397e-007
2.1341e-007
2.13432e-007
2.1345e-007
2.13463e-007
2.13482e-007
2.13505e-007
2.13534e-007
2.13558e-007
2.13581e-007
2.13604e-007
2.13626e-007
2.13648e-007
2.1367e-007
2.13692e-007
2.13713e-007
2.13735e-007
2.13756e-007
2.13776e-007
2.13795e-007
2.13815e-007
2.13837e-007
2.13859e-007
2.13882e-007
2.13905e-007
2.13927e-007
2.13949e-007
2.1397e-007
2.13992e-007
2.14013e-007
2.14034e-007
2.14055e-007
2.14076e-007
2.14096e-007
2.14117e-007
2.14137e-007
2.14158e-007
2.14177e-007
2.14197e-007
2.14216e-007
2.14234e-007
2.14253e-007
2.14271e-007
2.1429e-007
2.14306e-007
2.14325e-007
2.14341e-007
2.14358e-007
2.14376e-007
2.14389e-007
2.14409e-007
2.14421e-007
2.14437e-007
2.1445e-007
2.14464e-007
2.1448e-007
2.1449e-007
2.14507e-007
2.14517e-007
2.14534e-007
2.14548e-007
2.1456e-007
2.14572e-007
2.14582e-007
2.14596e-007
2.14605e-007
2.14616e-007
2.14624e-007
2.14632e-007
2.14638e-007
2.14644e-007
2.14649e-007
2.14654e-007
2.14656e-007
2.1466e-007
2.14661e-007
2.14662e-007
2.14662e-007
2.14661e-007
2.1466e-007
2.14657e-007
2.14653e-007
2.14648e-007
2.14643e-007
2.14635e-007
2.14627e-007
2.14618e-007
2.14607e-007
2.14596e-007
2.14583e-007
2.14567e-007
2.1455e-007
2.14531e-007
2.14511e-007
2.14489e-007
2.14469e-007
2.1445e-007
2.1443e-007
2.14408e-007
2.14386e-007
2.14361e-007
2.14335e-007
2.14304e-007
2.14283e-007
2.14248e-007
2.14254e-007
2.1414e-007
2.14494e-007
2.13699e-007
2.1396e-007
2.18959e-007
2.12549e-007
1.81901e-007
1.61859e-006
0.000267251
0.0129217
1.03698e-007
1.03717e-007
1.03731e-007
1.03755e-007
1.03782e-007
1.03798e-007
1.03799e-007
1.03805e-007
1.03829e-007
1.03864e-007
1.03885e-007
1.03884e-007
1.03887e-007
1.03899e-007
1.03935e-007
1.03965e-007
1.03993e-007
1.04014e-007
1.04034e-007
1.0405e-007
1.04059e-007
1.04067e-007
1.04083e-007
1.04102e-007
1.04122e-007
1.04142e-007
1.04159e-007
1.04176e-007
1.04192e-007
1.04206e-007
1.04222e-007
1.0424e-007
1.04259e-007
1.04277e-007
1.04295e-007
1.04313e-007
1.04331e-007
1.04349e-007
1.04367e-007
1.04384e-007
1.04402e-007
1.04421e-007
1.0444e-007
1.04459e-007
1.04477e-007
1.04496e-007
1.04513e-007
1.04531e-007
1.04549e-007
1.04567e-007
1.04585e-007
1.04602e-007
1.0462e-007
1.04637e-007
1.04654e-007
1.04671e-007
1.04688e-007
1.04704e-007
1.04721e-007
1.04737e-007
1.04752e-007
1.04768e-007
1.04783e-007
1.04798e-007
1.04813e-007
1.04828e-007
1.04841e-007
1.04857e-007
1.04869e-007
1.04884e-007
1.04897e-007
1.0491e-007
1.04926e-007
1.04938e-007
1.0495e-007
1.04962e-007
1.04974e-007
1.04987e-007
1.04997e-007
1.05011e-007
1.05021e-007
1.05034e-007
1.05042e-007
1.05051e-007
1.05061e-007
1.0507e-007
1.0508e-007
1.05087e-007
1.05096e-007
1.05104e-007
1.05111e-007
1.05118e-007
1.05124e-007
1.0513e-007
1.05136e-007
1.0514e-007
1.05144e-007
1.05147e-007
1.0515e-007
1.05151e-007
1.05152e-007
1.05152e-007
1.05151e-007
1.0515e-007
1.05148e-007
1.05145e-007
1.0514e-007
1.05136e-007
1.0513e-007
1.05123e-007
1.05115e-007
1.05107e-007
1.05098e-007
1.05087e-007
1.05075e-007
1.05061e-007
1.05047e-007
1.05032e-007
1.05018e-007
1.05002e-007
1.04985e-007
1.04968e-007
1.04946e-007
1.04925e-007
1.049e-007
1.04875e-007
1.04848e-007
1.04841e-007
1.04432e-007
1.05366e-007
1.02978e-007
1.06918e-007
1.06826e-007
7.89438e-008
1.12253e-007
2.87922e-006
0.000363877
0.0141494
0.107451
7.06371e-008
7.06545e-008
7.06753e-008
7.06917e-008
7.06987e-008
7.07054e-008
7.07264e-008
7.07529e-008
7.07756e-008
7.07806e-008
7.07831e-008
7.07964e-008
7.0822e-008
7.08449e-008
7.08627e-008
7.08825e-008
7.08996e-008
7.0909e-008
7.09112e-008
7.09174e-008
7.09343e-008
7.09605e-008
7.09807e-008
7.0997e-008
7.10137e-008
7.10246e-008
7.1037e-008
7.10544e-008
7.10737e-008
7.10948e-008
7.11196e-008
7.11357e-008
7.1151e-008
7.11681e-008
7.11852e-008
7.12021e-008
7.12188e-008
7.12353e-008
7.12519e-008
7.12687e-008
7.12858e-008
7.13031e-008
7.13203e-008
7.13368e-008
7.13531e-008
7.13693e-008
7.13853e-008
7.1401e-008
7.1417e-008
7.14327e-008
7.14485e-008
7.14641e-008
7.14798e-008
7.14953e-008
7.15106e-008
7.15257e-008
7.15409e-008
7.15557e-008
7.15705e-008
7.15849e-008
7.15992e-008
7.16134e-008
7.16272e-008
7.16409e-008
7.16545e-008
7.16678e-008
7.16813e-008
7.16935e-008
7.17073e-008
7.17191e-008
7.17318e-008
7.17445e-008
7.17559e-008
7.17676e-008
7.17785e-008
7.17896e-008
7.17991e-008
7.1809e-008
7.1819e-008
7.18284e-008
7.18378e-008
7.18461e-008
7.18547e-008
7.18642e-008
7.18721e-008
7.18796e-008
7.18867e-008
7.18941e-008
7.19007e-008
7.19092e-008
7.19168e-008
7.1924e-008
7.19306e-008
7.19364e-008
7.19417e-008
7.19465e-008
7.19505e-008
7.19544e-008
7.19574e-008
7.19599e-008
7.19618e-008
7.19629e-008
7.19635e-008
7.19634e-008
7.19627e-008
7.19611e-008
7.19591e-008
7.1956e-008
7.19522e-008
7.19475e-008
7.19416e-008
7.19349e-008
7.19278e-008
7.19196e-008
7.19103e-008
7.18996e-008
7.18886e-008
7.18774e-008
7.18654e-008
7.18528e-008
7.1838e-008
7.18224e-008
7.18015e-008
7.17844e-008
7.17588e-008
7.17423e-008
7.17086e-008
7.15625e-008
7.30388e-008
6.97536e-008
7.80586e-008
6.63669e-008
6.524e-008
2.96067e-007
1.71404e-005
0.000938174
0.0218394
0.134919
0.365034
5.81265e-008
5.81459e-008
5.81569e-008
5.81658e-008
5.81825e-008
5.82016e-008
5.82194e-008
5.82276e-008
5.82324e-008
5.82443e-008
5.82631e-008
5.82821e-008
5.82966e-008
5.83106e-008
5.83233e-008
5.83341e-008
5.8343e-008
5.83589e-008
5.8381e-008
5.84069e-008
5.84206e-008
5.84304e-008
5.84423e-008
5.84612e-008
5.84793e-008
5.84998e-008
5.85263e-008
5.85454e-008
5.85594e-008
5.85719e-008
5.85818e-008
5.85962e-008
5.86172e-008
5.86371e-008
5.86554e-008
5.8673e-008
5.86902e-008
5.87073e-008
5.87242e-008
5.87411e-008
5.87578e-008
5.8774e-008
5.87895e-008
5.88052e-008
5.88214e-008
5.8838e-008
5.88547e-008
5.88715e-008
5.88876e-008
5.89037e-008
5.89194e-008
5.89349e-008
5.89501e-008
5.89651e-008
5.89799e-008
5.89947e-008
5.90089e-008
5.90234e-008
5.90372e-008
5.90512e-008
5.90649e-008
5.90783e-008
5.90921e-008
5.91049e-008
5.91183e-008
5.91308e-008
5.91437e-008
5.91557e-008
5.91681e-008
5.91797e-008
5.91905e-008
5.92032e-008
5.92137e-008
5.92252e-008
5.92352e-008
5.92454e-008
5.92566e-008
5.9266e-008
5.92772e-008
5.9286e-008
5.92951e-008
5.93047e-008
5.93133e-008
5.93199e-008
5.93284e-008
5.93367e-008
5.93437e-008
5.93497e-008
5.93565e-008
5.93623e-008
5.93683e-008
5.93754e-008
5.93829e-008
5.93895e-008
5.93954e-008
5.94013e-008
5.94059e-008
5.94112e-008
5.94151e-008
5.9419e-008
5.94222e-008
5.94249e-008
5.9427e-008
5.94283e-008
5.94292e-008
5.94293e-008
5.94288e-008
5.94272e-008
5.94253e-008
5.94222e-008
5.9418e-008
5.94123e-008
5.94062e-008
5.93989e-008
5.93907e-008
5.9381e-008
5.93713e-008
5.93614e-008
5.9351e-008
5.93397e-008
5.93272e-008
5.93134e-008
5.92958e-008
5.92813e-008
5.92594e-008
5.92287e-008
5.92252e-008
5.96018e-008
5.61903e-008
6.37132e-008
4.53135e-008
6.83775e-008