/*--------------------------------*- C++ -*----------------------------------*\
| =========                 |                                                 |
| \\      /  F ield         | OpenFOAM: The Open Source CFD Toolbox           |
|  \\    /   O peration     | Version:  5.x                                   |
|   \\  /    A nd           | Web:      www.OpenFOAM.org                      |
|    \\/     M anipulation  |                                                 |
\*---------------------------------------------------------------------------*/
/*   Windows 32 and 64 bit porting by blueCAPE: http://www.bluecape.com.pt   *\
|  Based on Windows porting (2.0.x v4) by Symscape: http://www.symscape.com   |
\*---------------------------------------------------------------------------*/
FoamFile
{
    version     2.0;
    format      ascii;
    class       volScalarField;
    location    "260";
    object      p;
}
// * * * * * * * * * * * * * * * * * * * * * * * * * * * * * * * * * * * * * //

dimensions      [0 2 -2 0 0 0 0];

internalField   nonuniform List<scalar> 
43900
(
0.349458
0.349108
0.349067
0.34894
0.348738
0.348511
0.348311
0.347977
0.347735
0.34741
0.347087
0.346758
0.346411
0.346051
0.345682
0.345302
0.344913
0.344515
0.344109
0.343695
0.343274
0.342847
0.342412
0.341972
0.341527
0.341076
0.34062
0.34016
0.339694
0.34744
0.355518
0.349381
0.35267
0.350159
0.350913
0.349995
0.349823
0.349371
0.348941
0.34854
0.348104
0.347672
0.347244
0.346813
0.346379
0.345941
0.345501
0.345058
0.34461
0.344159
0.343705
0.343246
0.342784
0.342317
0.341847
0.341373
0.340895
0.340414
0.340638
0.362403
0.351317
0.357569
0.352477
0.355061
0.352676
0.353013
0.351925
0.351513
0.350926
0.350363
0.349829
0.349297
0.348772
0.348254
0.347742
0.347233
0.346727
0.346225
0.345724
0.345224
0.344725
0.344224
0.343725
0.343223
0.342719
0.342216
0.341709
0.335753
0.363445
0.356705
0.356519
0.356165
0.355736
0.354646
0.354608
0.353812
0.353441
0.352874
0.352361
0.351839
0.351317
0.350794
0.350269
0.349743
0.349214
0.348688
0.34816
0.347629
0.347098
0.346564
0.346031
0.345496
0.344956
0.344418
0.343875
0.343328
0.338254
0.36212
0.357106
0.356496
0.356474
0.356044
0.355849
0.355616
0.355091
0.354784
0.354352
0.35393
0.353508
0.353067
0.352614
0.352152
0.351676
0.351193
0.3507
0.350197
0.349689
0.349171
0.34865
0.348119
0.34758
0.34704
0.346489
0.345932
0.345377
0.343289
0.361363
0.358324
0.358022
0.357953
0.35755
0.357285
0.357038
0.356821
0.356555
0.35619
0.355851
0.355483
0.3551
0.354701
0.354285
0.353856
0.353414
0.352959
0.352491
0.352006
0.351514
0.351009
0.35049
0.349968
0.34943
0.348881
0.348329
0.347758
0.349437
0.363341
0.361528
0.361002
0.36096
0.360821
0.360496
0.360049
0.359732
0.359505
0.359175
0.358816
0.358447
0.358058
0.357657
0.357237
0.356802
0.356359
0.355897
0.355415
0.354927
0.354421
0.353895
0.353365
0.352812
0.352248
0.351679
0.351086
0.350484
0.356092
0.367392
0.366225
0.365616
0.365443
0.365306
0.365093
0.364744
0.364284
0.363841
0.363503
0.363132
0.362715
0.362286
0.361843
0.361385
0.360916
0.360426
0.35992
0.35941
0.358873
0.35832
0.357765
0.357179
0.356583
0.355979
0.355347
0.35471
0.354068
0.363966
0.372981
0.372276
0.371645
0.371369
0.371161
0.370912
0.370606
0.370214
0.369697
0.369179
0.368763
0.368324
0.367847
0.367349
0.366836
0.36631
0.365763
0.365201
0.364607
0.364008
0.363403
0.362756
0.362102
0.361445
0.360753
0.360055
0.359343
0.358592
0.373267
0.380012
0.379618
0.378985
0.378627
0.378349
0.378043
0.377695
0.377303
0.376842
0.376274
0.375668
0.375144
0.374617
0.374069
0.373494
0.372899
0.372282
0.371636
0.370988
0.370309
0.369585
0.368868
0.368137
0.367355
0.366566
0.365762
0.364943
0.364124
0.382592
0.388478
0.388186
0.387525
0.387102
0.386761
0.386394
0.385982
0.385528
0.385028
0.384463
0.383805
0.383086
0.382434
0.381792
0.38114
0.380462
0.379759
0.37904
0.378283
0.377496
0.37672
0.375892
0.375022
0.374178
0.373314
0.372391
0.371455
0.370492
0.392701
0.398031
0.397789
0.397097
0.396617
0.396217
0.395789
0.395313
0.394788
0.394212
0.393581
0.392882
0.392098
0.391252
0.390453
0.389667
0.388867
0.38804
0.387183
0.386311
0.385411
0.384462
0.383503
0.382534
0.3815
0.380434
0.379373
0.3783
0.377203
0.403992
0.408617
0.408404
0.407689
0.407154
0.406695
0.406206
0.405665
0.40507
0.404416
0.403699
0.402915
0.402053
0.4011
0.400085
0.399106
0.398146
0.397161
0.396139
0.395086
0.394016
0.392916
0.391788
0.390615
0.389426
0.388241
0.386997
0.385691
0.384373
0.41611
0.420216
0.420004
0.41926
0.418672
0.418151
0.4176
0.416992
0.416325
0.415592
0.41479
0.413912
0.412955
0.411909
0.410766
0.409561
0.408387
0.407231
0.406045
0.404832
0.403601
0.402316
0.401009
0.399666
0.398269
0.396855
0.395401
0.393954
0.39251
0.429038
0.432761
0.432535
0.431757
0.431115
0.430536
0.429924
0.429251
0.428513
0.427705
0.426819
0.425852
0.424799
0.423655
0.422412
0.42107
0.41968
0.418307
0.416947
0.415562
0.414132
0.412675
0.411196
0.409659
0.408082
0.406503
0.404869
0.40316
0.401413
0.442669
0.446109
0.445856
0.445038
0.444341
0.4437
0.443021
0.442276
0.441459
0.440565
0.439586
0.438515
0.437348
0.436082
0.434712
0.433231
0.431648
0.430019
0.428391
0.426772
0.425118
0.423415
0.421709
0.419938
0.418079
0.416197
0.414292
0.412398
0.41047
0.456919
0.460149
0.459861
0.458996
0.458238
0.45753
0.456777
0.455952
0.455046
0.454053
0.452965
0.451775
0.450476
0.449065
0.447539
0.445891
0.444118
0.442239
0.440312
0.438373
0.43645
0.434493
0.432487
0.430435
0.428362
0.426264
0.42407
0.42182
0.419548
0.471727
0.474799
0.474472
0.473558
0.47274
0.471964
0.471137
0.470229
0.469234
0.468141
0.466942
0.46563
0.464198
0.462641
0.460956
0.45914
0.457188
0.455096
0.452897
0.450646
0.448397
0.446145
0.443858
0.441532
0.439135
0.436674
0.434172
0.431705
0.429155
0.486972
0.489934
0.489567
0.488601
0.487722
0.486879
0.485977
0.484985
0.483896
0.4827
0.481388
0.47995
0.47838
0.476671
0.474821
0.472827
0.470686
0.468391
0.465943
0.463387
0.46077
0.458135
0.455503
0.452801
0.450047
0.447274
0.444401
0.441448
0.438514
0.502543
0.505439
0.505033
0.504014
0.503073
0.502162
0.501184
0.500107
0.498922
0.49762
0.49619
0.494621
0.492906
0.49104
0.489017
0.486835
0.484492
0.481985
0.479309
0.476463
0.473503
0.4705
0.467489
0.464445
0.461327
0.45819
0.455028
0.451816
0.448507
0.51832
0.521195
0.520753
0.51968
0.51868
0.517703
0.516651
0.51549
0.514209
0.512799
0.511249
0.509548
0.507687
0.505661
0.503464
0.501092
0.498544
0.49582
0.492918
0.489832
0.486573
0.483215
0.479821
0.476341
0.472871
0.469371
0.465702
0.462002
0.458271
0.534176
0.537073
0.536599
0.535473
0.534415
0.533373
0.532246
0.531001
0.529623
0.528103
0.526431
0.524594
0.522584
0.520391
0.518011
0.515438
0.512672
0.509711
0.506555
0.503201
0.499645
0.495924
0.492048
0.488168
0.484185
0.480179
0.47615
0.472018
0.467849
0.549994
0.552955
0.552453
0.551275
0.550161
0.549056
0.547857
0.546527
0.545054
0.543426
0.54163
0.539654
0.537487
0.535121
0.532549
0.529767
0.526772
0.523562
0.520136
0.516495
0.512634
0.508558
0.504293
0.499893
0.495528
0.491115
0.486541
0.481971
0.477329
0.56566
0.568727
0.568201
0.566973
0.565806
0.564642
0.563373
0.561962
0.560395
0.558658
0.556737
0.554621
0.552299
0.549761
0.547
0.544009
0.540786
0.537327
0.533633
0.529703
0.525538
0.521135
0.516504
0.511687
0.506747
0.501703
0.49662
0.491436
0.48619
0.581064
0.584271
0.583728
0.582451
0.581234
0.580013
0.578677
0.577186
0.575525
0.573681
0.571638
0.569382
0.566902
0.564188
0.56123
0.558024
0.554564
0.550846
0.546869
0.542635
0.538143
0.533391
0.528373
0.523114
0.517698
0.512112
0.506413
0.500756
0.494996
0.596109
0.599488
0.598931
0.597609
0.596345
0.595071
0.593671
0.592102
0.590349
0.588397
0.586229
0.583832
0.581193
0.5783
0.575145
0.571718
0.568016
0.564034
0.55977
0.555224
0.550399
0.545295
0.539908
0.534232
0.52835
0.522275
0.51611
0.509803
0.503381
0.610706
0.614283
0.613715
0.612349
0.611041
0.609718
0.608254
0.606608
0.604763
0.602704
0.600414
0.597875
0.595074
0.592
0.588641
0.584989
0.581038
0.576783
0.572222
0.567354
0.562181
0.556707
0.550934
0.544852
0.538467
0.531846
0.525046
0.518094
0.511054
0.624779
0.628574
0.627998
0.626591
0.625243
0.623872
0.622348
0.620626
0.618691
0.616524
0.614107
0.611423
0.608456
0.605194
0.601624
0.597738
0.593528
0.588988
0.584115
0.578908
0.573367
0.567497
0.561301
0.554783
0.547935
0.540775
0.533352
0.525764
0.517961
0.638266
0.642292
0.641711
0.640265
0.638881
0.637465
0.635881
0.634085
0.632059
0.629783
0.627239
0.624406
0.621268
0.617813
0.614025
0.609896
0.605415
0.600577
0.595377
0.589815
0.58389
0.577605
0.570966
0.56398
0.556651
0.548987
0.541011
0.532758
0.524298
0.651115
0.655382
0.654795
0.653314
0.651896
0.650437
0.648796
0.646926
0.644808
0.642422
0.639748
0.636764
0.633452
0.629797
0.625784
0.6214
0.616637
0.611486
0.605944
0.600007
0.593677
0.586956
0.579852
0.572373
0.564528
0.556327
0.547804
0.53896
0.529827
0.663288
0.667799
0.667207
0.665694
0.664245
0.662746
0.661049
0.659105
0.656896
0.654399
0.651592
0.648453
0.644962
0.641099
0.63685
0.632201
0.62714
0.62166
0.615753
0.609418
0.602655
0.595468
0.587864
0.579853
0.571447
0.562658
0.553512
0.544019
0.534243
0.674761
0.679511
0.678914
0.677372
0.675897
0.674361
0.672609
0.670593
0.668293
0.665684
0.662743
0.659445
0.655767
0.651689
0.647194
0.642267
0.636893
0.631063
0.624769
0.618008
0.61078
0.603089
0.594943
0.586354
0.577338
0.567912
0.558099
0.547903
0.537405
0.685517
0.690499
0.689894
0.688329
0.686832
0.68526
0.683456
0.681369
0.678979
0.676259
0.673182
0.669722
0.665853
0.661553
0.656803
0.651584
0.64588
0.639679
0.632972
0.625755
0.618026
0.60979
0.601056
0.591837
0.582154
0.572028
0.56149
0.550546
0.539268
0.695554
0.700752
0.700137
0.698553
0.697038
0.695435
0.69358
0.691425
0.688946
0.686115
0.682902
0.679278
0.675215
0.670689
0.665674
0.660151
0.654099
0.647506
0.640359
0.632652
0.624383
0.615557
0.606183
0.596277
0.585863
0.574968
0.563631
0.55188
0.539766
0.704874
0.710268
0.709642
0.708043
0.706515
0.704884
0.702983
0.700761
0.698196
0.695255
0.691907
0.688119
0.68386
0.679101
0.673815
0.667976
0.661563
0.654556
0.646942
0.638711
0.629861
0.620394
0.610322
0.599663
0.588444
0.576699
0.564474
0.551819
0.53877
0.713491
0.719055
0.718415
0.716808
0.715272
0.713617
0.711672
0.709389
0.70674
0.703693
0.700212
0.696261
0.691805
0.686811
0.681245
0.675081
0.668291
0.660852
0.652743
0.643955
0.63448
0.62432
0.613486
0.602
0.589891
0.577202
0.563985
0.550306
0.536211
0.721423
0.727129
0.726471
0.724863
0.723325
0.721649
0.719666
0.717325
0.714598
0.711449
0.707839
0.703727
0.699075
0.693844
0.687996
0.6815
0.67432
0.666428
0.6578
0.648419
0.638275
0.627366
0.615703
0.603309
0.590217
0.576478
0.562155
0.547326
0.532065
0.728697
0.734513
0.733833
0.73223
0.730697
0.729006
0.726987
0.724594
0.721794
0.718548
0.714813
0.710546
0.705701
0.700235
0.694106
0.687272
0.679691
0.671331
0.66216
0.652152
0.641293
0.629577
0.617013
0.603624
0.589448
0.574544
0.558987
0.542873
0.526308
0.735342
0.741234
0.740529
0.73894
0.737417
0.735715
0.733668
0.731228
0.728361
0.725025
0.721171
0.716753
0.71172
0.706025
0.699614
0.692438
0.684452
0.675612
0.665876
0.65521
0.643591
0.631009
0.617467
0.602987
0.587614
0.571415
0.554481
0.536926
0.518891
0.741391
0.747326
0.746593
0.745025
0.743519
0.741813
0.739743
0.737262
0.734336
0.730916
0.726952
0.72239
0.717177
0.711256
0.704567
0.697054
0.688661
0.67933
0.66901
0.657657
0.645235
0.631725
0.617124
0.601452
0.584756
0.567113
0.548633
0.529458
0.509763
0.746878
0.752825
0.752062
0.750524
0.749042
0.747337
0.745251
0.742738
0.739759
0.736264
0.732198
0.727502
0.722117
0.715979
0.709022
0.701179
0.692378
0.682551
0.671635
0.65957
0.646304
0.631805
0.61606
0.599082
0.580921
0.561664
0.541445
0.520439
0.498866
0.751838
0.757771
0.756977
0.755478
0.754028
0.75233
0.750234
0.747696
0.744674
0.741112
0.736953
0.732134
0.726588
0.720246
0.713033
0.704866
0.695668
0.685351
0.673833
0.661035
0.646889
0.631342
0.614364
0.59596
0.576175
0.555109
0.532922
0.509833
0.486122
0.756302
0.762205
0.761378
0.759928
0.758516
0.756832
0.754734
0.752179
0.749122
0.745503
0.741262
0.736331
0.730638
0.724106
0.716651
0.708181
0.698599
0.687804
0.675685
0.662147
0.647094
0.630446
0.61215
0.592191
0.570608
0.547507
0.52308
0.497602
0.471438
0.7603
0.766169
0.765307
0.763915
0.762548
0.760884
0.758791
0.756227
0.753143
0.749477
0.745164
0.740135
0.734311
0.727609
0.719933
0.711181
0.701238
0.689985
0.677288
0.663013
0.647038
0.629249
0.609557
0.587915
0.564344
0.538954
0.511967
0.483728
0.454716
0.763855
0.769704
0.768803
0.767477
0.76616
0.764522
0.762441
0.759875
0.756771
0.753067
0.748695
0.743582
0.737646
0.730796
0.722928
0.713925
0.703657
0.691978
0.678733
0.663749
0.64686
0.627908
0.606756
0.583313
0.557561
0.529601
0.499682
0.46823
0.435877
0.766987
0.772848
0.771903
0.770647
0.769386
0.767777
0.765713
0.763151
0.760036
0.756303
0.751885
0.746705
0.74068
0.733711
0.725686
0.716475
0.705927
0.693873
0.680127
0.664481
0.646716
0.626609
0.603964
0.57862
0.550504
0.519675
0.486403
0.451193
0.414885
0.769713
0.775636
0.774633
0.773454
0.77225
0.770675
0.768633
0.766081
0.762963
0.759213
0.754764
0.74954
0.743456
0.736407
0.728272
0.718907
0.708144
0.695784
0.681607
0.665367
0.64679
0.625576
0.601443
0.574139
0.543503
0.509512
0.472419
0.432799
0.391777
0.772048
0.778097
0.777018
0.775919
0.774773
0.773233
0.771219
0.768686
0.765576
0.761827
0.757373
0.752139
0.746039
0.738961
0.730777
0.72133
0.710433
0.697859
0.68335
0.666611
0.647314
0.625082
0.599523
0.570256
0.536994
0.499561
0.458162
0.413365
0.3667
0.774012
0.780253
0.779073
0.778059
0.77697
0.77547
0.773491
0.770991
0.767911
0.764194
0.759775
0.754581
0.748524
0.741487
0.733333
0.723888
0.71295
0.700267
0.685547
0.668446
0.648567
0.62545
0.598597
0.567443
0.531531
0.490427
0.444246
0.393354
0.339919
0.77563
0.782117
0.780808
0.779887
0.778856
0.777404
0.775477
0.773033
0.770019
0.766379
0.762053
0.756965
0.751022
0.744106
0.736068
0.726726
0.715856
0.703192
0.688409
0.671117
0.650853
0.627056
0.599113
0.566251
0.527795
0.48289
0.431519
0.373467
0.311874
0.776933
0.783697
0.782237
0.78142
0.780452
0.779061
0.777211
0.77486
0.771959
0.768454
0.764286
0.759378
0.753634
0.746929
0.739108
0.729983
0.719314
0.706817
0.692143
0.674863
0.654458
0.630262
0.601539
0.567264
0.526549
0.477887
0.421112
0.354734
0.283338
0.777956
0.785005
0.783378
0.782684
0.781784
0.780477
0.778734
0.776517
0.77378
0.770471
0.766532
0.761885
0.756429
0.750032
0.742534
0.73374
0.723404
0.711227
0.696843
0.67979
0.659511
0.635246
0.606162
0.570927
0.528474
0.476383
0.414362
0.338542
0.255565
0.778747
0.78606
0.784264
0.783714
0.78289
0.781689
0.780084
0.778039
0.775511
0.772452
0.7688
0.764471
0.759363
0.753338
0.746233
0.737849
0.72794
0.716201
0.70226
0.685632
0.665739
0.641742
0.612756
0.577122
0.533658
0.478801
0.412137
0.326186
0.2297
0.779352
0.786898
0.78494
0.784551
0.78381
0.782733
0.781285
0.779435
0.777136
0.77434
0.770978
0.766964
0.762192
0.756528
0.749808
0.741836
0.732368
0.721101
0.707664
0.691559
0.672208
0.648698
0.620144
0.584576
0.540776
0.483968
0.413461
0.317529
0.20493
0.779773
0.787522
0.785417
0.785195
0.784535
0.783583
0.78229
0.780619
0.778522
0.775945
0.772814
0.769045
0.764531
0.75914
0.752714
0.745059
0.735935
0.725042
0.712014
0.696341
0.677453
0.654374
0.626243
0.590795
0.546864
0.488454
0.414365
0.308636
0.175858
0.779902
0.787826
0.785588
0.785517
0.784914
0.784054
0.782867
0.781315
0.779346
0.776902
0.773912
0.770286
0.76592
0.760682
0.754417
0.746931
0.737985
0.727276
0.714438
0.698948
0.680237
0.657258
0.629178
0.593402
0.548932
0.488266
0.410038
0.291523
0.133511
0.779779
0.78782
0.785462
0.785501
0.784914
0.784085
0.782922
0.781392
0.779448
0.777033
0.774076
0.770488
0.766161
0.760963
0.754735
0.747281
0.738358
0.727653
0.714791
0.699231
0.680392
0.657141
0.628665
0.591976
0.546345
0.482396
0.3996
0.264335
0.0734043
0.780763
0.788817
0.786425
0.78655
0.78602
0.785256
0.784142
0.782634
0.78068
0.778222
0.775196
0.771519
0.767091
0.761785
0.755443
0.747869
0.738814
0.727958
0.714911
0.699109
0.679945
0.656217
0.62707
0.589245
0.542016
0.474759
0.387972
0.240753
0.0171341
0.786461
0.794586
0.792404
0.792748
0.792674
0.792503
0.792061
0.791208
0.789806
0.787746
0.784941
0.781318
0.776797
0.771278
0.764629
0.756673
0.74718
0.735845
0.722279
0.705935
0.686145
0.661835
0.631733
0.593512
0.544066
0.477207
0.385497
0.253566
0.11634
0.339141
0.338497
0.337845
0.337187
0.336522
0.335851
0.335174
0.334492
0.333805
0.333112
0.332414
0.33171
0.331003
0.330291
0.329575
0.328855
0.32813
0.327402
0.32667
0.325935
0.325197
0.324457
0.323715
0.322971
0.322226
0.321479
0.320732
0.319984
0.319235
0.318486
0.317736
0.316986
0.316237
0.315488
0.314739
0.313992
0.313245
0.3125
0.311756
0.311014
0.310273
0.309535
0.308799
0.308066
0.307336
0.306608
0.305884
0.305164
0.304447
0.303733
0.303025
0.30232
0.30162
0.300925
0.300235
0.29955
0.29887
0.298196
0.297528
0.296866
0.296211
0.295561
0.294918
0.294282
0.293652
0.29303
0.292415
0.291807
0.291206
0.290614
0.290029
0.289452
0.288883
0.288323
0.287771
0.287228
0.286694
0.286168
0.285652
0.285144
0.284646
0.284158
0.283679
0.283209
0.282749
0.282299
0.281859
0.28143
0.28101
0.280601
0.280203
0.279815
0.279438
0.279071
0.278715
0.278371
0.278037
0.277714
0.277402
0.277101
0.276812
0.276533
0.276266
0.276009
0.275764
0.27553
0.275306
0.275094
0.274892
0.274702
0.274521
0.274352
0.274192
0.274043
0.273903
0.273774
0.273653
0.273543
0.273442
0.27335
0.273269
0.273196
0.273132
0.273077
0.273031
0.272992
0.27296
0.272937
0.272917
0.272908
0.272903
0.272905
0.272916
0.272928
0.272961
0.272984
0.273052
0.273068
0.273222
0.339842
0.339177
0.338506
0.337828
0.337143
0.336454
0.335759
0.335059
0.334352
0.333641
0.332926
0.332207
0.331484
0.330756
0.330024
0.32929
0.328554
0.327814
0.327073
0.326331
0.325586
0.324843
0.324097
0.323346
0.32259
0.321833
0.321076
0.320317
0.319554
0.318789
0.318023
0.317256
0.316489
0.315721
0.314953
0.314185
0.313418
0.312651
0.311886
0.311121
0.310358
0.309597
0.308838
0.308081
0.307327
0.306576
0.305827
0.305082
0.30434
0.303602
0.302868
0.302138
0.301413
0.300692
0.299976
0.299265
0.298559
0.297859
0.297165
0.296476
0.295794
0.295118
0.294449
0.293787
0.293132
0.292484
0.291844
0.291211
0.290587
0.289971
0.289362
0.288763
0.288172
0.28759
0.287017
0.286454
0.2859
0.285355
0.28482
0.284295
0.28378
0.283275
0.282781
0.282297
0.281823
0.28136
0.280909
0.280467
0.280037
0.279617
0.279209
0.278812
0.278426
0.278051
0.277688
0.277336
0.276995
0.276666
0.276349
0.276043
0.275749
0.275467
0.275197
0.274939
0.274692
0.274457
0.274234
0.274023
0.273823
0.273636
0.27346
0.273296
0.273143
0.273003
0.272873
0.272756
0.272649
0.272554
0.272469
0.272395
0.272329
0.272274
0.272227
0.272188
0.272156
0.272133
0.272115
0.272102
0.272099
0.27209
0.272099
0.272093
0.272119
0.272092
0.272138
0.272099
0.27214
0.272084
0.272042
0.341108
0.340415
0.339714
0.339008
0.338298
0.337582
0.336859
0.33613
0.335396
0.334656
0.333911
0.333158
0.332398
0.331634
0.330865
0.330088
0.329306
0.328518
0.327724
0.326923
0.326116
0.325305
0.324508
0.323727
0.322949
0.32217
0.321367
0.320547
0.319728
0.31891
0.318092
0.317275
0.316459
0.315644
0.314829
0.314015
0.313202
0.31239
0.311578
0.310768
0.30996
0.309154
0.308351
0.30755
0.306752
0.305958
0.305167
0.30438
0.303597
0.302819
0.302044
0.301275
0.300511
0.299752
0.298998
0.29825
0.297508
0.296773
0.296043
0.295321
0.294605
0.293896
0.293195
0.292501
0.291815
0.291137
0.290467
0.289806
0.289153
0.288508
0.287873
0.287245
0.286627
0.286019
0.285421
0.284833
0.284254
0.283685
0.283127
0.282577
0.282039
0.281511
0.280995
0.280489
0.279994
0.279511
0.279038
0.278577
0.278127
0.277689
0.277264
0.276849
0.276447
0.276058
0.27568
0.275315
0.274963
0.274623
0.274296
0.273982
0.273681
0.273393
0.273118
0.272856
0.272607
0.272371
0.272149
0.27194
0.271745
0.271563
0.271395
0.27124
0.271099
0.270972
0.270859
0.27076
0.270674
0.270602
0.270543
0.270497
0.270465
0.270445
0.270438
0.270444
0.270463
0.270493
0.270538
0.270595
0.270661
0.270736
0.27083
0.270902
0.270999
0.271128
0.271116
0.271385
0.271164
0.271816
0.271137
0.342686
0.341937
0.341184
0.34043
0.339665
0.338895
0.33812
0.337341
0.336554
0.335762
0.334964
0.334159
0.333354
0.332542
0.331722
0.330901
0.330076
0.329248
0.328419
0.327585
0.32675
0.325906
0.325042
0.324157
0.323262
0.322366
0.321489
0.320623
0.319754
0.318882
0.318007
0.317132
0.31626
0.315399
0.314543
0.313689
0.312834
0.311978
0.311119
0.310257
0.309394
0.308533
0.307676
0.306821
0.30597
0.305122
0.304277
0.303437
0.3026
0.301769
0.300942
0.30012
0.299304
0.298494
0.29769
0.296891
0.2961
0.295315
0.294537
0.293767
0.293004
0.292249
0.291501
0.290762
0.290031
0.289308
0.288594
0.287889
0.287193
0.286506
0.285828
0.285159
0.284501
0.283852
0.283215
0.282588
0.281971
0.281366
0.280769
0.280186
0.279614
0.279054
0.278506
0.277971
0.277448
0.276935
0.276436
0.275948
0.275474
0.275012
0.274563
0.274127
0.273704
0.273294
0.272897
0.272514
0.272145
0.271789
0.271447
0.271119
0.270805
0.270506
0.270221
0.26995
0.269695
0.269454
0.269228
0.269018
0.268823
0.268644
0.268481
0.268334
0.268203
0.268089
0.267992
0.267913
0.267851
0.267807
0.267782
0.267775
0.267787
0.267819
0.267869
0.267939
0.268029
0.268141
0.268268
0.26841
0.268596
0.268776
0.268953
0.269359
0.269202
0.270182
0.269227
0.27151
0.269001
0.27331
0.268116
0.344708
0.34393
0.34315
0.342352
0.341546
0.340737
0.339919
0.339088
0.338251
0.337409
0.336559
0.335701
0.334835
0.333962
0.333082
0.332196
0.3313
0.330393
0.32948
0.328563
0.327646
0.326723
0.32579
0.32486
0.323934
0.323001
0.322055
0.32111
0.320167
0.319222
0.318276
0.317327
0.31637
0.315405
0.31444
0.313478
0.312521
0.31157
0.310625
0.309689
0.308756
0.307818
0.306881
0.305947
0.305018
0.304093
0.303172
0.302256
0.301345
0.30044
0.29954
0.298646
0.297758
0.296876
0.296001
0.295133
0.294272
0.293419
0.292574
0.291736
0.290907
0.290087
0.289276
0.288473
0.287681
0.286899
0.286127
0.285365
0.284615
0.283876
0.283148
0.282431
0.281725
0.281032
0.280353
0.279684
0.279027
0.278383
0.277751
0.277128
0.276516
0.275922
0.27534
0.274768
0.274208
0.273662
0.273125
0.272604
0.272097
0.271604
0.271125
0.27066
0.270209
0.269772
0.26935
0.268943
0.26855
0.268174
0.267813
0.267467
0.267138
0.266825
0.266528
0.266248
0.265985
0.265739
0.265511
0.2653
0.265108
0.264933
0.264778
0.26464
0.264522
0.264422
0.264342
0.26428
0.264239
0.264218
0.264219
0.264241
0.264285
0.264352
0.264447
0.264565
0.264711
0.264885
0.265111
0.265348
0.265596
0.266113
0.266028
0.267301
0.266211
0.269497
0.265841
0.272879
0.264318
0.27819
0.258141
0.347077
0.346286
0.345469
0.344639
0.343797
0.342935
0.342058
0.34117
0.340272
0.339352
0.338424
0.337487
0.336533
0.335576
0.334609
0.333633
0.332651
0.331668
0.330681
0.329687
0.328675
0.327664
0.326651
0.325631
0.324603
0.323567
0.322536
0.321512
0.320475
0.319431
0.318387
0.317347
0.316316
0.315291
0.314258
0.313217
0.312173
0.311126
0.31008
0.309037
0.307999
0.306972
0.305955
0.30494
0.303926
0.302913
0.301902
0.300897
0.299897
0.298903
0.297917
0.296939
0.295968
0.295006
0.294053
0.293108
0.292173
0.291247
0.29033
0.289424
0.288527
0.287642
0.286767
0.285904
0.285053
0.284215
0.283388
0.282575
0.281774
0.280985
0.280214
0.279452
0.2787
0.277956
0.277222
0.276502
0.275786
0.275079
0.274386
0.273705
0.273049
0.272403
0.271768
0.271133
0.270506
0.269897
0.269312
0.268755
0.268208
0.267668
0.267136
0.266616
0.266113
0.265627
0.26516
0.264711
0.264279
0.263866
0.26347
0.263092
0.262732
0.26239
0.262067
0.261763
0.261477
0.261211
0.260963
0.260735
0.260527
0.260339
0.260172
0.260024
0.259898
0.259792
0.259708
0.259646
0.259606
0.259589
0.259596
0.259628
0.259688
0.259776
0.259895
0.260049
0.260234
0.260447
0.260697
0.26107
0.261153
0.262022
0.261529
0.263461
0.261804
0.265178
0.262076
0.267189
0.260943
0.273813
0.242687
0.349772
0.348916
0.34804
0.347161
0.346254
0.345325
0.344388
0.343433
0.34246
0.341479
0.340488
0.339485
0.33847
0.33744
0.336394
0.335346
0.33429
0.333217
0.332119
0.331011
0.329909
0.328802
0.327688
0.326556
0.325404
0.324261
0.323128
0.321965
0.320804
0.319677
0.318541
0.317367
0.316201
0.315055
0.313916
0.312783
0.311653
0.310523
0.309395
0.308267
0.307142
0.306018
0.304895
0.303778
0.302669
0.301567
0.300472
0.299381
0.298297
0.297218
0.296147
0.295084
0.294028
0.29298
0.291941
0.290911
0.28989
0.288879
0.287877
0.286886
0.285905
0.284935
0.283974
0.283024
0.282083
0.281153
0.280234
0.279326
0.278427
0.27754
0.276661
0.275793
0.274938
0.274099
0.273277
0.272471
0.271688
0.27092
0.270164
0.26942
0.268677
0.267957
0.267262
0.266587
0.265937
0.265302
0.264672
0.264042
0.263433
0.262848
0.262288
0.261752
0.261234
0.260737
0.260256
0.259792
0.259347
0.258918
0.258507
0.258113
0.257738
0.257381
0.257041
0.25672
0.256417
0.256132
0.255866
0.255619
0.25539
0.255181
0.254991
0.254821
0.254672
0.254544
0.254438
0.254355
0.254296
0.25426
0.254249
0.254263
0.254302
0.254367
0.254453
0.254567
0.254708
0.254873
0.254981
0.255337
0.255224
0.255916
0.255476
0.256496
0.255883
0.256871
0.256786
0.257233
0.256989
0.263759
0.231805
0.353275
0.352342
0.351402
0.35042
0.349432
0.348436
0.347404
0.346339
0.345255
0.344159
0.343047
0.341916
0.340756
0.339582
0.338405
0.3372
0.335968
0.334738
0.333552
0.33236
0.331114
0.329846
0.328572
0.327305
0.326078
0.324904
0.323684
0.322415
0.321148
0.319849
0.318564
0.317312
0.316036
0.314739
0.313454
0.312175
0.310896
0.309623
0.308355
0.307092
0.305834
0.304581
0.303331
0.302086
0.300848
0.299618
0.2984
0.297194
0.295999
0.294813
0.293635
0.292463
0.291299
0.290142
0.288994
0.287855
0.286726
0.285607
0.2845
0.283403
0.282318
0.281243
0.280181
0.279129
0.278092
0.277068
0.276058
0.275061
0.274079
0.273111
0.272156
0.271221
0.270303
0.269402
0.268514
0.267639
0.266777
0.265937
0.26512
0.264323
0.263552
0.262801
0.262064
0.261356
0.260666
0.25999
0.259337
0.258708
0.258096
0.257499
0.256924
0.256362
0.255816
0.255282
0.254762
0.254258
0.25377
0.253298
0.252844
0.252407
0.251988
0.251588
0.251207
0.250845
0.250502
0.250179
0.249874
0.24959
0.249325
0.249081
0.248856
0.248651
0.248467
0.248304
0.248161
0.24804
0.247939
0.247858
0.247797
0.247754
0.247727
0.247716
0.247714
0.247725
0.247746
0.247803
0.247768
0.247959
0.247837
0.248166
0.247991
0.248388
0.248286
0.248389
0.248702
0.247928
0.247723
0.254747
0.225719
0.357706
0.356674
0.355584
0.354475
0.353347
0.352173
0.350974
0.349768
0.348559
0.347314
0.346038
0.344756
0.343457
0.342148
0.34082
0.339513
0.338245
0.336909
0.3355
0.33409
0.332699
0.331362
0.330009
0.328592
0.327156
0.325661
0.324192
0.322771
0.321337
0.319911
0.318483
0.317038
0.31561
0.3142
0.312781
0.311356
0.309939
0.308529
0.307123
0.305721
0.304325
0.302936
0.301555
0.300181
0.298813
0.297451
0.296096
0.29475
0.293413
0.292085
0.29077
0.289468
0.28818
0.286907
0.285647
0.284402
0.28317
0.281953
0.28075
0.279562
0.27839
0.277233
0.276095
0.274973
0.273867
0.272777
0.271703
0.270646
0.269608
0.268587
0.267585
0.2666
0.265633
0.264685
0.263754
0.262843
0.261951
0.261078
0.260216
0.259363
0.258522
0.2577
0.256889
0.256092
0.255305
0.25454
0.253804
0.253077
0.252371
0.251693
0.251031
0.250392
0.249775
0.249179
0.248607
0.248055
0.247523
0.247011
0.246518
0.246043
0.245587
0.245148
0.244727
0.244324
0.243939
0.243572
0.243224
0.242894
0.242583
0.242291
0.242019
0.241766
0.241531
0.241315
0.241117
0.240935
0.240771
0.240622
0.240486
0.240365
0.240256
0.240161
0.240079
0.240003
0.239936
0.239914
0.239804
0.239886
0.239719
0.239914
0.239704
0.23995
0.239985
0.239689
0.240238
0.239367
0.237944
0.244713
0.219402
0.363117
0.361905
0.36068
0.359447
0.358151
0.356864
0.355578
0.354238
0.352861
0.35148
0.350074
0.348647
0.347214
0.345778
0.344304
0.342773
0.341194
0.339637
0.33811
0.336571
0.33499
0.333358
0.331745
0.330176
0.328597
0.32699
0.325378
0.323786
0.322199
0.320608
0.319011
0.317407
0.315798
0.314168
0.312527
0.310915
0.309338
0.307774
0.306216
0.304665
0.30312
0.301581
0.300048
0.298522
0.297004
0.295498
0.294008
0.292528
0.291058
0.2896
0.288156
0.286728
0.285317
0.283922
0.282545
0.281184
0.279841
0.278516
0.277208
0.275918
0.274647
0.273395
0.272161
0.270944
0.269747
0.268568
0.267405
0.266261
0.265131
0.264019
0.262933
0.261857
0.260796
0.25975
0.258716
0.257698
0.256691
0.255704
0.254751
0.253825
0.252916
0.252035
0.251193
0.250363
0.249555
0.248774
0.247999
0.247248
0.246517
0.24579
0.245083
0.244394
0.243716
0.243058
0.242417
0.241792
0.241189
0.240606
0.240044
0.239505
0.238986
0.238488
0.238011
0.237553
0.237116
0.236697
0.236298
0.235918
0.235555
0.23521
0.234882
0.234571
0.234275
0.233995
0.233729
0.233476
0.233237
0.233012
0.232798
0.232598
0.232411
0.232234
0.232076
0.231928
0.231782
0.231702
0.231536
0.231545
0.231376
0.231438
0.231341
0.231312
0.231617
0.231259
0.231164
0.230501
0.229273
0.235047
0.213102
0.369327
0.367999
0.366625
0.365184
0.363741
0.362249
0.360704
0.359161
0.357592
0.355991
0.354364
0.352724
0.351037
0.349303
0.347589
0.345898
0.344212
0.34248
0.340701
0.338921
0.337161
0.335406
0.333637
0.331841
0.330041
0.328284
0.326545
0.324757
0.322928
0.321086
0.319255
0.317437
0.315645
0.313904
0.31218
0.310434
0.308662
0.306891
0.305129
0.303386
0.301661
0.299951
0.298259
0.296574
0.294886
0.293202
0.291522
0.289874
0.288267
0.286683
0.285118
0.28357
0.282039
0.280526
0.279031
0.277555
0.276098
0.274659
0.27324
0.27184
0.270459
0.269096
0.267752
0.266426
0.265119
0.263832
0.262568
0.261324
0.260099
0.258894
0.257703
0.256537
0.255398
0.254279
0.253191
0.252126
0.251081
0.250074
0.249076
0.248082
0.24712
0.246168
0.245227
0.244317
0.243427
0.242552
0.241717
0.240901
0.240094
0.239319
0.238572
0.237838
0.237128
0.236442
0.235772
0.235127
0.234501
0.233893
0.233305
0.232731
0.232176
0.231639
0.231119
0.230617
0.230133
0.229666
0.229216
0.228782
0.228365
0.227963
0.227576
0.227204
0.226847
0.226503
0.226174
0.225859
0.225558
0.225272
0.224998
0.22474
0.224499
0.224271
0.224063
0.223882
0.22369
0.223576
0.223396
0.223345
0.223183
0.223184
0.223087
0.222903
0.222965
0.222433
0.222027
0.221446
0.220517
0.225384
0.206257
0.375892
0.374285
0.372633
0.371008
0.369316
0.367545
0.365811
0.364046