/*--------------------------------*- C++ -*----------------------------------*\
| =========                 |                                                 |
| \\      /  F ield         | OpenFOAM: The Open Source CFD Toolbox           |
|  \\    /   O peration     | Version:  5.x                                   |
|   \\  /    A nd           | Web:      www.OpenFOAM.org                      |
|    \\/     M anipulation  |                                                 |
\*---------------------------------------------------------------------------*/
/*   Windows 32 and 64 bit porting by blueCAPE: http://www.bluecape.com.pt   *\
|  Based on Windows porting (2.0.x v4) by Symscape: http://www.symscape.com   |
\*---------------------------------------------------------------------------*/
FoamFile
{
    version     2.0;
    format      ascii;
    class       surfaceScalarField;
    location    "260";
    object      phi;
}
// * * * * * * * * * * * * * * * * * * * * * * * * * * * * * * * * * * * * * //

dimensions      [0 3 -1 0 0 0 0];

internalField   nonuniform List<scalar> 
87341
(
0.365918
39.5571
0.529604
39.7594
0.496522
39.9561
0.604034
39.8155
0.641252
39.8858
0.685964
39.8783
0.723043
39.886
0.760044
39.886
0.795689
39.8874
0.823656
39.8951
0.852005
39.8947
0.880344
39.8947
0.90663
39.8968
0.93081
39.8989
0.954729
39.8991
0.975295
39.9025
0.993555
39.9048
1.01221
39.9044
1.02891
39.9063
1.0456
39.9063
1.06255
39.9061
1.07726
39.9083
1.09218
39.9081
1.10702
39.9082
1.12019
39.9099
1.13421
39.909
1.14766
39.9096
1.1594
39.9113
39.9106
1.17188
0.97004
38.5871
1.36129
39.3681
1.47217
39.8452
1.60813
39.6796
1.64731
39.8466
1.8062
39.7194
1.90846
39.7837
2.04189
39.7526
2.13726
39.792
2.23811
39.7942
2.32505
39.8077
2.4066
39.8131
2.48775
39.8156
2.5662
39.8204
2.63522
39.8301
2.69974
39.838
2.76571
39.8388
2.82582
39.8443
2.88113
39.851
2.93307
39.8544
2.97832
39.8608
3.02198
39.8647
3.06361
39.8665
3.1003
39.8715
3.13682
39.8733
3.17015
39.8757
3.19981
39.8799
3.23121
39.8799
39.8808
3.26098
2.03381
36.5533
3.3497
38.0522
4.127
39.0679
4.20793
39.5986
4.36511
39.6895
4.29805
39.7865
4.32826
39.7535
4.30654
39.7743
4.33232
39.7662
4.35761
39.7689
4.39116
39.7742
4.42832
39.776
4.46682
39.7771
4.50566
39.7816
4.54842
39.7873
4.59678
39.7896
4.63881
39.7968
4.68014
39.8029
4.72546
39.8057
4.76746
39.8124
4.8119
39.8164
4.85676
39.8198
4.89673
39.8265
4.93928
39.829
4.98107
39.8315
5.02071
39.8361
5.06343
39.8372
5.10295
39.8404
39.8454
5.13839
1.69645
34.8568
3.49643
36.2522
4.9467
37.6177
5.83396
38.7114
6.13461
39.3888
6.22336
39.6978
6.23875
39.7381
6.26783
39.7452
6.28889
39.7452
6.31009
39.7477
6.33293
39.7514
6.35426
39.7547
6.37611
39.7553
6.39601
39.7617
6.41919
39.7642
6.44072
39.7681
6.46709
39.7704
6.49938
39.7706
6.52834
39.7767
6.56363
39.7771
6.60177
39.7782
6.63967
39.7819
6.68537
39.7808
6.73196
39.7824
6.77634
39.7872
6.82485
39.7875
6.87078
39.7913
6.91557
39.7956
39.7931
6.96784
1.08897
33.7678
2.45674
34.8845
4.0311
36.0433
5.49738
37.2451
6.56832
38.3179
7.15659
39.1095
7.36504
39.5296
7.40913
39.7012
7.45099
39.7033
7.49667
39.702
7.54386
39.7042
7.59138
39.7072
7.63649
39.7101
7.68019
39.718
7.72152
39.7228
7.76874
39.7208
7.81863
39.7205
7.86262
39.7267
7.91275
39.7266
7.96494
39.725
8.01626
39.7269
8.07082
39.7273
8.12233
39.7293
8.17218
39.7325
8.2271
39.7322
8.27949
39.7352
8.33448
39.7363
8.39525
39.7348
39.7394
8.4489
0.854548
32.9133
1.8678
33.8712
3.03787
34.8732
4.36896
35.914
5.72363
36.9632
6.86051
37.9726
7.58758
38.8026
7.93946
39.3493
8.06829
39.5745
8.14562
39.6247
8.22528
39.6245
8.30184
39.6306
8.37029
39.6417
8.43694
39.6513
8.51533
39.6444
8.59395
39.6422
8.66383
39.6506
8.74167
39.6488
8.82165
39.6466
8.89553
39.6511
8.97152
39.6509
9.04377
39.6551
9.11439
39.6587
9.18807
39.6588
9.25954
39.6608
9.33504
39.6597
9.41084
39.6605
9.47676
39.6689
39.6724
9.54375
0.746054
32.1672
1.59356
33.0237
2.54421
33.9226
3.60199
34.8562
4.75656
35.8086
5.96839
36.7608
7.07903
37.6919
7.90448
38.5238
8.3577
39.1213
8.55294
39.4295
8.66099
39.5165
8.76961
39.522
8.88464
39.5267
9.00222
39.5337
9.10969
39.537
9.21533
39.5366
9.33271
39.5333
9.44615
39.5354
9.55078
39.542
9.65785
39.544
9.7571
39.5517
9.85694
39.5552
9.96543
39.5502
10.0754
39.5489
10.1795
39.5566
10.2728
39.5664
10.3589
39.5744
10.4525
39.5752
39.5648
10.5601
0.693271
31.474
1.4555
32.2615
2.29066
33.0874
3.20094
33.9459
4.18376
34.8258
5.23017
35.7144
6.32512
36.597
7.39602
37.4529
8.26401
38.2533
8.81287
38.8806
9.07308
39.2562
9.21323
39.3818
9.3508
39.3891
9.49297
39.3916
9.63351
39.3964
9.77217
39.3979
9.90406
39.4014
10.0393
39.4001
10.1792
39.4021
10.3169
39.4063
10.4625
39.4061
10.6082
39.4095
10.7351
39.4233
10.8449
39.4391
10.9578
39.4437
11.0828
39.4414
11.2219
39.4354
11.3598
39.4373
39.4578
11.4668
0.666023
30.8079
1.38231
31.5452
2.15331
32.3164
2.98107
33.1182
3.86509
33.9418
4.80187
34.7776
5.78388
35.615
6.7951
36.4417
7.80539
37.243
8.6864
37.9996
9.30502
38.6376
9.62694
39.0599
9.80952
39.2065
9.98224
39.2188
10.1552
39.2234
10.3291
39.224
10.4974
39.233
10.6549
39.2426
10.813
39.244
10.9796
39.2397
11.1376
39.2481
11.2829
39.2642
11.4387
39.2675
11.6128
39.265
11.7902
39.2664
11.9549
39.2767
12.0917
39.2985
12.2151
39.3139
39.317
12.356
0.648327
30.1596
1.33955
30.854
2.07258
31.5834
2.84916
32.3416
3.66956
33.1214
4.5323
33.9149
5.43361
34.7137
6.36651
35.5088
7.31921
36.2903
8.27289
37.0459
9.15271
37.7578
9.82381
38.3888
10.2072
38.8231
10.4312
38.9949
10.6426
39.012
10.8449
39.0217
11.0523
39.0257
11.265
39.0299
11.4696
39.0393
11.6537
39.0557
11.8413
39.0606
12.0474
39.058
12.249
39.0659
12.4291
39.0849
12.6031
39.0923
12.7682
39.1116
12.9478
39.1189
13.1433
39.1184
39.1196
13.3406
0.64288
29.5167
1.31922
30.1776
2.03014
30.8725
2.77632
31.5954
3.55768
32.34
4.37314
33.0994
5.22045
33.8664
6.0958
34.6335
6.99323
35.3929
7.90352
36.1356
8.81073
36.8506
9.67856
37.521
10.3697
38.132
10.7892
38.5753
11.0453
38.756
11.2914
38.7756
11.5189
38.7982
11.7512
38.7976
11.983
38.8075
12.2198
38.8189
12.4514
38.829
12.6585
38.8509
12.8613
38.8631
13.0731
38.8731
13.2858
38.8796
13.5016
38.8958
13.7045
38.9161
13.899
38.9239
38.937
14.0817
0.642541
28.8742
1.31318
29.507
2.01335
30.1723
2.74329
30.8655
3.50267
31.5806
4.29039
32.3117
5.10458
33.0522
5.94247
33.7956
6.80001
34.5353
7.6713
35.2643
8.54719
35.9747
9.41152
36.6566
10.2469
37.2966
10.9404
37.8819
11.3751
38.3212
11.6546
38.4961
11.9361
38.5167
12.1828
38.5509
12.4218
38.5685
12.6602
38.5806
12.9094
38.5797
13.1675
38.5928
13.4272
38.6034
13.6734
38.6269
13.9097
38.6433
14.1404
38.665
14.3799
38.6766
14.6084
38.6954
38.7187
14.8267
0.647701
28.2265
1.32148
28.8332
2.02131
29.4725
2.74708
30.1397
3.49834
30.8294
4.27418
31.5358
5.073
32.2533
5.89251
32.9761
6.72965
33.6982
7.58023
34.4137
8.43844
35.1165
9.29569
35.7994
10.1387
36.4536
10.9539
37.0667
11.6468
37.6284
12.0894
38.0535
12.3911
38.215
12.6983
38.2437
12.9958
38.271
13.2847
38.2916
13.5702
38.2943
13.841
38.3221
14.1073
38.3371
14.3715
38.3628
14.6359
38.3789
14.8938
38.4071
15.1295
38.4409
15.3645
38.4604
38.4725
15.6107
0.659351
27.5671
1.34225
28.1503
2.04899
28.7657
2.77937
29.4093
3.53258
30.0762
4.30772
30.7607
5.10349
31.4576
5.91802
32.1615
6.74886
32.8673
7.59288
33.5697
8.44603
34.2634
9.30281
34.9426
10.1554
35.601
10.9916
36.2305
11.8002
36.8198
12.4937
37.36
12.9406
37.7681
13.2647
37.9196
13.5998
37.9358
13.9254
37.9661
14.2125
38.0072
14.4956
38.0389
14.7804
38.0523
15.0697
38.0735
15.3505
38.0981
15.6458
38.1118
15.9358
38.1509
16.2112
38.185
38.2157
16.468
0.672761
26.8944
1.36736
27.4557
2.08378
28.0493
2.82193
28.6712
3.58105
29.3171
4.35985
29.9819
5.15706
30.6603
5.97111
31.3475
6.7999
32.0386
7.64086
32.7288
8.49083
33.4134
9.34578
34.0876
10.2004
34.7464
11.0472
35.3837
11.8747
35.9922
12.6725
36.5621
13.356
37.0846
13.8021
37.4735
14.1344
37.6036
14.4527
37.6478
14.7749
37.685
15.1007
37.7131
15.4219
37.7311
15.7425
37.753
16.034
37.8066
16.2879
37.8579
16.5299
37.9088
16.7889
37.926
37.9301
17.0744
0.688842
26.2055
1.39827
26.7463
2.12803
27.3195
2.87776
27.9214
3.64697
28.5478
4.43447
29.1944
5.23861
29.8562
6.05788
30.5282
6.89049
31.2059
7.73419
31.8851
8.58634
32.5612
9.44375
33.2302
10.3025
33.8877
11.1573
34.5289
12.0013
35.1483
12.8241
35.7393
13.6154
36.2933
14.2889
36.8
14.7281
37.1644
15.0791
37.2969
15.4458
37.3183
15.806
37.3528
16.1482
37.3888
16.4709
37.4303
16.8149
37.4626
17.1782
37.4946
17.5303
37.5567
17.8432
37.6131
37.6662
18.1071
0.707638
25.4979
1.43497
26.019
2.18167
26.5728
2.9472
27.1559
3.73089
27.7642
4.53192
28.3934
5.34878
29.0394
6.17964
29.6974
7.02284
30.3627
7.87647
31.0314
8.73825
31.6995
9.60556
32.3629
10.4753
33.018
11.3436
33.6605
12.2056
34.2862
13.0549
34.89
13.8824
35.4659
14.6751
36.0072
15.3369
36.5026
15.8082
36.8256
16.1865
36.94
16.5622
36.9771
16.9286
37.0225
17.2708
37.0881
17.5776
37.1557
17.8617
37.2105
18.1763
37.2422
18.5295
37.2599
37.306
18.8896
0.726826
24.7711
1.4728
25.273
2.23745
25.8082
3.02014
26.3732
3.82
26.9643
4.63613
27.5772
5.46742
28.2081
6.31208
28.8527
7.16819
29.5066
8.03395
30.1657
8.90726
30.8261
9.78581
31.4844
10.6669
32.1368
11.5475
32.7799
12.4238
33.41
13.2909
34.0229
14.1426
34.6141
14.9712
35.1786
15.7611
35.7127
16.394
36.1927
16.8489
36.4851
17.2032
36.6229
17.5549
36.6707
17.9183
36.7247
18.3242
36.7498
18.7261
36.8086
19.0556
36.9126
19.3249
36.9906
37.0563
19.5746
0.745767
24.0253
1.51026
24.5085
2.29294
25.0255
3.0931
25.5731
3.90981
26.1476
4.74197
26.7451
5.58845
27.3616
6.44789
27.9933
7.31831
28.6362
8.19776
29.2862
9.08432
29.9396
9.97578
30.5929
10.8697
31.2429
11.7634
31.8862
12.6539
32.5196
13.5373
33.1395
14.4091
33.7423
15.2641
34.3237
16.0974
34.8794
16.8826
35.4074
17.4866
35.8811
17.9348
36.1747
18.3537
36.2519
18.7452
36.3331
19.0951
36.4
19.4451
36.4586
19.8779
36.4798
20.3443
36.5242
36.6703
20.7304
0.763559
23.2618
1.54557
23.7265
2.34543
24.2256
3.1624
24.7561
3.99549
25.3145
4.84358
25.897
5.70537
26.4998
6.57957
27.1191
7.46455
27.7512
8.35824
28.3925
9.25871
29.0391
10.164
29.6877
11.0717
30.3351
11.9796
30.9783
12.8849
31.6143
13.7846
32.2399
14.675
32.8518
15.5521
33.4466
16.411
34.0205
17.2488
34.5697
18.0282
35.1016
18.6235
35.5794
19.0669
35.8084
19.5021
35.8979
19.9496
35.9525
20.3289
36.0793
20.5938
36.215
20.8536
36.2643
36.3007
21.2233
0.779379
22.4824
1.57703
22.9288
2.39229
23.4104
3.22437
23.924
4.07227
24.4666
4.93483
25.0344
5.81069
25.6239
6.69843
26.2313
7.59662
26.853
8.50335
27.4858
9.41646
28.126
10.334
28.7701
11.2538
29.4153
12.1737
30.0585
13.0911
30.6969
14.0033
31.3277
14.9071
31.948
15.7989
32.5548
16.6744
33.1449
17.5284
33.7157
18.3635
34.2665
19.1346
34.8083
19.7019
35.2411
20.1062
35.4936
20.4745
35.5843
20.922
35.6318
21.4127
35.7243
21.8274
35.8497
36.0182
22.1098
0.793072
21.6893
1.60427
22.1176
2.43294
22.5817
3.27824
23.0787
4.13917
23.6057
5.01454
24.1591
5.903
24.7355
6.80303
25.3313
7.71308
25.943
8.63157
26.5673
9.55641
27.2012
10.4855
27.8411
11.4167
28.4841
12.3478
29.1274
13.2764
29.7682
14.2001
30.404
15.1161
31.032
16.0212
31.6497
16.912
32.2541
17.785
32.8427
18.6378
33.4137
19.4754
33.9708
20.2127
34.5038
20.7991
34.9072
21.2288
35.1546
21.5908
35.2697
21.9515
35.3636
22.4
35.4012
35.5528
22.8654
0.804455
20.8848
1.62694
21.2952
2.46679
21.7418
3.32319
22.2223
4.19514
22.7337
5.08148
23.2727
5.98085
23.8361
6.89174
24.4204
7.8125
25.0222
8.74153
25.6383
9.67703
26.2657
10.6168
26.9013
11.5589
27.542
12.501
28.1853
13.4409
28.8283
14.3762
29.4687
15.3043
30.1039
16.2227
30.7313
17.1283
31.3485
18.0181
31.953
18.8893
32.5425
19.7437
33.1164
20.5612
33.6863
21.246
34.2224
21.7954
34.6051
22.2581
34.807
22.6605
34.9612
22.9858
35.076
35.1718
23.3668
0.813395
20.0715
1.64475
20.4638
2.49341
20.8932
3.35858
21.3572
4.2393
21.853
5.13442
22.3776
6.04263
22.9279
6.96245
23.5006
7.89226
24.0924
8.83032
24.7002
9.77493
25.3211
10.7241
25.9521
11.6756
26.5905
12.6275
27.2334
13.5773
27.8785
14.5228
28.5232
15.4615
29.1651
16.3909
29.802
17.308
30.4313
18.2101
31.0509
19.0941
31.6585
19.9575
32.2529
20.8067
32.8371
21.6037
33.4255
22.2456
33.9632
22.7752
34.2774
23.2519
34.4845
23.7257
34.6022
34.8073
24.0902
0.820016
19.2514
1.65791
19.6259
2.51307
20.038
3.38476
20.4855
4.27207
20.9657
5.1739
21.4758
6.08898
22.0128
7.01588
22.5737
7.95301
23.1553
8.89863
23.7546
9.85098
24.3687
10.8082
24.9949
11.7681
25.6305
12.7288
26.2728
13.688
26.9193
14.6434
27.5677
15.5928
28.2157
16.5338
28.861
17.4637
29.5014
18.38
30.1346
19.2801
30.7584
20.1619
31.3711
21.0263
31.9727
21.8837
32.5681
22.6609
33.186
23.2577
33.6806
23.7673
33.9749
24.1893
34.1802
34.3398
24.6568
0.82427
18.4272
1.66634
18.7839
2.52564
19.1787
3.40152
19.6096
4.29312
20.0741
5.19941
20.5695
6.11919
21.093
7.05108
21.6418
7.99356
22.2128
8.94495
22.8032
9.90346
23.4102
10.8673
24.0311
11.8344
24.6634
12.8026
25.3046
13.7698
25.9521
14.7339
26.6037
15.6925
27.2571
16.6434
27.9102
17.5841
28.5607
18.5122
29.2065
19.4251
29.8455
20.3205
30.4757
21.1972
31.096
22.0575
31.7078
22.9173
32.3262
23.6247
32.9732
24.1732
33.4264
24.6527
33.7008
33.8999
25.0926
0.826303
17.6009
1.67029
17.9399
2.53148
18.3175
3.4093
18.7318
4.30297
19.1804
5.21156
19.6609
6.13392
20.1707
7.06875
20.7069
8.01458
21.267
8.96976
21.848
9.93253
22.4474
10.9011
23.0626
11.8734
23.691
12.8476
24.3304
13.8214
24.9783
14.7925
25.6326
15.7587
26.2909
16.7176
26.9512
17.667
27.6114
18.6041
28.2693
19.5267
28.9229
20.4322
29.5702
21.3185
30.2096
22.1861
30.8402
23.0485
31.4638
23.9033
32.1184
24.5696
32.7601
25.046
33.2244
33.4982
25.4477
0.826175
16.7747
1.66989
17.0962
2.53076
17.4566
3.4083
17.8542
4.30184
18.2869
5.21053
18.7522
6.13331
19.2479
7.06896
19.7713
8.01609
20.3199
8.97311
20.891
9.93834
21.4822
10.9099
22.091
11.8859
22.7151
12.8643
23.352
13.843
23.9996
14.8198
24.6558
15.7923
25.3183
16.7583
25.9852
17.7153
26.6544
18.6608
27.3238
19.5924
27.9914
20.5074
28.6552
21.4036
29.3134
22.2796
29.9643
23.1371
30.6063
23.9947
31.2608
24.8215
31.9332
25.4632
32.5827
33.0457
25.9158
0.823981
15.9507
1.66532
16.2548
2.52374
16.5982
3.39885
16.9791
4.2901
17.3956
5.19673
17.8456
6.1178
18.3268
7.05216
18.8369
7.99849
19.3735
8.95531
19.9342
9.92098
20.5165
10.8937
21.1183
11.8716
21.7372
12.8526
22.371
13.8345
23.0177
14.8153
23.675
15.7925
24.3411
16.764
25.0138
17.7271
25.6912
18.6795
26.3714
19.6186
27.0523
20.5418
27.732
21.4466
28.4086
22.3305
29.0804
23.1912
29.7457
24.0404
30.4116
24.8776
31.096
25.6674
31.7929
32.4703
26.2428
0.819826
15.1309
1.65678
15.4179
2.5107
15.7443
3.38132
16.1085
4.26822
16.5087
5.17074
16.9431
6.08804
17.4095
7.01907
17.9059
7.9626
18.43
8.91721
18.9796
9.88133
19.5524
10.8532
20.1464
11.831
20.7594
12.8127
21.3894
13.7961
22.0343
14.7789
22.6922
15.759
23.361
16.7339
24.0389
17.7011
24.724
18.6582
25.4143
19.6024
26.108
20.5313
26.8032
21.442
27.4979
22.3318
28.1906
23.1979
28.8796
24.0431
29.5664
24.8748
30.2643
25.6932
30.9745
31.7426
26.4209
0.81379
14.3171
1.64443
14.5872
2.49188
14.8969
3.35603
15.2444
4.23657
15.6282
5.13298
16.0467
6.04452
16.498
6.97025
16.9802
7.90903
17.4912
8.85953
18.0291
9.82022
18.5917
10.7894
19.1772
11.7652
19.7836
12.7457
20.4089
13.7288
21.0512
14.7121
21.7088
15.6933
22.3798
16.6699
23.0623
17.6395
23.7545
18.5993
24.4545
19.5468
25.1605
20.4792
25.8707
21.3939
26.5833
22.288
27.2964
23.1591
28.0085
24.0065
28.719
24.8367
29.4341
25.6573
30.1538
30.9597
26.4402
0.805939
13.5112
1.62839
13.7648
2.46746
14.0578
3.3232
14.3886
4.19544
14.7559
5.08379
15.1583
5.98764
15.5941
6.90617
16.0616
7.83833
16.5591
8.78288
17.0845
9.73837
17.6362
10.7032
18.2124
11.6755
18.8113
12.6532
19.4311
13.6344
20.0701
14.6166
20.7266
15.5975
21.3989
16.5745
22.0853
17.545
22.784
18.5062
23.4933
19.4553
24.2114
20.3896
24.9364
21.3062
25.6666
22.2025
26.4001
23.0758
27.1352
23.9244
27.8704
24.7507
28.6078
25.5601
29.3444
30.141
26.3788
0.796317
12.7148
1.60876
12.9523
2.43758
13.229
3.28301
13.5432
4.14506
13.8939
5.02346
14.2799
5.91774
14.6998
6.8272
15.1522
7.75093
15.6353
8.68778
16.1477
9.6364
16.6876
10.5952
17.2536
11.5625
17.844
12.5362
18.4574
13.5141
19.0922
14.494
19.7467
15.4734
20.4195
16.4497
21.109
17.42
21.8137
18.3814
22.5318
19.3311
23.2617
20.266
24.0016
21.1831
24.7495
22.0796
25.5037
22.9526
26.2621
23.8
27.023
24.6217
27.786
25.4171
28.549
29.3264
26.2317
0.784954
11.9299
1.58559
12.1517
2.40233
12.4122
3.2356
12.7099
4.08558
13.0439
4.95216
13.4133
5.83503
13.817
6.73362
14.2536
7.64715
14.7218
8.5746
15.2202
9.51471
15.7475
10.466
16.3023
11.4268
16.8832
12.3952
17.4891
13.3688
18.1185
14.3454
18.7701
15.3224
19.4425
16.2971
20.1344
17.2665
20.8443
18.2275
21.5708
19.177
22.3122
20.1117
23.0669
21.0283
23.8329
21.9236
24.6084
22.7944
25.3913
23.638
26.1795
24.4526
26.9715
25.2359
27.7658
28.5547
26.0076
0.771866
11.158
1.55891
11.3646
2.36176
11.6094
3.18104
11.8906
4.01711
12.2078
4.87006
12.5604
5.73971
12.9473
6.62567
13.3676
7.5273
13.8202
8.44372
14.3038
9.37379
14.8174
10.3161
15.36
11.2691
15.9303
12.2308
16.5274
13.199
17.1502
14.1715
17.7976
15.1454
18.4686
16.1179
19.1618
17.086
19.8762
18.0463
20.6105
18.9954
21.3631
19.9296
22.1326
20.8454
22.9171
21.739
23.7148
22.6068
24.5235
23.4454
25.3409
24.2519
26.165
25.0238
26.9938
27.8179
25.7606
0.757053
10.401
1.52875
10.5929
2.3159
10.8222
3.11937
11.0872
3.93971
11.3875
4.77718
11.7229
5.63182
12.0927
6.50338
12.4961
7.39139
12.9322
8.29513
13.4001
9.21359
13.899
10.1455
14.428
11.0893
14.9865
12.0432
15.5735
13.0051
16.1883
13.9725
16.8302
14.9428
17.4983
15.913
18.1917
16.8796
18.9096
17.8393
19.6508
18.7882
20.4142
19.7224
21.1984
20.6377
22.0018
21.5299
22.8225
22.395
23.6584
23.2288
24.5071
24.0278
25.366
24.7889
26.2327
27.1003
25.5065
0.740498
9.66046
1.49506
9.83838
2.26471
10.0526
3.05055
10.3013
3.85334
10.5847
4.67354
10.9027
5.51136
11.2549
6.36675
11.6407
7.23943
12.0595
8.12882
12.5107
9.03409
12.9937
9.95414
13.508
10.8876
14.053
11.8327
14.6284
12.7874
15.2336
13.7491
15.8684
14.7153
16.5321
15.6829
17.2242
16.6483
17.9442
17.6077
18.6914
18.5571
19.4649
19.4919
20.2636
20.4077
21.0861
21.2996
21.9307
22.1628
22.7952
22.9927
23.6772
23.7849
24.5738
24.5356
25.482
26.3964
25.2395
0.72217
8.93829
1.45781
9.10275
2.20815
9.30225
2.97454
9.53493
3.75798
9.80128
4.5591
10.1016
5.37833
10.4356
6.2158
10.8032
7.07143
11.2039
7.94484
11.6373
8.83538
12.1032
9.74211
12.6013
10.6638
13.1313
11.5989
13.6933
12.5454
14.2871
13.5009
14.9129
14.4628
15.5703
15.4277
16.2592
16.3922
16.9797
17.3521
17.7314
18.303
18.514
19.2399
19.3267
20.1576
20.1684
21.0507
21.0376
21.9135
21.9323
22.7407
22.85
23.527
23.7875
24.2678
24.7412
25.7062
24.958
0.702024
8.23627
1.41691
8.38786
2.14613
8.57304
2.89127
8.78979
3.65355
9.039
4.43381
9.3213
5.23267
9.63679
6.05048
9.98539
6.88734
10.367
7.74308
10.7815
8.61726
11.229
9.50914
11.7094
10.4177
12.2228
11.3415
12.7695
12.2788
13.3498
13.2274
13.9642
14.1846
14.6131
15.1471
15.2967
16.1112
16.0156
17.0725
16.7701
18.0263
17.5603
18.967
18.386
19.8888
19.2466
20.7853
20.1411
21.65
21.0676
22.4765
22.0236
23.2584
23.0056
23.9902
24.0094
25.0299
24.6666
0.680013
7.55626
1.37232
7.69555
2.07859
7.86677
2.80069
8.06768
3.54003
8.29966
4.29767
8.56367
5.0744
8.86006
5.87078
9.18901
6.68712
9.55066
7.52344
9.94521
8.37954
10.3729
9.25491
10.834
10.1488
11.329
11.0599
11.8583
11.9869
12.4228
12.9278
13.0233
13.8798
13.6611
14.8397
14.3368
15.804
15.0514
16.7679
15.8062
17.7263
16.6019
18.6731
17.4391
19.6017
18.318
20.5047
19.2381
21.3745
20.1978
22.2032
21.1948
22.9833
22.2255
23.7078
23.2849
24.367
24.3707
0.656104
6.90015
1.324
7.02766
2.00555
7.18522
2.70286
7.37036
3.41754
7.58498
4.15083
7.83039
4.90369
8.10719
5.67689
8.41581
6.4709
8.75665
7.286
9.13012
8.12219
9.5367
8.97924
9.97694
9.85664
10.4516
10.7535
10.9614
11.6687
11.5077
12.6004
12.0916
13.5465
12.715
14.5038
13.3795
15.4686
14.0867
16.4362
14.8386
17.4011
15.637
18.3567
16.4835
19.2954
17.3793
20.2089
18.3246
21.088
19.3187
21.9231
20.3597
22.705
21.4436
23.4249
22.565
23.7164
24.0755
0.630305
6.26985
1.27202
6.38594
1.92715
6.53009
2.59803
6.69949
3.2864
6.89661
3.99367
7.12312
4.72097
7.37989
5.46922
7.66757
6.23908
7.98679
7.03101
8.33818
7.84529
8.72242
8.68195
9.14028
9.54082
9.5927
10.4214
10.0809
11.3228
10.6062
12.2438
11.1705
13.1828
11.776
14.1367
12.4256
15.102
13.1214
16.0741
13.8665
17.0473
14.6638
18.0145
15.5163
18.9674
16.4264
19.8961
17.3959
20.7898
18.425
21.6369
19.5126
22.4256
20.6549
23.145
21.8456
23.0758
23.7856
0.602694
5.66715
1.21661
5.77203
1.84377
5.90293
2.48668
6.05658
3.14721
6.23607
3.82689
6.44345
4.52697
6.67981
5.24849
6.94604
5.99228
7.243
6.759
7.57147
7.54915
7.93227
8.36308
8.32634
9.20098
8.7548
10.0628
9.21905
10.9482
9.72086
11.8563
10.2624
12.7859
10.8464
13.735
11.4765
14.7001
12.1563
15.677
12.8896
16.6598
13.6809
17.6413
14.5348
18.6122
15.4555
19.5615
16.4466
20.4763
17.5102
21.3424
18.6465
22.145
19.8523
22.8697
21.1209
22.4413
23.5042
0.573451
5.0937
1.15815
5.18733
1.75599
5.30509
2.36958
5.44299
3.00087
5.60478
3.65145
5.79286
4.32268
6.00858
5.01568
6.25305
5.73139
6.52728
6.47066
6.8322
7.23422
7.16871
8.02275
7.53781
8.83686
7.94069
9.67698
8.37893
10.5433
8.85455
11.4356
9.37012
12.3532
9.92882
13.295
10.5347
14.2582
11.193
15.2389
11.9089
16.2318
12.6881
17.2293
13.5372
18.2219
14.4629
19.1971
15.4713
20.1401
16.5673
21.0335
17.753
21.8587
19.0271
22.5968
20.3828
21.8071
23.2311
0.542873
4.55083
1.09724
4.63296
1.66462
4.73771
2.2477
4.8599
2.84845
5.00403
3.4685
5.17282
4.10923
5.36785
4.77183
5.59045
5.45733
5.84178
6.16672
6.12281
6.901
6.43444
7.66118
6.77763
8.44828
7.15358
9.26329
7.56392
10.107
8.01083
10.9799
8.49718
11.8821
9.02668
12.813
9.60385
13.7712
10.2348
14.7536
10.9265
15.7553
11.6864
16.7693
12.5233
17.7856
13.4465
18.7913
14.4657
19.7692
15.5893
20.699
16.8233
21.557
18.1691
22.3185
19.6214
21.1649
22.9606
0.511375
4.03946
1.0346
4.10974
1.57061
4.2017
2.12215
4.30836
2.69115
4.43503
3.27923
4.58475
3.88776
4.75931
4.51797
4.96024
5.17098
5.18878
5.84792
5.44587
6.55004
5.73232
7.2787
6.04897
8.03539
6.39689
8.82161
6.7777
9.6388
7.19365
10.4882
7.64774
11.3707
8.14418
12.2866
8.68799
13.2354
9.28595
14.2156
9.94635
15.2231
10.6789
16.2516
11.4948
17.2918
12.4063
18.3303
13.4272
19.3487
14.5709
20.323
15.849
21.2245
17.2676
22.0205
18.8253
20.5053
22.6802
0.479457
3.56
0.971022
3.61818
1.47495
3.69777
1.99404
3.78927
2.53012
3.89895
3.08477
4.0301
3.65935
4.18473
4.2551
4.36449
4.87324
4.57064
5.5151
4.804
6.1822
5.06522
6.87625
5.35492
7.59917
5.67397
8.35297
6.0239
9.13968
6.40694
9.96129
6.82613
10.8195
7.28597
11.7155
7.79201
12.6499
8.35158
13.6222
8.97401
14.6303
9.67082
15.6692
10.4559
16.7305
11.345
17.8014
12.3563
18.863
13.5094
19.8881
14.8238
20.8427
16.313
21.6845
17.9835
19.8177
22.3722
0.447633
3.11236
0.907274
3.15854
1.37857
3.22647
1.86442
3.30342
2.36647
3.3969
2.88624
3.51033
3.42511
3.64586
3.98437
3.80523
4.56539
3.98961
5.16976
4.19963
5.79929
4.4357
6.45602
4.69819
7.14227
4.98772
7.86048
5.30569
8.61319
5.65423
9.40294
6.03637
10.2323
6.45663
11.1032
6.92112
12.0173
7.43741
12.9756
8.01579
13.9772
8.66914
15.0196
9.41351
16.0963
10.2683
17.1957
11.257
18.2995
12.4055
19.3787
13.7446
20.3943
15.2975
21.2919
17.0858
19.0915
22.0181
0.416345
2.69602
0.843997
2.73088
1.28231
2.78815
1.73428
2.85145
2.20134
2.92984
2.68496
3.0267
3.18657
3.14426
3.70761
3.28419
4.24969
3.44753
4.81469
3.63462
5.40475
3.84564
6.02223
4.0807
6.66972
4.34023
7.34999
4.62542
8.06598
4.93824
8.82056
5.28179
9.61679
5.66041
10.4575
6.08038
11.3454
6.54956
12.2823
7.07887
13.2695
7.68196
14.3065
8.37651
15.3899
9.18481
16.5105
10.1364
17.6521
11.2639
18.7848
12.6119
19.8666
14.2156
20.8287
16.1237
18.3165
21.6038
0.385886
2.31013
0.781693
2.33508
1.18697
2.38288
1.60472
2.4337
2.03615
2.49841
2.48276
2.58009
2.94609
2.68093
3.42782
2.80246
3.92989
2.94546
4.45453
3.10999
5.00418
3.29599
5.58146
3.50342
6.18906
3.73263
6.82998
3.98451
7.50728
4.26093
8.22406
4.56501
8.98357
4.9009
9.78927
5.27468
10.6446
5.69423
11.553
6.17051
12.5174
6.7175
13.5395
7.3544
14.6194
8.10498
15.7508
9.00495
16.9223
10.0924
18.1039
11.4304
19.2545
13.065
20.2877
15.0906
17.4819
21.1223
0.356396
1.95374
0.720797
1.97068
1.09339
2.01029
1.47708
2.05001
1.87283
2.10265
2.28227
2.17066
2.70713
2.25607
3.14941
2.36018
3.61144
2.48343
4.0957
2.62573
4.60493
2.78677
5.14186
2.96649
5.70922
3.16527
6.30992
3.38381
6.94702
3.62383
7.62378
3.88825
8.34365
4.18103
9.11043
4.50791
9.92825
4.87641
10.8016
5.29716
11.7353
5.7838
12.733
6.35668
13.7982
7.03978
14.9285
7.87464
16.119
8.90192
17.3412
10.2081
18.5607
11.8456
19.6692
13.9821
16.5743
20.5768
0.327944
1.62579
0.661785
1.63683
1.00262
1.66945
1.35304
1.69959
1.71388
1.74182
2.08692
1.79762
2.47416
1.86883
2.87791
1.95643
3.30079
2.06054
3.74549
2.18103
4.21482
2.31744
4.71161
2.4697
5.2387
2.63819
5.79887
2.82363
6.39505
3.02764
7.03048
3.25283
7.70868
3.50282
8.43367
3.78291
9.21007
4.10001
10.0431
4.46414
10.939
4.88792
11.9033
5.39231
12.9434
5.9997
14.0601
6.75797
15.2575
7.70453
16.5095
8.95608
17.7961
10.559
18.984
12.7941
15.5748
19.9835
0.300642
1.32515
0.605259
1.33222
0.915913
1.3588
1.23457
1.38093
1.56211
1.41429
1.90049
1.45924
2.25193
1.51739
2.61893
1.58943
3.00424
1.67523
3.41075
1.77452
3.84134
1.88686
4.29883
2.0122
4.78603
2.151
5.30563
2.30403
5.86046
2.47281
6.45364
2.65965
7.08872
2.86775
7.76982
3.10182
8.50187
3.36795
9.29056
3.67545
10.1432
4.03525
11.067
4.46859
12.0728
4.99382
13.1648
5.66606
14.3578
6.51153
15.6293
7.68453
16.9829
9.20542
18.2618
11.5152
14.4519
19.3847
0.274721
1.05043
0.551916
1.05502
0.834527
1.07618
1.12358
1.09188
1.42016
1.1177
1.72639
1.15301
2.04455
1.19923
2.37729
1.25669
2.72742
1.3251
3.09784
1.4041
3.49133
1.49336
3.91064
1.59289
4.35848
1.70316
4.83754
1.82497
5.35059
1.95976
5.90069
2.10955
6.49141
2.27703
7.12697
2.46626
7.81252
2.6824
8.5541
2.93388
9.35992
3.22943
10.2382
3.59031
11.2035
4.02847
12.2628
4.60677
13.4429
5.33143
14.7283
6.39916
16.1512
7.78253
17.5555
10.1109
13.1444
18.863
0.250512
0.79992
0.502419
0.803114
0.759507
0.819097
1.02151
0.829884
1.28998
0.849218
1.56703
0.87596
1.85502
0.911246
2.15658
0.955129
2.47441
1.00726
2.81123
1.06728
3.16966
1.13494
3.55228
1.21027
3.96169
1.29374
4.40055
1.38612
4.87164
1.48867
5.37805
1.60314
5.92337
1.7317
6.51197
1.87766
7.14923
2.04514
7.8416
2.24151
8.5979
2.47313
9.42786
2.76035
10.3484
3.10789
11.3711
3.58408
12.5325
4.17005
13.8352
5.09648
15.3323
6.28545
16.9497
8.4935
11.5399
18.5542
0.228417
0.571502
0.457212
0.57432
0.691413
0.584896
0.929081
0.592216
1.17245
0.60585
1.42351
0.624904
1.68458
0.650174
1.95815
0.681555
2.24672
0.718691
2.55275
0.761259
2.8786
0.809078
3.22665
0.862228
3.59929
0.921098
3.99906
0.98635
4.42875
1.05899
4.89149
1.14039
5.39095
1.23224
5.93157
1.33703
6.51892
1.45779
7.16003
1.6004
7.86403
1.76913
8.64292
1.98146
9.51413
2.23668
10.4977
2.60048
11.6327
3.03503
12.9594
3.76987
14.5337
4.71108
16.522
6.50517
9.45165
18.6103
0.208835
0.362667
0.416358
0.366797
0.630213
0.371041
0.846157
0.376272
1.06728
0.384724
1.29535
0.39684
1.53257
0.412948
1.78124
0.432892
2.04357
0.456362
2.32171
0.483117
2.61774
0.513042
2.93376
0.546216
3.27192
0.582932
3.6346
0.623669
4.02446
0.669127
4.44461
0.720241
4.89872
0.778136
5.39126
0.844494
5.92776
0.921291
6.51565
1.0125
7.16417
1.12061
7.88721
1.25843
8.70169
1.42219
9.63666
1.66552
10.7289
1.94282
12.0514
2.44734
13.6965
3.06595
16.097
4.10465
6.77041
18.7783
0.191786
0.170881
0.379479
0.179104
0.575376
0.175144
0.771833
0.179816
0.973205
0.183352
1.18087
0.189175
1.39694
0.196876
1.62345
0.20638
1.86232
0.217494
2.11535
0.230085
2.3843
0.244097
2.67093
0.25958
2.97717
0.276694
3.30515
0.295691
3.65735
0.316929
4.03672
0.340869
4.4468
0.368061
4.89194
0.399352
5.37755
0.435681
5.91101
0.479039
6.50128
0.530334
7.16286
0.596859
7.91169
0.673366
8.78207
0.795131
9.80501
0.919883
11.0703
1.18208
12.673
1.4632
15.1672
1.61045
3.72075
18.2169
0.170881
0.349985
0.525129
0.704945
0.888296
1.07747
1.27435
1.48073
1.69822
1.92831
2.1724
2.43198
2.70868
3.00437
3.3213
3.66217
4.03023
4.42958
4.86526
5.3443
5.87464
6.47149
7.14486
7.93999
8.85987
10.042
11.5052
13.1156
16.8364
1.18706
54.1251
1.20068
54.1266
1.21814
54.1228
1.23702
54.1214
1.24953
54.1277
1.25633
54.1334
1.2659
54.1307
1.28312
54.123
1.30267
54.1207
1.3162
54.1267
1.322
54.1344
1.32762
54.1346
1.34247
54.1254
1.36426
54.1184
1.38514
54.1194
1.39531
54.1301
1.39517
54.1404
1.39094
54.1445
1.38573
54.1454
1.37997
54.146
1.37315
54.1471
1.36531
54.1481
1.35693
54.1486
1.3485
54.1487
1.34073
54.148
1.33515
54.1458
1.33438
54.141
1.33754
54.1371
1.34203
54.1357
1.34519
54.1371
1.34572
54.1397
1.34447
54.1415
1.34205
54.1427
1.33873
54.1436
1.33477
54.1442
1.33046
54.1446
1.32582
54.1449
1.32079
54.1453
1.31556
54.1455
1.31046
54.1453
1.30578
54.1449
1.30169
54.1443
1.29818
54.1437
1.29481
54.1436
1.29112
54.1439
1.28679
54.1446
1.28186
54.1452
1.27615
54.1459
1.27008
54.1463
1.26342
54.1469
1.25645
54.1472
1.24905
54.1476
1.24141
54.1479
1.2335
54.1481
1.22525
54.1485
1.21672
54.1488
1.20817
54.1488
1.19923
54.1492
1.19024
54.1492
1.18082
54.1497
1.1712
54.1499
1.16122
54.1502
1.15076
54.1507
1.1402
54.1508
1.12909
54.1513
1.11782
54.1515
1.1061
54.152
1.09432
54.152
1.08183
54.1527
1.06949
54.1526
1.05666
54.1531
1.04317
54.1537
1.03074
54.1527
1.01613
54.1548
1.00282
54.1535
0.98844
54.1546
0.97402
54.1547
0.959533
54.1547
0.944178
54.1556
0.929596
54.1548
0.91369
54.1561
0.898472
54.1555
0.881451
54.1573
0.863832
54.1579
0.845865
54.1582
0.827616
54.1585
0.809557
54.1583
0.790709
54.1591
0.772095
54.1589
0.752722
54.1596
0.733155
54.1598
0.713369
54.16
0.693311
54.1603
0.673093
54.1605
0.652799
54.1605
0.63227
54.1608
0.611968
54.1605
0.591318
54.1609
0.570826
54.1607
0.550257
54.1608
0.529703
54.1608
0.509206
54.1607
0.488763
54.1607
0.468484
54.1605
0.448243
54.1605
0.428249
54.1602
0.408233
54.1602
0.38862
54.1598
0.369117
54.1597
0.349957
54.1594
0.331036
54.1592
0.31269
54.1586
0.294696
54.1582
0.277355
54.1576
0.260445
54.1571
0.244262
54.1564
0.228768
54.1557
0.213955
54.155
0.199276
54.1549
0.184419
54.1551
0.169369
54.1553