/*--------------------------------*- C++ -*----------------------------------*\
| =========                 |                                                 |
| \\      /  F ield         | OpenFOAM: The Open Source CFD Toolbox           |
|  \\    /   O peration     | Version:  5.x                                   |
|   \\  /    A nd           | Web:      www.OpenFOAM.org                      |
|    \\/     M anipulation  |                                                 |
\*---------------------------------------------------------------------------*/
/*   Windows 32 and 64 bit porting by blueCAPE: http://www.bluecape.com.pt   *\
|  Based on Windows porting (2.0.x v4) by Symscape: http://www.symscape.com   |
\*---------------------------------------------------------------------------*/
FoamFile
{
    version     2.0;
    format      ascii;
    class       volVectorField;
    location    "260";
    object      U;
}
// * * * * * * * * * * * * * * * * * * * * * * * * * * * * * * * * * * * * * //

dimensions      [0 1 -1 0 0 0 0];

internalField   nonuniform List<vector> 
43900
(
(1.16163 -0.000738364 -1.66458e-027)
(1.16714 0.00218075 -4.46086e-027)
(1.16972 0.000362695 1.43082e-030)
(1.16838 0.00183358 2.81013e-030)
(1.16975 0.000801601 3.66722e-030)
(1.16993 0.00199635 3.64332e-030)
(1.17015 0.00119843 5.95534e-027)
(1.17053 0.00187453 -1.18917e-026)
(1.17046 0.00166391 9.6927e-030)
(1.17006 0.00179138 -1.18623e-026)
(1.16974 0.00192042 1.18845e-026)
(1.16983 0.001922 1.15596e-029)
(1.16992 0.00198777 -1.18273e-026)
(1.17 0.00205102 2.49371e-029)
(1.17006 0.00210673 2.56075e-029)
(1.16993 0.00215578 2.62753e-029)
(1.16997 0.0021964 -2.35462e-026)
(1.16998 0.00223852 5.49724e-029)
(1.16992 0.0022819 2.35729e-026)
(1.17001 0.00230961 2.85477e-029)
(1.16997 0.00235831 2.90156e-029)
(1.16994 0.00239036 2.94726e-029)
(1.17002 0.00241513 2.98939e-029)
(1.16996 0.002465 3.02672e-029)
(1.16997 0.00248191 3.06591e-029)
(1.17004 0.00251578 -2.3276e-026)
(1.16997 0.00255502 6.26499e-029)
(1.16999 0.00257197 6.33399e-029)
(1.17005 0.0026021 9.29148e-026)
(1.15869 0.0114529 0)
(1.16552 -0.00497059 0)
(1.17143 0.0090575 0)
(1.1665 -0.00017574 0)
(1.1684 0.00618849 0)
(1.16799 0.00274897 0)
(1.16832 0.00490273 0)
(1.16776 0.00466653 0)
(1.16823 0.00463517 0)
(1.16887 0.00540866 0)
(1.1692 0.00529426 0)
(1.16901 0.00554141 0)
(1.16898 0.00580219 0)
(1.16897 0.00597527 0)
(1.16888 0.00613036 0)
(1.16915 0.00628979 0)
(1.16922 0.00644516 0)
(1.16917 0.00659692 0)
(1.1693 0.00672076 0)
(1.1692 0.006864 0)
(1.16921 0.00696351 0)
(1.16935 0.00706362 0)
(1.16925 0.00719159 0)
(1.1693 0.00724412 0)
(1.16938 0.0073514 0)
(1.16926 0.00744644 0)
(1.16934 0.00748439 0)
(1.16942 0.00758436 0)
(1.16932 0.00766098 0)
(1.10206 0.0321045 0)
(1.14474 -0.0175674 0)
(1.16307 0.0287871 0)
(1.16325 -0.00370531 0)
(1.1663 0.0208598 0)
(1.16427 0.00396545 0)
(1.16566 0.014992 0)
(1.16625 0.00831377 0)
(1.16651 0.0118277 0)
(1.16662 0.0105185 0)
(1.16688 0.0107517 0)
(1.16731 0.0110773 0)
(1.16738 0.011075 0)
(1.1674 0.0111369 0)
(1.1677 0.0112866 0)
(1.16765 0.0113696 0)
(1.1675 0.0115046 0)
(1.16771 0.0115786 0)
(1.16775 0.0117133 0)
(1.16787 0.0118148 0)
(1.16809 0.0119038 0)
(1.16799 0.0120497 0)
(1.16806 0.0121103 0)
(1.16821 0.0122365 0)
(1.16813 0.0123601 0)
(1.16828 0.0124014 0)
(1.16836 0.0125608 0)
(1.16822 0.0126507 0)
(1.16831 0.0127022 1.63328e-027)
(1.04083 0.0200106 0)
(1.08674 -0.00675684 0)
(1.12969 0.0201196 0)
(1.15568 0.00814483 0)
(1.16332 0.02224 0)
(1.16601 0.0106832 0)
(1.16483 0.0205866 0)
(1.16349 0.013585 0)
(1.16451 0.0181197 0)
(1.16472 0.0157117 0)
(1.16492 0.0168547 0)
(1.165 0.0166168 0)
(1.16525 0.0166623 0)
(1.16553 0.0167815 0)
(1.16543 0.0167845 0)
(1.16557 0.0168728 0)
(1.16612 0.0168979 0)
(1.16622 0.0170209 0)
(1.16622 0.0171086 0)
(1.16637 0.0171399 0)
(1.16629 0.0173018 0)
(1.16648 0.0173406 0)
(1.16673 0.0174792 0)
(1.16665 0.0176285 0)
(1.16678 0.0176655 0)
(1.16682 0.0178825 0)
(1.16674 0.0179624 0)
(1.16698 0.0180315 0)
(1.16712 0.0182645 1.74264e-027)
(1.00369 0.0101893 3.49039e-027)
(1.03919 -0.000914875 0)
(1.07605 0.0108166 0)
(1.11431 0.012882 0)
(1.1446 0.0183004 0)
(1.16017 0.0173218 0)
(1.16351 0.0228045 0)
(1.16447 0.0185139 0)
(1.16346 0.0216477 0)
(1.16344 0.020279 0)
(1.16347 0.0207815 0)
(1.16355 0.0210858 0)
(1.16351 0.0210731 0)
(1.16362 0.0211256 0)
(1.164 0.0213342 0)
(1.16422 0.0213811 0)
(1.16395 0.0215767 0)
(1.16392 0.0217075 0)
(1.16435 0.0217603 0)
(1.16439 0.0220178 0)
(1.16461 0.0220645 0)
(1.16466 0.0222598 0)
(1.16444 0.0224394 0)
(1.16462 0.0224656 0)
(1.16477 0.0227643 0)
(1.16484 0.0228138 0)
(1.16515 0.0229397 0)
(1.16515 0.0232235 0)
(1.16497 0.0232671 -7.33233e-027)
(0.976369 0.006831 -3.64279e-027)
(1.00626 0.000660413 0)
(1.0375 0.0075759 0)
(1.06992 0.0110065 0)
(1.10238 0.0148669 0)
(1.1327 0.0181574 0)
(1.15307 0.0220988 0)
(1.16126 0.0221808 0)
(1.1624 0.0244747 0)
(1.16197 0.0228951 0)
(1.16179 0.0242535 0)
(1.16195 0.0240631 0)
(1.16206 0.0242968 0)
(1.16206 0.0245897 0)
(1.16215 0.0246549 0)
(1.16204 0.0250348 0)
(1.16233 0.0251876 0)
(1.16268 0.0253646 0)
(1.16234 0.0257158 0)
(1.16232 0.0257893 0)
(1.1623 0.0261051 0)
(1.16229 0.0263303 0)
(1.16266 0.0264313 0)
(1.16272 0.0268118 0)
(1.16266 0.0268906 0)
(1.16281 0.0270978 0)
(1.16265 0.0274786 0)
(1.16262 0.0274941 0)
(1.16309 0.0277715 3.88139e-027)
(0.95342 0.00524397 0)
(0.979753 0.0014007 0)
(1.00734 0.00639155 0)
(1.03599 0.00958721 0)
(1.06513 0.0128931 0)
(1.09406 0.0164968 0)
(1.12211 0.0202369 0)
(1.14539 0.0230949 0)
(1.15685 0.0257379 0)
(1.15988 0.0262509 0)
(1.15978 0.0261689 0)
(1.15961 0.0270582 0)
(1.15971 0.0271404 0)
(1.15999 0.0275136 0)
(1.15965 0.0280199 0)
(1.15987 0.0281804 0)
(1.15999 0.0285619 0)
(1.15959 0.0290506 0)
(1.15985 0.0291454 0)
(1.16004 0.029698 0)
(1.16005 0.029934 0)
(1.16029 0.0301295 0)
(1.16023 0.0306639 0)
(1.16026 0.0308065 0)
(1.16041 0.031213 0)
(1.16029 0.0316246 0)
(1.16053 0.0316758 0)
(1.16103 0.0321086 0)
(1.16097 0.0324218 0)
(0.932501 0.00443972 0)
(0.956497 0.00185174 0)
(0.98165 0.00596309 0)
(1.00779 0.00898935 0)
(1.03453 0.0120095 0)
(1.06145 0.0152806 0)
(1.08803 0.0188021 0)
(1.11351 0.0223422 0)
(1.13671 0.0256358 0)
(1.15122 0.0279762 0)
(1.15622 0.0297505 0)
(1.15665 0.0294442 0)
(1.15649 0.0302741 0)
(1.15638 0.03065 0)
(1.15684 0.0310605 0)
(1.15662 0.0316706 0)
(1.15632 0.0320274 0)
(1.1568 0.0323324 0)
(1.15689 0.0330398 0)
(1.15681 0.0333053 0)
(1.15714 0.0337052 0)
(1.15704 0.0344509 0)
(1.15689 0.0346318 0)
(1.15682 0.0351198 0)
(1.1571 0.0355714 0)
(1.15786 0.0357114 0)
(1.15814 0.0363505 0)
(1.15775 0.0367857 0)
(1.15741 0.0371166 0)
(0.912783 0.00385193 0)
(0.935016 0.00227835 0)
(0.958324 0.00587089 0)
(0.982558 0.00883507 0)
(1.00744 0.0117576 0)
(1.03264 0.0148533 0)
(1.05781 0.0181559 0)
(1.08253 0.0216113 0)
(1.10625 0.0251234 0)
(1.1283 0.0283671 0)
(1.14486 0.0311408 0)
(1.15159 0.0331487 0)
(1.15214 0.0331482 0)
(1.15203 0.0340737 0)
(1.15181 0.0346258 0)
(1.15226 0.0351263 0)
(1.15272 0.0358013 0)
(1.15218 0.0364453 0)
(1.15216 0.0367346 0)
(1.15248 0.0374225 0)
(1.15221 0.0382047 0)
(1.15241 0.0383112 0)
(1.15328 0.0390602 0)
(1.15422 0.0397086 0)
(1.15414 0.040039 0)
(1.15334 0.0409177 0)
(1.15281 0.0413661 0)
(1.15323 0.041655 0)
(1.15481 0.0422064 0)
(0.893555 0.00332306 0)
(0.914486 0.00269715 0)
(0.936422 0.00596935 0)
(0.959222 0.00892119 0)
(0.982657 0.0118237 0)
(1.00648 0.0148519 0)
(1.03042 0.0180484 0)
(1.05418 0.0213876 0)
(1.07743 0.0248342 0)
(1.09974 0.0283205 0)
(1.12049 0.0316368 0)
(1.1381 0.0345749 0)
(1.14579 0.0369898 0)
(1.14637 0.0372098 0)
(1.14647 0.0384383 0)
(1.14604 0.0389307 0)
(1.14621 0.0397622 0)
(1.14725 0.0403505 0)
(1.14742 0.041376 0)
(1.14707 0.0420933 0)
(1.14777 0.0423347 0)
(1.14847 0.0434776 0)
(1.14787 0.0442002 0)
(1.1468 0.0445931 0)
(1.14696 0.0455579 0)
(1.14834 0.0460142 0)
(1.15009 0.0464952 0)
(1.15064 0.0474792 0)
(1.14956 0.0480876 -1.02166e-026)
(0.874647 0.00317192 0)
(0.894501 0.00298392 0)
(0.915343 0.00619729 0)
(0.937014 0.00919656 0)
(0.959316 0.0121373 0)
(0.982033 0.0151756 0)
(1.00494 0.0183564 0)
(1.02781 0.0216624 0)
(1.05038 0.0250695 0)
(1.07235 0.0285527 0)
(1.09334 0.0320613 0)
(1.11269 0.035439 0)
(1.13006 0.0385315 0)
(1.139 0.0411651 0)
(1.13949 0.0416873 0)
(1.14003 0.0430074 0)
(1.14002 0.0436533 0)
(1.13944 0.044707 0)
(1.13977 0.0454395 0)
(1.14104 0.0461867 0)
(1.14088 0.0475867 0)
(1.14019 0.0481474 0)
(1.14095 0.0485944 0)
(1.14308 0.0499697 0)
(1.14363 0.0505304 0)
(1.14333 0.0511743 0)
(1.1421 0.0522957 0)
(1.14173 0.0528848 0)
(1.14287 0.0534797 1.07889e-026)
(0.855887 0.00310915 0)
(0.874828 0.00326957 0)
(0.894736 0.00651575 0)
(0.915463 0.0096126 0)
(0.936831 0.012646 0)
(0.958646 0.0157589 0)
(0.980713 0.0189964 0)
(1.00283 0.0223447 0)
(1.02478 0.025783 0)
(1.04635 0.0292916 0)
(1.06726 0.0328453 0)
(1.08718 0.036392 0)
(1.1056 0.0398008 0)
(1.12226 0.04298 0)
(1.13166 0.0457826 0)
(1.13196 0.0465187 0)
(1.133 0.0479328 0)
(1.13337 0.0487223 0)
(1.13362 0.0497884 0)
(1.13335 0.0510833 0)
(1.13412 0.0514245 0)
(1.13586 0.0527979 0)
(1.13592 0.0541216 0)
(1.1345 0.0547433 0)
(1.13426 0.0557326 0)
(1.13523 0.0568446 0)
(1.13755 0.057707 0)
(1.13866 0.0588139 0)
(1.13852 0.0596571 1.18357e-026)
(0.837037 0.00302724 0)
(0.855192 0.00361591 0)
(0.874301 0.00694009 0)
(0.894225 0.0101796 0)
(0.914797 0.013361 0)
(0.93585 0.0166114 0)
(0.957203 0.0199746 0)
(0.978679 0.0234396 0)
(1.0001 0.0269884 0)
(1.02127 0.0306043 0)
(1.04199 0.0342682 0)
(1.06203 0.0379534 0)
(1.08109 0.0416099 0)
(1.0987 0.045115 0)
(1.1147 0.0484275 0)
(1.12399 0.0513495 0)
(1.12383 0.0523468 0)
(1.12531 0.0538884 0)
(1.12598 0.0548257 0)
(1.12694 0.0560934 0)
(1.12646 0.0577789 0)
(1.12578 0.0586766 0)
(1.12618 0.0595085 0)
(1.12887 0.0610081 0)
(1.13031 0.0623322 0)
(1.13081 0.063057 0)
(1.12927 0.0641432 0)
(1.12917 0.0653254 0)
(1.13062 0.0660454 -1.24961e-026)
(0.817913 0.00301714 0)
(0.835346 0.00399506 0)
(0.853724 0.00746301 0)
(0.872928 0.0108926 0)
(0.892799 0.0142708 0)
(0.913171 0.0177117 0)
(0.933889 0.0212583 0)
(0.95479 0.0249016 0)
(0.97571 0.0286258 0)
(0.996489 0.0324168 0)
(1.01696 0.0362593 0)
(1.03694 0.0401337 0)
(1.05622 0.044013 0)
(1.07452 0.0478459 0)
(1.09143 0.0515152 0)
(1.10682 0.0550067 0)
(1.11574 0.058109 0)
(1.11557 0.0591714 0)
(1.1165 0.0609165 0)
(1.11698 0.0624205 0)
(1.11759 0.0632815 0)
(1.12002 0.0650841 0)
(1.12094 0.0663372 0)
(1.1198 0.0673507 0)
(1.11901 0.0686695 0)
(1.12002 0.0701157 0)
(1.12364 0.0712576 0)
(1.12531 0.0730961 0)
(1.12511 0.0737658 -1.37781e-026)
(0.798409 0.00305319 0)
(0.81518 0.00439246 0)
(0.83289 0.0080503 0)
(0.851427 0.0116984 0)
(0.87066 0.0153026 0)
(0.890427 0.0189658 0)
(0.91057 0.0227273 0)
(0.930947 0.0265805 0)
(0.951409 0.0305107 0)
(0.971809 0.0345052 0)
(0.992004 0.0385508 0)
(1.01184 0.0426312 0)
(1.03116 0.0467259 0)
(1.04975 0.0508059 0)
(1.06738 0.0548149 0)
(1.08368 0.0586391 0)
(1.09841 0.0623705 0)
(1.10653 0.0653869 0)
(1.10609 0.066841 0)
(1.10723 0.0683126 0)
(1.10935 0.0699999 0)
(1.10914 0.071386 0)
(1.10896 0.0728143 0)
(1.11147 0.074585 0)
(1.11405 0.0761747 0)
(1.1138 0.0771798 0)
(1.11237 0.078412 0)
(1.11273 0.0794871 0)
(1.11474 0.0807305 1.45587e-026)
(0.778492 0.00313292 0)
(0.794645 0.00482289 0)
(0.811742 0.00871781 0)
(0.829672 0.0126223 0)
(0.848312 0.0164865 0)
(0.867529 0.0204095 0)
(0.887165 0.0244273 0)
(0.907076 0.0285314 0)
(0.92713 0.0327094 0)
(0.947194 0.036949 0)
(0.967134 0.0412382 0)
(0.98682 0.0455627 0)
(1.00612 0.0499053 0)
(1.02487 0.0542449 0)
(1.04289 0.0585497 0)
(1.05997 0.0627576 0)
(1.07578 0.0667852 0)
(1.08989 0.0707378 0)
(1.09689 0.0737523 0)
(1.09803 0.0754498 0)
(1.09803 0.0770005 0)
(1.09993 0.0791213 0)
(1.10141 0.0810315 0)
(1.10023 0.0821093 0)
(1.10055 0.0841761 0)
(1.10329 0.0857231 0)
(1.1075 0.0876516 0)
(1.10918 0.0900592 0)
(1.10808 0.0904571 0)
(0.75805 0.00325166 0)
(0.773613 0.0052963 0)
(0.790131 0.00947451 0)
(0.807496 0.0136785 0)
(0.825586 0.0178447 0)
(0.844279 0.0220691 0)
(0.863446 0.0263894 0)
(0.882933 0.0307951 0)
(0.902612 0.0352719 0)
(0.92236 0.03981 0)
(0.942057 0.0443978 0)
(0.961584 0.0490226 0)
(0.980822 0.0536694 0)
(0.999642 0.0583206 0)
(1.01791 0.0629545 0)
(1.03545 0.0675366 0)
(1.05206 0.0720012 0)
(1.06752 0.0763011 0)
(1.08122 0.080489 0)
(1.08689 0.0833858 0)
(1.0883 0.0860953 0)
(1.08851 0.0871652 0)
(1.08919 0.0895321 0)
(1.09311 0.0914978 0)
(1.09507 0.0935428 0)
(1.09434 0.0944554 0)
(1.09359 0.0960589 0)
(1.09492 0.0979827 0)
(1.09914 0.0999243 0)
(0.737039 0.0033984 0)
(0.752034 0.00580237 0)
(0.767995 0.0102987 0)
(0.784821 0.0148333 0)
(0.802396 0.0193343 0)
(0.820597 0.0238918 0)
(0.839306 0.0285449 0)
(0.858396 0.0332857 0)
(0.877728 0.038097 0)
(0.897181 0.0429675 0)
(0.916645 0.047887 0)
(0.936011 0.052843 0)
(0.955169 0.0578215 0)
(0.974011 0.0628067 0)
(0.992419 0.0677801 0)
(1.01026 0.0727184 0)
(1.02739 0.0775825 0)
(1.04364 0.0823016 0)
(1.05891 0.0868745 0)
(1.07167 0.0912595 0)
(1.07612 0.0939875 0)
(1.07838 0.0969149 0)
(1.08057 0.0981875 0)
(1.08019 0.10006 0)
(1.0819 0.10233 0)
(1.08549 0.104563 0)
(1.08862 0.107293 0)
(1.0893 0.108931 0)
(1.08798 0.109521 0)
(0.715467 0.00357211 4.18813e-026)
(0.729908 0.00633918 0)
(0.74533 0.0111849 0)
(0.761637 0.0160789 0)
(0.77872 0.0209427 0)
(0.796459 0.0258647 0)
(0.814736 0.0308809 0)
(0.83344 0.0359858 0)
(0.852446 0.0411639 0)
(0.871629 0.0464008 0)
(0.890882 0.0516862 0)
(0.910102 0.0570077 0)
(0.929187 0.0623516 0)
(0.948039 0.0677027 0)
(0.966556 0.0730442 0)
(0.984631 0.0783573 0)
(1.00214 0.0836175 0)
(1.01896 0.0887825 0)
(1.03496 0.0937729 0)
(1.05011 0.0987135 0)
(1.06222 0.103186 0)
(1.06728 0.10599 0)
(1.06811 0.108826 0)
(1.07215 0.110889 0)
(1.07236 0.113623 0)
(1.07219 0.11501 0)
(1.07437 0.117168 0)
(1.07759 0.11998 0)
(1.08353 0.123738 0)
(0.693347 0.00377027 1.40359e-027)
(0.707244 0.00690171 0)
(0.722139 0.0121236 0)
(0.73794 0.0174021 0)
(0.754544 0.0226534 0)
(0.771839 0.0279656 0)
(0.789708 0.0333738 0)
(0.808039 0.0388704 0)
(0.826726 0.0444431 0)
(0.84565 0.0500771 0)
(0.864697 0.0557586 0)
(0.883775 0.0614779 0)
(0.902788 0.0672206 0)
(0.921642 0.0729717 0)
(0.940243 0.0787153 0)
(0.958499 0.0844338 0)
(0.976306 0.0901081 0)
(0.993554 0.0957134 0)
(1.01012 0.101204 0)
(1.0259 0.106492 0)
(1.04128 0.111705 0)
(1.05313 0.11667 0)
(1.05665 0.119381 0)
(1.05741 0.121926 0)
(1.06081 0.124846 0)
(1.06479 0.12774 0)
(1.06527 0.130174 0)
(1.06526 0.131055 0)
(1.06739 0.132576 0)
(0.670732 0.00399051 -4.83892e-026)
(0.68409 0.0074836 0)
(0.698466 0.0131033 0)
(0.713771 0.0187862 0)
(0.729908 0.0244441 0)
(0.746768 0.0301659 0)
(0.764243 0.0359872 0)
(0.782219 0.0418982 0)
(0.800593 0.0478857 0)
(0.819266 0.0539373 0)
(0.838122 0.0600389 0)
(0.857062 0.0661757 0)
(0.876001 0.0723359 0)
(0.894849 0.0785042 0)
(0.913521 0.0846645 0)
(0.93193 0.0907993 0)
(0.949987 0.0968899 0)
(0.967597 0.102915 0)
(0.984662 0.108845 0)
(1.0011 0.114628 0)
(1.0169 0.120163 0)
(1.0325 0.125834 0)
(1.0421 0.130599 0)
(1.04701 0.133746 0)
(1.04703 0.136379 0)
(1.04965 0.137932 0)
(1.0555 0.141554 0)
(1.05893 0.145428 0)
(1.06028 0.147775 0)
(0.647682 0.00423315 0)
(0.660507 0.00808326 0)
(0.674369 0.0141209 0)
(0.689185 0.020227 0)
(0.704862 0.0263097 0)
(0.721297 0.0324602 0)
(0.738386 0.0387142 0)
(0.75602 0.045062 0)
(0.774094 0.0514863 0)
(0.792517 0.0579774 0)
(0.81119 0.0645214 0)
(0.830008 0.071102 0)
(0.848884 0.0777054 0)
(0.867736 0.0843164 0)
(0.886481 0.0909186 0)
(0.905041 0.0974947 0)
(0.923334 0.104026 0)
(0.941278 0.110493 0)
(0.958788 0.116874 0)
(0.975786 0.123137 0)
(0.992229 0.129195 0)
(1.00831 0.135275 0)
(1.02326 0.140646 0)
(1.0325 0.14644 0)
(1.03781 0.148941 0)
(1.03915 0.152567 0)
(1.04024 0.154437 0)
(1.04361 0.156576 0)
(1.05085 0.160671 0)
(0.624263 0.00449739 -5.92935e-026)
(0.636558 0.00869851 0)
(0.64991 0.0151725 0)
(0.66424 0.0217188 0)
(0.679461 0.0282431 0)
(0.695475 0.0348399 0)
(0.712182 0.0415458 0)
(0.72948 0.0483504 0)
(0.747267 0.0552365 0)
(0.765445 0.0621899 0)
(0.783929 0.0691994 0)
(0.802623 0.0762504 0)
(0.821435 0.0833242 0)
(0.840287 0.0904079 0)
(0.859102 0.0974837 0)
(0.877802 0.104534 0)
(0.896313 0.11154 0)
(0.914558 0.118484 0)
(0.932462 0.125344 0)
(0.949948 0.132098 0)
(0.966955 0.138703 0)
(0.98349 0.145138 0)
(0.999991 0.15154 0)
(1.01441 0.156924 0)
(1.02342 0.163144 0)
(1.02767 0.164053 0)
(1.03194 0.169574 0)
(1.03226 0.171937 0)
(1.03396 0.173478 5.54676e-026)
(0.600545 0.00478171 -1.74822e-027)
(0.612312 0.00932724 0)
(0.625156 0.0162539 0)
(0.639003 0.0232557 0)
(0.653768 0.0302362 0)
(0.669361 0.0372946 0)
(0.685686 0.044469 0)
(0.702645 0.0517483 0)
(0.720141 0.0591149 0)
(0.738079 0.0665531 0)
(0.756373 0.074051 0)
(0.774938 0.0815931 0)
(0.793686 0.0891633 0)
(0.812536 0.0967439 0)
(0.831414 0.104318 0)
(0.850246 0.111867 0)
(0.86896 0.119372 0)
(0.887487 0.126812 0)
(0.905755 0.134168 0)
(0.923694 0.141418 0)
(0.941238 0.148532 0)
(0.958359 0.155471 0)
(0.975202 0.162174 0)
(0.99229 0.169127 0)
(1.00576 0.174536 0)
(1.0136 0.180153 0)
(1.01847 0.182733 0)
(1.02312 0.186265 0)
(1.02723 0.191991 1.07913e-027)
(0.576598 0.00508534 6.84062e-026)
(0.58784 0.00996972 0)
(0.600178 0.0173651 0)
(0.613541 0.0248373 0)
(0.62785 0.0322885 0)
(0.64302 0.0398241 0)
(0.658959 0.047484 0)
(0.675577 0.0552564 0)
(0.692779 0.0631232 0)
(0.710474 0.0710688 0)
(0.728575 0.0790777 0)
(0.747002 0.0871363 0)
(0.765674 0.0952279 0)
(0.78451 0.103333 0)
(0.803439 0.111435 0)
(0.822391 0.119516 0)
(0.841297 0.127556 0)
(0.860089 0.135534 0)
(0.8787 0.14343 0)
(0.897063 0.151224 0)
(0.915116 0.158895 0)
(0.932816 0.166414 0)
(0.950198 0.173718 0)
(0.967531 0.180777 0)
(0.985615 0.188668 0)
(0.996467 0.193259 0)
(1.00444 0.199342 0)
(1.00819 0.202449 0)
(1.01501 0.204632 -6.35211e-026)
(0.552491 0.00540568 0)
(0.56321 0.0106244 0)
(0.575042 0.0185031 0)
(0.58792 0.0264588 0)
(0.601771 0.0343935 0)
(0.616512 0.0424201 0)
(0.632061 0.0505803 0)
(0.648328 0.0588622 0)
(0.665225 0.0672469 0)
(0.682665 0.0757184 0)
(0.700565 0.084261 0)
(0.718846 0.0928605 0)
(0.737432 0.101498 0)
(0.756243 0.110156 0)
(0.775209 0.118814 0)
(0.794261 0.127453 0)
(0.813333 0.136055 0)
(0.83236 0.144597 0)
(0.851278 0.153059 0)
(0.870021 0.16142 0)
(0.888528 0.169658 0)
(0.906744 0.177754 0)
(0.924654 0.185676 0)
(0.942352 0.193301 0)
(0.960616 0.200892 0)
(0.978989 0.209097 0)
(0.988001 0.213659 0)
(0.995617 0.217919 0)
(0.999073 0.223509 0)
(0.528292 0.00574118 0)
(0.538491 0.0112917 0)
(0.549818 0.0196676 0)
(0.56221 0.0281194 0)
(0.575598 0.0365502 0)
(0.589906 0.0450811 0)
(0.605056 0.0537565 0)
(0.620963 0.0625638 0)
(0.637545 0.0714836 0)
(0.654719 0.0804997 0)
(0.672404 0.0895963 0)
(0.690521 0.0987559 0)
(0.709001 0.107961 0)
(0.727771 0.117195 0)
(0.746759 0.126434 0)
(0.765898 0.135659 0)
(0.785123 0.144848 0)
(0.80437 0.15398 0)
(0.823577 0.163031 0)
(0.84268 0.17198 0)
(0.861619 0.180801 0)
(0.880336 0.189475 0)
(0.898787 0.197983 0)
(0.916974 0.206276 0)
(0.935081 0.2143 0)
(0.954603 0.222424 0)
(0.972457 0.23079 0)
(0.982148 0.235263 0)
(0.988571 0.238627 7.48349e-026)
(0.504065 0.00608937 0)
(0.513747 0.011971 0)
(0.524571 0.0208572 0)
(0.536475 0.0298164 0)
(0.549396 0.0387545 0)
(0.563264 0.0478021 0)
(0.578005 0.057006 0)
(0.593542 0.0663533 0)
(0.609795 0.0758244 0)
(0.626688 0.0854027 0)
(0.644143 0.0950722 0)
(0.662086 0.104815 0)
(0.680445 0.114612 0)
(0.699153 0.124443 0)
(0.718142 0.134289 0)
(0.737349 0.144126 0)
(0.75671 0.153933 0)
(0.776161 0.163686 0)
(0.795643 0.173361 0)
(0.815095 0.182932 0)
(0.834456 0.192376 0)
(0.853669 0.201666 0)
(0.87268 0.21078 0)
(0.891447 0.219701 0)
(0.909942 0.228344 0)
(0.929116 0.236966 0)
(0.949178 0.245232 0)
(0.967136 0.253615 0)
(0.976563 0.258454 1.01943e-027)
(0.479871 0.00644795 0)
(0.489042 0.012662 0)
(0.499363 0.0220705 0)
(0.510779 0.0315473 0)
(0.523229 0.0410031 0)
(0.53665 0.0505788 0)
(0.550973 0.0603237 0)
(0.566127 0.0702246 0)
(0.582037 0.0802617 0)
(0.598631 0.0904184 0)
(0.615836 0.100678 0)
(0.633583 0.111023 0)
(0.651805 0.121434 0)
(0.670434 0.13189 0)
(0.689405 0.142366 0)
(0.708656 0.152842 0)
(0.728129 0.163292 0)
(0.747763 0.173694 0)
(0.767498 0.18402 0)
(0.787276 0.194245 0)
(0.807038 0.204341 0)
(0.826727 0.214282 0)
(0.846288 0.22404 0)
(0.865669 0.23359 0)
(0.884822 0.242881 0)
(0.904107 0.251894 0)
(0.924124 0.261225 0)
(0.94496 0.269053 0)
(0.962253 0.277904 -1.71195e-025)
(0.45577 0.00681454 0)
(0.464435 0.0133644 0)
(0.474258 0.0233064 0)
(0.485183 0.03331 0)
(0.497159 0.0432931 0)
(0.510126 0.0534076 0)
(0.524021 0.0637055 0)
(0.538779 0.0741732 0)
(0.554331 0.0847907 0)
(0.570609 0.0955416 0)
(0.587546 0.106409 0)
(0.605075 0.117375 0)
(0.623134 0.128419 0)
(0.641662 0.139518 0)
(0.660595 0.150649 0)
(0.679873 0.161788 0)
(0.699438 0.172907 0)
(0.719233 0.183982 0)
(0.739201 0.194984 0)
(0.759284 0.205885 0)
(0.779427 0.216656 0)
(0.799574 0.227268 0)
(0.819669 0.23769 0)
(0.839664 0.247892 0)
(0.859516 0.257837 0)
(0.879317 0.267436 0)
(0.899605 0.277049 0)
(0.920494 0.28633 0)
(0.942571 0.294926 -8.56625e-028)
(0.431819 0.00718647 0)
(0.439985 0.0140775 0)
(0.449313 0.0245629 0)
(0.459749 0.0351012 0)
(0.471245 0.04562 0)
(0.483751 0.0562831 0)
(0.497208 0.0671449 0)
(0.511558 0.0781917 0)
(0.526736 0.0894035 0)
(0.54268 0.100764 0)
(0.559329 0.112256 0)
(0.576622 0.123862 0)
(0.594498 0.135558 0)
(0.612899 0.147323 0)
(0.63177 0.159132 0)
(0.651053 0.170959 0)
(0.67069 0.182774 0)
(0.690628 0.194549 0)
(0.710812 0.206254 0)
(0.731186 0.217858 0)
(0.751697 0.22933 0)
(0.772288 0.240637 0)
(0.792908 0.251746 0)
(0.813507 0.262627 0)
(0.834042 0.273248 0)
(0.854515 0.283538 0)
(0.87522 0.293631 0)
(0.896329 0.303364 0)
(0.919733 0.313585 9.72278e-026)
(0.40807 0.00756081 0)
(0.415747 0.0148003 0)
(0.424585 0.0258372 0)
(0.434532 0.0369162 0)
(0.445546 0.0479778 0)
(0.457583 0.0591979 0)
(0.470592 0.0706334 0)
(0.484519 0.0822704 0)
(0.499307 0.0940894 0)
(0.514898 0.106074 0)
(0.531238 0.118209 0)
(0.548271 0.130473 0)
(0.565941 0.142845 0)
(0.584195 0.1553 0)
(0.602979 0.167813 0)
(0.622242 0.180354 0)
(0.641932 0.192894 0)
(0.661995 0.205401 0)
(0.682379 0.217841 0)
(0.703031 0.23018 0)
(0.723898 0.242383 0)
(0.744926 0.254414 0)
(0.766063 0.266237 0)
(0.787258 0.277818 0)
(0.808461 0.289124 0)
(0.829642 0.300107 0)
(0.85092 0.310812 0)
(0.872226 0.321088 0)
(0.896218 0.331546 1.03929e-025)
(0.384577 0.00793437 0)
(0.391776 0.0155307 0)
(0.400129 0.0271253 0)
(0.409588 0.0387489 0)
(0.420117 0.0503584 0)
(0.431679 0.0621425 0)
(0.444228 0.0741599 0)
(0.457718 0.0863971 0)
(0.472098 0.0988352 0)
(0.487316 0.111459 0)
(0.503324 0.124252 0)
(0.520072 0.137195 0)
(0.537511 0.150265 0)
(0.555592 0.163437 0)
(0.574265 0.176681 0)
(0.593483 0.189967 0)
(0.6132 0.203265 0)
(0.633367 0.216538 0)
(0.653935 0.22975 0)
(0.674853 0.242861 0)
(0.696069 0.255833 0)
(0.717531 0.268624 0)
(0.739185 0.281193 0)
(0.760977 0.293501 0)
(0.782854 0.305511 0)
(0.804767 0.317178 0)
(0.826735 0.328524 0)
(0.848697 0.339367 0)
(0.871694 0.350296 -1.09782e-025)
(0.361391 0.00830364 0)
(0.368123 0.0162664 0)
(0.376 0.0284221 0)
(0.384973 0.0405916 0)
(0.395014 0.0527519 0)
(0.406093 0.0651044 0)
(0.418172 0.0777101 0)
(0.431209 0.0905556 0)
(0.445161 0.103623 0)
(0.459985 0.116899 0)
(0.475635 0.130367 0)
(0.49207 0.144008 0)
(0.509247 0.157798 0)
(0.527125 0.171713 0)
(0.545661 0.185722 0)
(0.564809 0.199789 0)
(0.584528 0.213881 0)
(0.604777 0.22796 0)
(0.62551 0.241985 0)
(0.64668 0.255912 0)
(0.668238 0.269695 0)
(0.690133 0.283289 0)
(0.712311 0.296645 0)
(0.734716 0.309715 0)
(0.75729 0.322456 0)
(0.779974 0.334818 0)
(0.802739 0.346788 0)
(0.825552 0.358267 0)
(0.848277 0.369361 1.16184e-025)
(0.338562 0.00866496 0)
(0.344842 0.0170039 0)
(0.352251 0.0297211 0)
(0.360741 0.0424345 0)
(0.370291 0.0551456 0)
(0.380879 0.0680689 0)
(0.392475 0.0812667 0)
(0.405043 0.0947267 0)
(0.418548 0.108433 0)
(0.432952 0.122373 0)
(0.448218 0.136531 0)
(0.46431 0.15089 0)
(0.481194 0.165424 0)
(0.498833 0.180108 0)
(0.517196 0.19491 0)
(0.536243 0.209796 0)
(0.555938 0.224725 0)
(0.576243 0.239656 0)
(0.597119 0.254542 0)
(0.618526 0.269336 0)
(0.640419 0.283984 0)
(0.662748 0.298432 0)
(0.685461 0.312625 0)
(0.708502 0.326506 0)
(0.731809 0.340018 0)
(0.755319 0.353106 0)
(0.778977 0.365722 0)
(0.802739 0.377847 0)
(0.82629 0.389216 -2.45175e-025)
(0.316141 0.00901442 0)
(0.321984 0.0177386 0)
(0.328934 0.0310138 0)
(0.336944 0.0442654 0)
(0.346001 0.057524 0)
(0.356091 0.0710167 0)
(0.367191 0.0848075 0)
(0.379273 0.0988851 0)
(0.392308 0.113236 0)
(0.406265 0.127849 0)
(0.421117 0.142712 0)
(0.436834 0.157805 0)
(0.45339 0.173107 0)
(0.470756 0.188588 0)
(0.488906 0.204218 0)
(0.507812 0.21996 0)
(0.527445 0.235771 0)
(0.547775 0.251605 0)
(0.568771 0.267411 0)
(0.590396 0.283131 0)
(0.612612 0.298708 0)
(0.635375 0.314076 0)
(0.658636 0.329171 0)
(0.682339 0.343923 0)
(0.706421 0.358265 0)
(0.730814 0.372129 0)
(0.755452 0.38545 0)
(0.78027 0.398202 0)
(0.805039 0.410174 8.12981e-028)
(0.294179 0.00934795 0)
(0.2996 0.0184644 0)
(0.306104 0.0322897 0)
(0.313637 0.0460692 0)
(0.322198 0.0598679 0)
(0.331782 0.073925 0)
(0.342373 0.0883056 0)
(0.35395 0.103 0)
(0.366491 0.117998 0)
(0.379974 0.133292 0)
(0.394378 0.148869 0)
(0.409684 0.164714 0)
(0.42587 0.180804 0)
(0.44292 0.197112 0)
(0.460816 0.213608 0)
(0.479539 0.230249 0)
(0.499067 0.24699 0)
(0.519382 0.263783 0)
(0.540462 0.280571 0)
(0.56228 0.29729 0)
(0.584804 0.31387 0)
(0.607998 0.330237 0)
(0.631816 0.346314 0)
(0.656206 0.362017 0)
(0.681105 0.377263 0)
(0.706443 0.391969 0)
(0.73214 0.406056 0)
(0.758118 0.419464 0)
(0.784214 0.432103 1.26665e-027)
(0.272727 0.00966128 0)
(0.277745 0.0191738 0)
(0.283811 0.0335357 0)
(0.290872 0.0478277 0)
(0.298935 0.0621542 0)
(0.308005 0.076766 0)
(0.318073 0.0917291 0)
(0.329125 0.107036 0)
(0.341148 0.122681 0)
(0.354127 0.138657 0)
(0.368048 0.154958 0)
(0.382901 0.171568 0)
(0.398674 0.188467 0)
(0.415358 0.205629 0)
(0.432947 0.223023 0)
(0.451439 0.240607 0)
(0.470815 0.258334 0)
(0.491068 0.27615 0)
(0.512189 0.293993 0)
(0.534163 0.31179 0)
(0.556971 0.329463 0)
(0.580584 0.346925 0)
(0.604965 0.36408 0)
(0.630066 0.380831 0)
(0.655827 0.397075 0)
(0.682174 0.412708 0)
(0.709018 0.427631 0)
(0.736264 0.441753 0)
(0.763773 0.455014 1.42343e-025)
(0.251837 0.00995001 0)
(0.256469 0.0198571 0)
(0.26211 0.0347361 0)
(0.268702 0.049519 0)
(0.276265 0.0643555 0)
(0.284812 0.0795072 0)
(0.294343 0.0950403 0)
(0.304851 0.110951 0)
(0.316329 0.127236 0)
(0.328771 0.143895 0)
(0.342172 0.160922 0)
(0.356529 0.178307 0)
(0.371841 0.196031 0)
(0.388108 0.214072 0)
(0.405335 0.232396 0)
(0.423529 0.250967 0)
(0.442691 0.269739 0)
(0.462825 0.288647 0)
(0.483935 0.307625 0)
(0.506021 0.326594 0)
(0.529077 0.345465 0)
(0.553089 0.364133 0)
(0.578032 0.382489 0)
(0.603865 0.400409 0)
(0.630534 0.417769 0)
(0.657961 0.434438 0)
(0.686053 0.450289 0)
(0.714694 0.465201 0)
(0.743743 0.47909 -1.46215e-025)
(0.231564 0.0102095 0)
(0.235828 0.020503 0)
(0.241054 0.0358725 0)
(0.247181 0.051118 0)
(0.254241 0.0664406 0)
(0.262256 0.0821114 0)
(0.271235 0.0981963 0)
(0.281177 0.114695 0)
(0.292084 0.131609 0)
(0.303957 0.148943 0)
(0.3168 0.166695 0)
(0.330616 0.184859 0)
(0.345414 0.20342 0)
(0.361206 0.222358 0)
(0.378005 0.241644 0)
(0.395833 0.261249 0)
(0.414713 0.281117 0)
(0.434655 0.301185 0)
(0.455685 0.321387 0)
(0.47782 0.341633 0)
(0.501075 0.361821 0)
(0.525452 0.381833 0)
(0.550945 0.401535 0)
(0.577526 0.420779 0)
(0.605147 0.439407 0)
(0.633735 0.457255 0)
(0.663187 0.474158 0)
(0.69337 0.489962 0)
(0.724124 0.504537 1.54504e-025)
(0.211963 0.0104355 0)
(0.215874 0.0210982 0)
(0.220696 0.0369245 0)
(0.22636 0.0525974 0)
(0.232913 0.0683759 0)
(0.240388 0.0845386 0)
(0.2488 0.101151 0)
(0.258157 0.118215 0)
(0.268466 0.135741 0)
(0.279738 0.153735 0)
(0.291982 0.172203 0)
(0.305211 0.191141 0)
(0.319441 0.210542 0)
(0.334695 0.230391 0)
(0.350997 0.250664 0)
(0.36838 0.271329 0)
(0.386894 0.292342 0)
(0.40656 0.313649 0)
(0.427424 0.335165 0)
(0.449528 0.356802 0)
(0.472911 0.378445 0)
(0.497601 0.399958 0)
(0.523614 0.421184 0)
(0.550944 0.441941 0)
(0.57956 0.462033 0)
(0.609392 0.481247 0)
(0.640333 0.499372 0)
(0.672229 0.5162 0)
(0.704889 0.531553 0)
(0.19309 0.0106239 0)
(0.196661 0.0216289 0)
(0.201087 0.0378713 0)
(0.20629 0.0539296 0)
(0.212332 0.0701272 0)
(0.219258 0.0867482 0)
(0.227089 0.103856 0)
(0.235841 0.121458 0)
(0.245529 0.139568 0)
(0.256167 0.1582 0)
(0.267774 0.177363 0)
(0.28037 0.197061 0)
(0.293978 0.217293 0)
(0.308628 0.238051 0)
(0.324359 0.25932 0)
(0.341215 0.28107 0)
(0.359257 0.303277 0)
(0.37855 0.325881 0)
(0.399144 0.3488 0)
(0.421113 0.371944 0)
(0.444528 0.39519 0)
(0.469451 0.418383 0)
(0.495931 0.441341 0)
(0.523994 0.463844 0)
(0.553632 0.485646 0)
(0.584792 0.506475 0)
(0.617365 0.52605 0)
(0.651175 0.544092 0)
(0.68599 0.560354 1.60303e-025)
(0.175 0.0107726 0)
(0.17824 0.0220812 0)
(0.182276 0.0386936 0)
(0.187017 0.0550892 0)
(0.192545 0.0716629 0)
(0.198914 0.0887017 0)
(0.206152 0.106266 0)
(0.214282 0.124368 0)
(0.223325 0.143026 0)
(0.233304 0.162261 0)
(0.24424 0.182087 0)
(0.256158 0.202515 0)
(0.269089 0.223554 0)
(0.283072 0.245203 0)
(0.298153 0.26746 0)
(0.314392 0.290309 0)
(0.331857 0.313726 0)
(0.35065 0.337668 0)
(0.37085 0.362074 0)
(0.392557 0.386837 0)
(0.415878 0.411835 0)
(0.44092 0.436901 0)
(0.467777 0.461826 0)
(0.496522 0.48635 0)
(0.527189 0.510167 0)
(0.559751 0.532929 0)
(0.594108 0.554262 0)
(0.630066 0.573784 0)
(0.66734 0.591148 -5.56027e-027)
(0.157744 0.0108819 0)
(0.160656 0.0224433 0)
(0.164305 0.0393758 0)
(0.168585 0.0560547 0)
(0.173595 0.0729554 0)
(0.179399 0.090364 0)
(0.186035 0.108337 0)
(0.193531 0.12689 0)
(0.201914 0.146048 0)
(0.21121 0.165836 0)
(0.221445 0.186276 0)
(0.232647 0.207387 0)
(0.244852 0.229186 0)
(0.258102 0.251688 0)
(0.272456 0.274902 0)
(0.287981 0.298831 0)
(0.304765 0.323458 0)
(0.322919 0.348767 0)
(0.342579 0.374703 0)
(0.363865 0.401177 0)
(0.386931 0.428066 0)
(0.411936 0.455197 0)
(0.439036 0.482338 0)
(0.468368 0.50919 0)
(0.500027 0.535382 0)