/*--------------------------------*- C++ -*----------------------------------*\
| =========                 |                                                 |
| \\      /  F ield         | OpenFOAM: The Open Source CFD Toolbox           |
|  \\    /   O peration     | Version:  5.x                                   |
|   \\  /    A nd           | Web:      www.OpenFOAM.org                      |
|    \\/     M anipulation  |                                                 |
\*---------------------------------------------------------------------------*/
/*   Windows 32 and 64 bit porting by blueCAPE: http://www.bluecape.com.pt   *\
|  Based on Windows porting (2.0.x v4) by Symscape: http://www.symscape.com   |
\*---------------------------------------------------------------------------*/
FoamFile
{
    version     2.0;
    format      ascii;
    class       volScalarField;
    location    "320";
    object      epsilon;
}
// * * * * * * * * * * * * * * * * * * * * * * * * * * * * * * * * * * * * * //

dimensions      [0 2 -3 0 0 0 0];

internalField   nonuniform List<scalar> 
43900
(
0.00152925
0.00151909
0.00151979
0.00151971
0.00151968
0.00151967
0.00151967
0.00151967
0.00151967
0.00151968
0.00151967
0.00151968
0.00151968
0.00151968
0.00151969
0.00151968
0.00151968
0.00151969
0.00151969
0.00151969
0.00151969
0.00151969
0.00151969
0.00151969
0.00151969
0.00151969
0.00151969
0.00151969
0.00151969
0.000413915
3.81913e-005
3.16664e-005
3.1521e-005
3.27302e-005
3.27937e-005
3.28062e-005
3.27916e-005
3.27919e-005
3.27961e-005
3.27952e-005
3.28003e-005
3.28042e-005
3.28057e-005
3.28087e-005
3.28075e-005
3.2807e-005
3.28116e-005
3.2812e-005
3.28123e-005
3.28133e-005
3.28124e-005
3.28146e-005
3.28157e-005
3.28146e-005
3.28167e-005
3.28177e-005
3.28166e-005
3.2818e-005
0.0508349
0.00575226
0.000289677
1.14897e-005
1.71169e-006
1.32783e-006
1.32679e-006
1.40982e-006
1.41881e-006
1.41756e-006
1.4164e-006
1.41662e-006
1.41728e-006
1.41784e-006
1.41807e-006
1.41816e-006
1.41863e-006
1.41907e-006
1.41909e-006
1.41929e-006
1.41939e-006
1.41953e-006
1.41988e-006
1.42001e-006
1.42014e-006
1.42032e-006
1.42024e-006
1.42026e-006
1.42052e-006
0.146421
0.0437307
0.00966258
0.00131771
8.34037e-005
3.40728e-006
3.4155e-007
1.22467e-007
1.08347e-007
1.15573e-007
1.19855e-007
1.20157e-007
1.19592e-007
1.19471e-007
1.19592e-007
1.19649e-007
1.19668e-007
1.19698e-007
1.19735e-007
1.19769e-007
1.19785e-007
1.19819e-007
1.19856e-007
1.1986e-007
1.19876e-007
1.19898e-007
1.19915e-007
1.19947e-007
1.19969e-007
0.197754
0.0845294
0.0338711
0.0112556
0.00264912
0.000357078
2.2437e-005
9.63632e-007
8.41703e-008
2.22449e-008
1.64944e-008
1.71209e-008
1.84222e-008
1.86184e-008
1.84352e-008
1.84155e-008
1.8484e-008
1.84876e-008
1.84741e-008
1.84785e-008
1.8481e-008
1.84836e-008
1.84892e-008
1.84947e-008
1.8501e-008
1.85045e-008
1.85072e-008
1.85094e-008
1.85118e-008
0.222687
0.109097
0.0532834
0.0250944
0.0104959
0.00331504
0.000705466
7.71967e-005
4.27544e-006
2.02828e-007
1.91705e-008
5.55334e-009
4.10358e-009
4.43431e-009
4.73214e-009
4.71423e-009
4.63226e-009
4.64659e-009
4.67254e-009
4.66998e-009
4.67184e-009
4.676e-009
4.67587e-009
4.67587e-009
4.6773e-009
4.67819e-009
4.67894e-009
4.68043e-009
4.68161e-009
0.23424
0.123679
0.0661386
0.0353189
0.0183833
0.00892027
0.0035646
0.000975076
0.000153232
1.17239e-005
6.05822e-007
3.33015e-008
4.38145e-009
1.73756e-009
1.52513e-009
1.6711e-009
1.75125e-009
1.71403e-009
1.69806e-009
1.70726e-009
1.70629e-009
1.70542e-009
1.70726e-009
1.70854e-009
1.70799e-009
1.70779e-009
1.70833e-009
1.70909e-009
1.70921e-009
0.237388
0.131282
0.0739402
0.0420667
0.0238763
0.0132571
0.00694458
0.00316847
0.00103541
0.000215388
2.26004e-005
1.38325e-006
7.70577e-008
5.46603e-009
1.22213e-009
7.32745e-010
7.53107e-010
8.16729e-010
8.13148e-010
7.97841e-010
8.01683e-010
8.04099e-010
8.03459e-010
8.04176e-010
8.058e-010
8.05795e-010
8.05656e-010
8.05888e-010
8.06036e-010
0.236595
0.135364
0.0790562
0.0468707
0.0279883
0.0166496
0.00970257
0.00538241
0.00268581
0.0010218
0.000247476
3.17545e-005
2.27644e-006
1.38431e-007
9.05322e-009
1.10641e-009
4.77279e-010
4.04347e-010
4.47133e-010
4.62983e-010
4.53522e-010
4.52079e-010
4.52246e-010
4.51553e-010
4.51346e-010
4.523e-010
4.52851e-010
4.52783e-010
4.528e-010
0.232324
0.136013
0.0814844
0.0497135
0.0307122
0.0190735
0.0117889
0.00714331
0.00413748
0.0021791
0.000919161
0.000245491
3.59469e-005
2.93765e-006
1.96912e-007
1.34939e-008
1.25304e-009
3.86166e-010
2.63346e-010
2.77103e-010
2.93265e-010
2.8909e-010
2.88067e-010
2.88912e-010
2.88337e-010
2.87192e-010
2.87555e-010
2.88276e-010
2.88462e-010
0.225226
0.134295
0.0818924
0.050965
0.0322175
0.0205779
0.0131894
0.00840301
0.00524622
0.00313473
0.00171384
0.000771648
0.000218939
3.48155e-005
3.15452e-006
2.33231e-007
1.7292e-008
1.52129e-009
3.2062e-010
1.94414e-010
1.88784e-010
2.01982e-010
2.01504e-010
2.00248e-010
2.01125e-010
2.01365e-010
2.00543e-010
2.00035e-010
2.00222e-010
0.217269
0.131499
0.0814483
0.0514964
0.0331267
0.0215894
0.0141834
0.00933117
0.00609146
0.00389189
0.00237922
0.0013343
0.000623758
0.000183262
3.08982e-005
3.05879e-006
2.49478e-007
2.02548e-008
1.82106e-009
3.00711e-010
1.58302e-010
1.33892e-010
1.45173e-010
1.48149e-010
1.46895e-010
1.47473e-010
1.48703e-010
1.48535e-010
1.4815e-010
0.208376
0.12777
0.0801858
0.0513708
0.0335248
0.0222042
0.0148652
0.0100097
0.00673553
0.0044883
0.00292195
0.00181775
0.00103724
0.000494553
0.000147555
2.58296e-005
2.76398e-006
2.48498e-007
2.2157e-008
2.10952e-009
3.07526e-010
1.36291e-010
1.06124e-010
1.10392e-010
1.13476e-010
1.12485e-010
1.12859e-010
1.13752e-010
1.14072e-010
0.198724
0.123237
0.0782252
0.0507282
0.0334946
0.0224854
0.0152857
0.0104812
0.00721326
0.00495011
0.00335672
0.00221893
0.00139855
0.00080658
0.000387413
0.000115243
2.03718e-005
2.3217e-006
2.28939e-007
2.2383e-008
2.29329e-009
3.20849e-010
1.17519e-010
8.76748e-011
8.76117e-011
9.03545e-011
8.95262e-011
8.88853e-011
8.95957e-011
0.188574
0.118112
0.0757321
0.0496224
0.0331473
0.0224948
0.0154921
0.0107827
0.00755438
0.00530091
0.00370095
0.00254732
0.00170477
0.00108446
0.000628365
0.000300431
8.79734e-005
1.55494e-005
1.88583e-006
2.04232e-007
2.19593e-008
2.44473e-009
3.40739e-010
1.06883e-010
7.61423e-011
7.12101e-011
7.46827e-011
7.43985e-011
7.32755e-011
0.178088
0.112569
0.0728373
0.0481779
0.0324995
0.0223073
0.0155279
0.0109473
0.00778501
0.00556174
0.00397141
0.00281537
0.00196285
0.0013269
0.000849481
0.000492378
0.000231937
6.65975e-005
1.18745e-005
1.54137e-006
1.83129e-007
2.15871e-008
2.60903e-009
3.71235e-010
1.03002e-010
6.9305e-011
6.11006e-011
6.34255e-011
6.3953e-011
0.167416
0.106736
0.0696566
0.0464757
0.0316392
0.0219265
0.0154313
0.0109974
0.00792126
0.00574445
0.00417696
0.00302947
0.00217657
0.00153413
0.00104528
0.000671633
0.000387835
0.000178479
5.01812e-005
9.07427e-006
1.26016e-006
1.63022e-007
2.09412e-008
2.74277e-009
4.06105e-010
1.04262e-010
6.3203e-011
5.42612e-011
5.54576e-011
0.156712
0.100738
0.0662818
0.0445918
0.0306156
0.0214093
0.0152148
0.0109593
0.00798393
0.00586524
0.00432985
0.00319856
0.00235193
0.00170925
0.00121546
0.00083276
0.000535443
0.000306591
0.000136415
3.76522e-005
6.95565e-006
1.03557e-006
1.45836e-007
2.04095e-008
2.89882e-009
4.52197e-010
1.09171e-010
5.8784e-011
4.90539e-011
0.146077
0.0946601
0.0627822
0.0425794
0.0294758
0.0207885
0.0149074
0.0108457
0.00798143
0.00593342
0.00443957
0.0033317
0.00249703
0.00185892
0.00136464
0.000977614
0.00067248
0.000431869
0.000244524
0.000104365
2.84264e-005
5.42245e-006
8.69514e-007
1.33233e-007
2.0239e-008
3.09919e-009
5.09284e-010
1.17188e-010
5.5868e-011
0.135596
0.0885722
0.0592105
0.0404782
0.0282493
0.0200903
0.0145327
0.0106707
0.00793611
0.00596079
0.00451325
0.00343352
0.00261518
0.0019856
0.0014945
0.00110679
0.000797808
0.000550285
0.000352436
0.000196812
8.00053e-005
2.16751e-005
4.3021e-006
7.41477e-007
1.2288e-007
2.01675e-008
3.32604e-009
5.78088e-010
1.27879e-010
0.125346
0.0825339
0.0556117
0.0383212
0.0269602
0.0193318
0.0141029
0.0104475
0.00784284
0.00595139
0.00455654
0.00350963
0.0027113
0.0020933
0.0016081
0.0012223
0.000912176
0.000660898
0.000456615
0.000291301
0.000160139
6.14478e-005
1.67295e-005
3.48034e-006
6.44804e-007
1.15394e-007
2.04329e-008
3.6316e-009
6.5866e-010
0.115386
0.0765918
0.0520211
0.0361349
0.0256283
0.0185284
0.0136312
0.0101864
0.00771707
0.00591508
0.00457455
0.00356357
0.00278817
0.00218438
0.00170748
0.0013258
0.00101674
0.000764071
0.00055615
0.000384801
0.000244607
0.000132864
4.91087e-005
1.34046e-005
2.92056e-006
5.79519e-007
1.1151e-007
2.123e-008
3.95913e-009
0.105768
0.0707859
0.0484684
0.0339407
0.024269
0.0176908
0.0131245
0.00989213
0.00756086
0.00584857
0.00456866
0.00359739
0.00284788
0.00226073
0.00179416
0.00141844
0.00111218
0.000859891
0.000650324
0.000475379
0.000329396
0.000208773
0.00011178
4.06304e-005
1.11572e-005
2.54678e-006
5.39074e-007
1.11163e-007
2.21848e-008
0.0965355
0.0651509
0.0449794
0.0317579
0.0228965
0.0168298
0.0125913
0.00957198
0.00738081
0.00576191
0.0045455
0.00361469
0.00289262
0.0023238
0.00186924
0.00150106
0.00119911
0.000948707
0.000739072
0.00056233
0.000412797
0.000286534
0.000181073
9.53789e-005
3.45589e-005
9.69655e-006
2.32341e-006
5.22413e-007
1.12145e-007
0.0877257
0.0597159
0.0415766
0.029603
0.0215228
0.0159538
0.0120374
0.00922947
0.00717871
0.00565409
0.0045009
0.00361368
0.00292225
0.00237411
0.00193341
0.00157433
0.00127808
0.00103085
0.000822443
0.000645304
0.000493865
0.000364108
0.000253276
0.000159775
8.30338e-005
3.03093e-005
8.75605e-006
2.20258e-006
5.11377e-007
0.079368
0.0545059
0.0382794
0.0274907
0.0201589
0.0150711
0.0114692
0.00886982
0.00695918
0.00552985
0.00444227
0.00360143
0.00294039
0.0024136
0.00198778
0.00163891
0.00134945
0.00110649
0.000900406
0.000724008
0.000571933
0.000440216
0.000326006
0.00022742
0.000143431
7.38481e-005
2.73259e-005
8.16445e-006
2.1036e-006
0.0714856
0.0495417
0.0351046
0.0254342
0.0188149
0.0141893
0.0108921
0.00849677
0.00672456
0.00539028
0.00436875
0.003574
0.00294508
0.00244171
0.00203237
0.00169503
0.00141354
0.00117589
0.000973103
0.000798417
0.00064673
0.000514212
0.000398027
0.000296173
0.000207369
0.000130991
6.71162e-005
2.52981e-005
7.64981e-006
0.0640948
0.0448397
0.0320663
0.0234447
0.0174994
0.0133149
0.0103113
0.00811427
0.00647797
0.00523801
0.0042827
0.00353475
0.00294007
0.00246051
0.00206836
0.00174341
0.00147075
0.00123928
0.00104064
0.000868506
0.00071807
0.000585677
0.000468576
0.000364747
0.000272789
0.000191853
0.000121584
6.23326e-005
2.34828e-005
0.0572059
0.0404122
0.0291761
0.0215319
0.0162203
0.0124542
0.00973142
0.00772598
0.00622226
0.00507528
0.00418594
0.00348545
0.00292551
0.00247047
0.00209631
0.00178455
0.00152153
0.00129701
0.00110327
0.000934416
0.000785958
0.000654448
0.000537256
0.000432406
0.000338465
0.000254467
0.000179835
0.000114864
5.78537e-005
0.0508223
0.0362675
0.0264426
0.0197036
0.0149841
0.0116122
0.00915666
0.00733512
0.00595984
0.00490378
0.00407958
0.00342623
0.00290038
0.0024707
0.00211602
0.00181858
0.00156612
0.00134935
0.00116123
0.000996336
0.000850509
0.00072053
0.000603921
0.000498789
0.000403723
0.000317715
0.000240109
0.000170742
0.000109418
0.044942
0.0324096
0.0238718
0.0179658
0.013796
0.0107937
0.00859068
0.00694463
0.00569313
0.0047256
0.00396553
0.0033592
0.00286832
0.00246534
0.00212962
0.00184668
0.00160524
0.0013968
0.0012149
0.00105456
0.000911944
0.000784063
0.000668606
0.000563789
0.000468254
0.000381003
0.000301348
0.000228923
0.000163781
0.039557
0.028839
0.0214672
0.016323
0.0126605
0.0100022
0.00803661
0.00655707
0.00542416
0.00454228
0.00384491
0.00328503
0.00282898
0.0024524
0.00213665
0.00186895
0.00163921
0.00143973
0.00126466
0.00110945
0.000970579
0.000845315
0.000731514
0.000627514
0.000532038
0.000444125
0.00036309
0.000288504
0.000220227
0.0346547
0.0255529
0.0192303
0.014778
0.0115806
0.00924075
0.00749702
0.0061746
0.00515467
0.00435524
0.00371883
0.00320459
0.00278304
0.00243257
0.00213703
0.00188553
0.00166827
0.00147846
0.00131085
0.00116134
0.00102677
0.000904628
0.000792957
0.000690229
0.000595261
0.000507152
0.000425245
0.000349101
0.000278473
0.0302186
0.0225455
0.0171603
0.0133322
0.0105586
0.00851169
0.00697406
0.00579903
0.0048862
0.00416574
0.00358839
0.00311887
0.0027316
0.00240776
0.00213343
0.00189784
0.00169328
0.00151356
0.00135392
0.00121067
0.00108092
0.000962398
0.000853324
0.000752303
0.000658253
0.000570347
0.000487974
0.000410715
0.000338303
0.0262284
0.0198088
0.015255
0.0119861
0.00959591
0.00781679
0.00646944
0.00543192
0.00462004
0.00397484
0.00345439
0.00302847
0.00267502
0.00237773
0.00212449
0.00190554
0.0017143
0.00154527
0.00139421
0.0012578
0.00113342
0.00101905
0.000913057
0.000814186
0.000721457
0.000634122
0.000551632
0.000473605
0.000399796
0.0226614
0.0173327
0.0135104
0.010739
0.00869336
0.00715737
0.00598459
0.00507456
0.0043573
0.00378342
0.00331751
0.00293388
0.00261362
0.00234266
0.00211037
0.00190853
0.00173134
0.00157371
0.00143192
0.001303
0.00118464
0.001075
0.000972634
0.000876395
0.000785412
0.00069902
0.000616736
0.000538232
0.000463306
0.0194927
0.0151053
0.0119219
0.00958938
0.00785116
0.00653436
0.00552067
0.00472807
0.00409895
0.00359227
0.00317837
0.00283556
0.00254778
0.00230295
0.00209189
0.00190749
0.00174477
0.00159914
0.00146727
0.00134656
0.00123492
0.00113069
0.00103256
0.000939509
0.000850757
0.000765715
0.00068397
0.000605256
0.000529427
0.0166958
0.0131138
0.0104834
0.00853525
0.0070691
0.00594844
0.00507865
0.00439347
0.00384588
0.0034021
0.00303749
0.00273388
0.00247772
0.00225873
0.00206908
0.00190281
0.00175479
0.00162167
0.00150042
0.00138868
0.00128454
0.0011865
0.00109335
0.00100417
0.000918234
0.000835031
0.000754206
0.000675558
0.00059901
0.0142434
0.0113442
0.00918847
0.00757387
0.00634655
0.00539997
0.00465933
0.00407165
0.00359893
0.00321359
0.00289536
0.00262913
0.00240354
0.0022099
0.00204154
0.00189327
0.00176075
0.00164094
0.00153117
0.00142931
0.00133363
0.00124274
0.0011555
0.00107104
0.000988691
0.000907962
0.000828549
0.000750305
0.000673223
0.0121076
0.00978162
0.00802957
0.00670198
0.00568249
0.0048891
0.0042634
0.00376346
0.00335891
0.00302743
0.00275248
0.0025216
0.00232533
0.00215638
0.00200907
0.00187889
0.00176207
0.00165645
0.00155912
0.00146819
0.00138209
0.00129951
0.00121936
0.00114076
0.00106302
0.000985652
0.000908353
0.000830999
0.000753642
0.0102599
0.00841076
0.00699876
0.00591583
0.00507554
0.00441575
0.00389141
0.00346974
0.00312669
0.0028444
0.00260946
0.00241169
0.00224329
0.00209817
0.00197156
0.00185962
0.00175928
0.00166806
0.00158384
0.00150484
0.00142954
0.00135663
0.001285
0.00121371
0.001142
0.00106927
0.000995145
0.000919464
0.00084229
0.00867237
0.00721583
0.00608755
0.00521122
0.00452404
0.00397969
0.00354394
0.00319145
0.00290338
0.00266556
0.00246725
0.00230019
0.00215798
0.0020356
0.00192906
0.00183516
0.00175138
0.00167499
0.00160461
0.00153852
0.00147526
0.00141351
0.00135209
0.00128992
0.00122606
0.00115975
0.00109038
0.00101765
0.000941512
0.00731752
0.00618102
0.00528721
0.00458372
0.00402618
0.00358073
0.00322173
0.00292987
0.00269053
0.0024926
0.00232752
0.00218864
0.00207077
0.0019698
0.00188243
0.00180597
0.00173819
0.001677
0.00162106
0.00156872
0.00151862
0.00146947
0.00142
0.00136897
0.00131519
0.00125757
0.00119516
0.00112728
0.00105364
0.00616913
0.0052909
0.00458903
0.00402889
0.00358023
0.00321888
0.00292596
0.00268691
0.00249055
0.00232819
0.00219308
0.00207991
0.00198449
0.00190348
0.00183417
0.00177437
0.00172223
0.00167614
0.00163446
0.00159612
0.00155987
0.00152442
0.00148844
0.00145051
0.00140915
0.00136283
0.00131009
0.00124965
0.00118063
0.0052027
0.00453084
0.00398472
0.00354257
0.0031848
0.00289465
0.00265845
0.00246539
0.00230694
0.00217639
0.00206838
0.0019787
0.00190396
0.00184148
0.00178906
0.00174495
0.0017077
0.00167606
0.001648
0.00162342
0.00160112
0.00157992
0.00155845
0.00153519
0.00150836
0.00147594
0.00143581
0.00138583
0.00132414
0.00439588
0.00388731
0.0034666
0.00312105
0.00283898
0.00260914
0.00242184
0.00226912
0.00214452
0.00204278
0.00195967
0.00189178
0.00183637
0.00179125
0.00175471
0.0017253
0.00170205
0.00168288
0.00166774
0.00165626
0.00164741
0.0016403
0.00163366
0.00162592
0.00161512
0.00159867
0.00157399
0.00153767
0.00148626
0.00372864
0.00334807
0.00302774
0.00276113
0.00254227
0.00236395
0.00221941
0.00210281
0.00200921
0.0019344
0.00187495
0.00182804
0.00179132
0.00176303
0.00174184
0.00172624
0.00171432
0.00170672
0.00170368
0.00170434
0.00170773
0.00171395
0.0017216
0.00172936
0.00173518
0.00173548
0.00172897
0.00170965
0.00167097
0.00318312
0.00290202
0.00266177
0.00245988
0.00229436
0.00216085
0.00205472
0.00197163
0.00190769
0.00185937
0.00182373
0.00179834
0.00178088
0.00176908
0.00176146
0.00175791
0.00175855
0.0017626
0.00177095
0.00178248
0.0017971
0.00181496
0.00183551
0.00185778
0.00188
0.00189892
0.00191056
0.00190742
0.00188562
0.00274327
0.00253891
0.00236259
0.00221429
0.00209464
0.00200129
0.0019311
0.0018807
0.00184698
0.0018266
0.00181688
0.001814
0.00181609
0.00182226
0.00183181
0.00184354
0.00185753
0.00187378
0.0018927
0.00191394
0.00193816
0.00196593
0.00199746
0.00203243
0.00206968
0.00210632
0.00213792
0.00215356
0.00214423
0.00239441
0.00224898
0.002124
0.00202083
0.00194183
0.00188598
0.00185124
0.00183477
0.00183428
0.0018444
0.00186363
0.00188929
0.00191875
0.00195
0.00198195
0.00201339
0.00204417
0.00207429
0.00210453
0.00213565
0.00216875
0.00220509
0.00224572
0.00229117
0.00234124
0.0023936
0.00244469
0.00248096
0.00248215
0.00212289
0.00202269
0.00193948
0.00187534
0.00183375
0.00181464
0.00181706
0.00183786
0.00187449
0.00192389
0.00198338
0.00204917
0.00211759
0.00218552
0.00225059
0.00231143
0.00236744
0.00241877
0.00246632
0.00251142
0.00255587
0.00260187
0.00265144
0.00270617
0.0027671
0.0028325
0.00290128
0.00295617
0.002969
0.00191603
0.00185073
0.00180221
0.00177298
0.00176737
0.00178594
0.00182872
0.00189309
0.00197843
0.00208091
0.0021964
0.00232017
0.00244747
0.00257361
0.00269457
0.00280735
0.00291019
0.00300251
0.0030849
0.00315885
0.00322664
0.00329204
0.00335801
0.00342751
0.00350249
0.00358146
0.00366664
0.0037386
0.00375738
0.00176222
0.00172417
0.00170529
0.00170848
0.00173851
0.00179801
0.0018871
0.00200657
0.00215478
0.00232874
0.00252433
0.00273603
0.0029574
0.00318155
0.00340184
0.00361258
0.00380954
0.00399014
0.00415349
0.00430016
0.00443193
0.00455583
0.00467444
0.00478931
0.00490414
0.00501834
0.00513216
0.0052413
0.00525515
0.00165111
0.00163476
0.00164199
0.00167611
0.00174371
0.00184806
0.00199294
0.00218
0.00241016
0.00268242
0.00299374
0.00333882
0.00371031
0.00409936
0.00449652
0.00489275
0.00528035
0.00565356
0.00600883
0.00634461
0.00666078
0.00696386
0.0072568
0.00754067
0.00781511
0.00808538
0.00830535
0.00859871
0.00856377
0.00157372
0.00157504
0.00160595
0.00167104
0.00177792
0.00193338
0.00214351
0.00241424
0.00275064
0.00315596
0.003631
0.00417341
0.00477764
0.00543536
0.00613642
0.00687029
0.00762745
0.00840063
0.00918557
0.00998116
0.0107893
0.0116102
0.0124615
0.0133477
0.0142628
0.0152465
0.0160406
0.0174638
0.0172478
0.00152246
0.00153842
0.0015917
0.00168773
0.00183696
0.00204919
0.00233557
0.00270805
0.00317877
0.00375891
0.0044575
0.00528037
0.00622955
0.00730353
0.00849827
0.0098091
0.0112329
0.0127706
0.0144293
0.0162239
0.0181798
0.0203251
0.0227051
0.0253952
0.0284704
0.0320987
0.0357149
0.0426138
0.0425034
0.00149102
0.00151935
0.0015941
0.00172151
0.00191548
0.0021904
0.00256405
0.00305701
0.00369219
0.00449364
0.00548514
0.00668881
0.00812425
0.0098086
0.011758
0.0139901
0.0165281
0.0194056
0.0226724
0.0264012
0.0306986
0.0357054
0.0416479
0.0487522
0.0575977
0.0686291
0.0825815
0.106187
0.113543
0.00147438
0.00151317
0.00160872
0.00176772
0.00200857
0.00235138
0.00282243
0.00345383
0.00428359
0.00535484
0.00671469
0.0084131
0.0105022
0.0130371
0.0160781
0.0196956
0.0239771
0.0290373
0.0350327
0.0421786
0.0507845
0.0612692
0.0743176
0.090699
0.112384
0.140234
0.181887
0.240872
0.287077
0.0014693
0.00151678
0.00163284
0.00182324
0.00211262
0.00252758
0.00310485
0.00389114
0.00494441
0.00633415
0.00814156
0.0104596
0.0133941
0.0170663
0.0216186
0.0272238
0.0340989
0.0425266
0.0528856
0.0656926
0.0816868
0.101881
0.127953
0.161865
0.208796
0.270733
0.372585
0.497589
0.67034
0.00151969
0.00151969
0.0015197
0.0015197
0.0015197
0.00151969
0.00151969
0.0015197
0.00151971
0.00151971
0.0015197
0.00151969
0.0015197
0.00151971
0.00151971
0.0015197
0.00151969
0.00151969
0.00151969
0.00151969
0.00151968
0.00151967
0.00151968
0.00151969
0.00151969
0.0015197
0.0015197
0.00151969
0.00151968
0.00151968
0.00151968
0.00151969
0.0015197
0.0015197
0.0015197
0.0015197
0.0015197
0.0015197
0.0015197
0.00151969
0.0015197
0.0015197
0.0015197
0.0015197
0.0015197
0.0015197
0.0015197
0.0015197
0.0015197
0.0015197
0.0015197
0.0015197
0.0015197
0.0015197
0.0015197
0.0015197
0.0015197
0.0015197
0.0015197
0.0015197
0.0015197
0.0015197
0.0015197
0.0015197
0.0015197
0.0015197
0.0015197
0.0015197
0.0015197
0.0015197
0.0015197
0.00151971
0.00151971
0.00151971
0.00151971
0.00151971
0.00151971
0.00151971
0.00151971
0.0015197
0.00151971
0.00151971
0.00151971
0.00151971
0.00151971
0.00151971
0.00151971
0.00151971
0.00151971
0.00151971
0.00151971
0.00151971
0.00151971
0.00151971
0.00151971
0.00151971
0.00151971
0.00151971
0.00151971
0.00151971
0.00151971
0.00151971
0.00151971
0.00151971
0.00151971
0.00151971
0.00151971
0.00151971
0.00151971
0.00151971
0.00151971
0.00151971
0.00151971
0.00151971
0.00151971
0.00151971
0.00151971
0.00151971
0.00151971
0.00151971
0.00151971
0.00151971
0.00151971
0.00151971
0.00151971
0.00151971
0.00151971
0.00151971
0.00151971
0.00151971
0.00151971
0.00151971
0.00151971
0.00151972
0.00151972
0.00151972
0.00151972
0.00151973
0.00154196
3.28182e-005
3.2818e-005
3.28227e-005
3.28277e-005
3.28238e-005
3.28158e-005
3.28163e-005
3.28266e-005
3.28351e-005
3.28328e-005
3.28215e-005
3.28175e-005
3.2829e-005
3.28417e-005
3.2839e-005
3.28222e-005
3.28121e-005
3.28152e-005
3.28201e-005
3.28154e-005
3.28023e-005
3.27984e-005
3.28049e-005
3.28163e-005
3.28204e-005
3.28228e-005
3.28243e-005
3.28187e-005
3.28077e-005
3.28034e-005
3.28042e-005
3.28181e-005
3.28246e-005
3.2824e-005
3.28235e-005
3.28233e-005
3.28231e-005
3.2823e-005
3.2823e-005
3.2823e-005
3.28231e-005
3.28236e-005
3.28243e-005
3.2825e-005
3.28256e-005
3.28259e-005
3.2826e-005
3.28261e-005
3.28262e-005
3.28264e-005
3.28265e-005
3.28267e-005
3.2827e-005
3.28274e-005
3.28277e-005
3.28281e-005
3.28287e-005
3.28291e-005
3.28297e-005
3.283e-005
3.28306e-005
3.2831e-005
3.28314e-005
3.28319e-005
3.28323e-005
3.28327e-005
3.28333e-005
3.28338e-005
3.28343e-005
3.28347e-005
3.28348e-005
3.28355e-005
3.28361e-005
3.28361e-005
3.28367e-005
3.28374e-005
3.28364e-005
3.28371e-005
3.28372e-005
3.28351e-005
3.28379e-005
3.28382e-005
3.28387e-005
3.28407e-005
3.28414e-005
3.28402e-005
3.28365e-005
3.28377e-005
3.2839e-005
3.28407e-005
3.28422e-005
3.28421e-005
3.28418e-005
3.28418e-005
3.28418e-005
3.28417e-005
3.2842e-005
3.28418e-005
3.2842e-005
3.2842e-005
3.2842e-005
3.28421e-005
3.28421e-005
3.28421e-005
3.2842e-005
3.28421e-005
3.28419e-005
3.28419e-005
3.28418e-005
3.28417e-005
3.28415e-005
3.28414e-005
3.28411e-005
3.28409e-005
3.28407e-005
3.28405e-005
3.28404e-005
3.28403e-005
3.28404e-005
3.28404e-005
3.28405e-005
3.28405e-005
3.28406e-005
3.28407e-005
3.28409e-005
3.28408e-005
3.28413e-005
3.28417e-005
3.28417e-005
3.28429e-005
3.28435e-005
3.28456e-005
3.28452e-005
3.28506e-005
3.28475e-005
3.28534e-005
3.28545e-005
3.28679e-005
3.50884e-005
1.42058e-006
1.42079e-006
1.42115e-006
1.42103e-006
1.42044e-006
1.42038e-006
1.42115e-006
1.42194e-006
1.42182e-006
1.42094e-006
1.42038e-006
1.42101e-006
1.42213e-006
1.4222e-006
1.42142e-006
1.42067e-006
1.42079e-006
1.42132e-006
1.42117e-006
1.42084e-006
1.42076e-006
1.42118e-006
1.42184e-006
1.42196e-006
1.42185e-006
1.42195e-006
1.42201e-006
1.42161e-006
1.42133e-006
1.42152e-006
1.42197e-006
1.42274e-006
1.42244e-006
1.42241e-006
1.42249e-006
1.42254e-006
1.42258e-006
1.42262e-006
1.42267e-006
1.42273e-006
1.4228e-006
1.42288e-006
1.42295e-006
1.42299e-006
1.42302e-006
1.42307e-006
1.42311e-006
1.42316e-006
1.4232e-006
1.42326e-006
1.42331e-006
1.42336e-006
1.42342e-006
1.42347e-006
1.42353e-006
1.4236e-006
1.42365e-006
1.42373e-006
1.42378e-006
1.42385e-006
1.42391e-006
1.42396e-006
1.42405e-006
1.42408e-006
1.42417e-006
1.4242e-006
1.4243e-006
1.4243e-006
1.42442e-006
1.42444e-006
1.42447e-006
1.42461e-006
1.42452e-006
1.42465e-006
1.42463e-006
1.42473e-006
1.42467e-006
1.42461e-006
1.42465e-006
1.42456e-006
1.42465e-006
1.42457e-006
1.42466e-006
1.42489e-006
1.425e-006
1.4249e-006
1.42482e-006
1.42495e-006
1.42491e-006
1.42504e-006
1.42519e-006
1.42526e-006
1.42529e-006
1.4253e-006
1.4253e-006
1.42531e-006
1.4253e-006
1.4253e-006
1.4253e-006
1.4253e-006
1.42529e-006
1.42528e-006
1.42527e-006
1.42527e-006
1.42525e-006
1.42524e-006
1.42522e-006
1.4252e-006
1.42518e-006
1.42515e-006
1.42512e-006
1.42508e-006
1.42504e-006
1.42498e-006
1.42494e-006
1.42486e-006
1.42483e-006
1.42477e-006
1.42476e-006
1.42472e-006
1.4247e-006
1.42465e-006
1.42462e-006
1.42459e-006
1.42455e-006
1.4245e-006
1.42451e-006
1.42439e-006
1.42439e-006
1.42453e-006
1.42429e-006
1.42455e-006
1.42449e-006
1.42494e-006
1.42437e-006
1.42815e-006
1.40109e-006
1.33245e-006
2.38195e-006
1.19973e-007
1.20001e-007
1.20021e-007
1.20003e-007
1.20009e-007
1.20074e-007
1.20138e-007
1.20129e-007
1.20068e-007
1.20043e-007
1.20099e-007
1.20183e-007
1.2021e-007
1.20162e-007
1.20105e-007
1.20094e-007
1.20139e-007
1.20191e-007
1.20223e-007
1.20236e-007
1.20259e-007
1.20245e-007
1.20258e-007
1.20268e-007
1.20311e-007
1.2033e-007
1.2034e-007
1.20336e-007
1.20331e-007
1.20315e-007
1.20332e-007
1.20359e-007
1.20387e-007
1.20411e-007
1.20424e-007
1.20435e-007
1.20446e-007
1.20457e-007
1.20468e-007
1.2048e-007
1.20493e-007
1.20504e-007
1.20511e-007
1.20517e-007
1.20527e-007
1.2054e-007
1.20554e-007
1.20569e-007
1.20582e-007
1.20596e-007
1.20607e-007
1.2062e-007
1.20632e-007
1.20644e-007
1.20656e-007
1.2067e-007
1.2068e-007
1.20693e-007
1.20703e-007
1.20716e-007
1.20727e-007
1.20737e-007
1.2075e-007
1.20759e-007
1.20771e-007
1.2078e-007
1.20791e-007
1.20798e-007
1.20811e-007
1.20817e-007
1.20824e-007
1.20839e-007
1.2084e-007
1.20854e-007
1.20855e-007
1.20863e-007
1.20865e-007
1.20868e-007
1.20879e-007
1.20877e-007
1.20896e-007
1.20894e-007
1.20906e-007
1.20917e-007
1.2093e-007
1.20931e-007
1.2093e-007
1.20939e-007
1.20945e-007
1.20956e-007
1.20971e-007
1.20983e-007
1.20995e-007
1.21002e-007
1.21005e-007
1.2101e-007
1.21009e-007
1.21014e-007
1.21015e-007
1.21016e-007
1.21017e-007
1.21018e-007
1.21018e-007
1.21017e-007
1.21016e-007
1.21014e-007
1.21013e-007
1.21009e-007
1.21006e-007
1.21e-007
1.20996e-007
1.20987e-007
1.20981e-007
1.20971e-007
1.20965e-007
1.20954e-007
1.20946e-007
1.20935e-007
1.20927e-007
1.20917e-007
1.20907e-007
1.20894e-007
1.20881e-007
1.20868e-007
1.20853e-007
1.20833e-007
1.20821e-007
1.20801e-007
1.20769e-007
1.20761e-007
1.20792e-007
1.20733e-007
1.20677e-007
1.21918e-007
1.21229e-007
1.09454e-007
1.77614e-007
1.13045e-005
0.00166798
1.85184e-008
1.85251e-008
1.85282e-008
1.85307e-008
1.8536e-008
1.85403e-008
1.85414e-008
1.85407e-008
1.8545e-008
1.85521e-008
1.85573e-008
1.85585e-008
1.85584e-008
1.85573e-008
1.85576e-008
1.85642e-008
1.85729e-008
1.85832e-008
1.85895e-008
1.85893e-008
1.85897e-008
1.85933e-008
1.85998e-008
1.86097e-008
1.86129e-008
1.86151e-008
1.86167e-008
1.86148e-008
1.86103e-008
1.86133e-008
1.86219e-008
1.86323e-008
1.86413e-008
1.86425e-008
1.86464e-008
1.86505e-008
1.86542e-008
1.86578e-008
1.86614e-008
1.8665e-008
1.86682e-008
1.86711e-008
1.86735e-008
1.86763e-008
1.86796e-008
1.86835e-008
1.86874e-008
1.86914e-008
1.86952e-008
1.8699e-008
1.87026e-008
1.87063e-008
1.87099e-008
1.87134e-008
1.87169e-008
1.87204e-008
1.87236e-008
1.87269e-008
1.873e-008
1.87333e-008
1.87363e-008
1.87394e-008
1.87426e-008
1.87454e-008
1.87485e-008
1.87513e-008
1.87541e-008
1.8757e-008
1.87597e-008
1.87622e-008
1.87649e-008
1.8768e-008
1.87701e-008
1.87738e-008
1.87752e-008
1.87775e-008
1.87791e-008
1.87812e-008
1.87836e-008
1.8785e-008
1.87888e-008
1.87899e-008
1.87925e-008
1.8795e-008
1.87968e-008
1.87978e-008
1.87993e-008
1.88026e-008
1.88035e-008
1.88055e-008
1.88085e-008
1.88108e-008
1.88124e-008
1.8814e-008
1.88156e-008
1.88176e-008
1.8818e-008
1.88198e-008
1.88203e-008
1.88212e-008
1.88218e-008
1.88222e-008
1.88225e-008
1.88224e-008
1.88225e-008
1.8822e-008
1.88219e-008
1.88206e-008
1.88198e-008
1.8818e-008
1.88165e-008
1.88136e-008
1.88116e-008
1.88085e-008
1.88064e-008
1.88036e-008
1.88009e-008
1.87978e-008
1.87951e-008
1.87921e-008
1.87889e-008
1.87852e-008
1.87816e-008
1.87777e-008
1.87735e-008
1.87692e-008
1.87687e-008
1.87552e-008
1.87311e-008
1.87898e-008
1.86707e-008
1.87437e-008
1.89769e-008
1.66968e-008
1.70428e-008
7.47745e-008
6.26087e-006
0.000660974
0.0160989
4.68328e-009
4.68456e-009
4.68558e-009
4.68613e-009
4.6866e-009
4.68784e-009
4.69013e-009
4.69212e-009
4.69331e-009
4.69318e-009
4.69337e-009
4.69545e-009
4.69774e-009
4.69873e-009
4.69934e-009
4.70058e-009
4.70346e-009
4.70622e-009
4.70766e-009
4.70844e-009
4.7094e-009
4.71171e-009
4.71396e-009
4.71637e-009
4.71784e-009
4.71879e-009
4.71886e-009
4.71853e-009
4.71932e-009
4.72141e-009
4.72334e-009
4.7262e-009
4.72754e-009
4.72898e-009
4.7307e-009
4.73234e-009
4.73389e-009
4.73541e-009
4.73692e-009
4.73841e-009
4.73981e-009
4.74111e-009
4.74241e-009
4.7438e-009
4.74528e-009
4.74683e-009
4.74841e-009
4.75e-009
4.75148e-009
4.75296e-009
4.75442e-009
4.75588e-009
4.75731e-009
4.75873e-009
4.76014e-009
4.76154e-009
4.76287e-009
4.76423e-009
4.76553e-009
4.76686e-009
4.76817e-009
4.76946e-009
4.77077e-009
4.772e-009
4.77328e-009
4.7745e-009
4.77573e-009
4.77689e-009
4.77813e-009
4.77925e-009
4.78034e-009
4.78174e-009
4.78259e-009
4.78415e-009
4.78465e-009
4.78601e-009
4.78632e-009
4.78735e-009
4.78841e-009
4.78962e-009
4.79087e-009
4.79106e-009