/*--------------------------------*- C++ -*----------------------------------*\
| =========                 |                                                 |
| \\      /  F ield         | OpenFOAM: The Open Source CFD Toolbox           |
|  \\    /   O peration     | Version:  5.x                                   |
|   \\  /    A nd           | Web:      www.OpenFOAM.org                      |
|    \\/     M anipulation  |                                                 |
\*---------------------------------------------------------------------------*/
/*   Windows 32 and 64 bit porting by blueCAPE: http://www.bluecape.com.pt   *\
|  Based on Windows porting (2.0.x v4) by Symscape: http://www.symscape.com   |
\*---------------------------------------------------------------------------*/
FoamFile
{
    version     2.0;
    format      ascii;
    class       volScalarField;
    location    "320";
    object      k;
}
// * * * * * * * * * * * * * * * * * * * * * * * * * * * * * * * * * * * * * //

dimensions      [0 2 -2 0 0 0 0];

internalField   nonuniform List<scalar> 
43900
(
0.000985518
0.000989436
0.000990249
0.000990178
0.000990128
0.000990116
0.000990121
0.000990121
0.000990121
0.000990125
0.000990124
0.000990128
0.000990131
0.000990132
0.000990135
0.000990133
0.000990133
0.000990136
0.000990137
0.000990137
0.000990138
0.000990137
0.000990138
0.000990139
0.000990138
0.00099014
0.000990141
0.00099014
0.000990141
0.00164943
5.60127e-005
3.89327e-005
3.81762e-005
4.08112e-005
4.09675e-005
4.09891e-005
4.09568e-005
4.09564e-005
4.09617e-005
4.09609e-005
4.09672e-005
4.09721e-005
4.09743e-005
4.0978e-005
4.09766e-005
4.09764e-005
4.09821e-005
4.09826e-005
4.09831e-005
4.09842e-005
4.09832e-005
4.09861e-005
4.09875e-005
4.09864e-005
4.0989e-005
4.099e-005
4.09887e-005
4.09906e-005
0.294418
0.0540019
0.00410159
0.00011785
5.00641e-006
3.08385e-006
2.97864e-006
3.34481e-006
3.38111e-006
3.37565e-006
3.37022e-006
3.37048e-006
3.37237e-006
3.37383e-006
3.37432e-006
3.37454e-006
3.37568e-006
3.37668e-006
3.37675e-006
3.37725e-006
3.37747e-006
3.37782e-006
3.37866e-006
3.37894e-006
3.37923e-006
3.37964e-006
3.37946e-006
3.37958e-006
3.38019e-006
0.879874
0.376515
0.119949
0.0237999
0.00207567
8.25283e-005
4.00567e-006
5.90555e-007
4.57771e-007
4.98832e-007
5.33617e-007
5.36263e-007
5.31386e-007
5.3018e-007
5.31056e-007
5.31398e-007
5.31355e-007
5.31466e-007
5.31668e-007
5.31817e-007
5.31886e-007
5.3204e-007
5.32191e-007
5.32209e-007
5.32284e-007
5.32383e-007
5.32457e-007
5.32592e-007
5.32675e-007
1.28976
0.739164
0.394839
0.176553
0.056114
0.0103078
0.000823063
3.75343e-005
1.70278e-006
2.30057e-007
1.28817e-007
1.26328e-007
1.44746e-007
1.4812e-007
1.45334e-007
1.44996e-007
1.45974e-007
1.45979e-007
1.45746e-007
1.4578e-007
1.45792e-007
1.45796e-007
1.45843e-007
1.45898e-007
1.45943e-007
1.45963e-007
1.45979e-007
1.45998e-007
1.46018e-007
1.54651
0.983874
0.61664
0.369814
0.198723
0.0832013
0.0231516
0.00327729
0.000212269
1.03614e-005
5.5301e-007
9.77347e-008
5.3986e-008
5.48349e-008
6.17259e-008
6.16103e-008
5.95307e-008
5.98776e-008
6.05165e-008
6.04322e-008
6.04731e-008
6.05582e-008
6.05345e-008
6.05134e-008
6.05361e-008
6.05559e-008
6.05681e-008
6.05881e-008
6.06002e-008
1.71194
1.15082
0.774108
0.514634
0.331212
0.198606
0.100451
0.0350241
0.00706915
0.000652943
3.67917e-005
1.97664e-006
1.39063e-007
4.00289e-008
2.89404e-008
3.15342e-008
3.49185e-008
3.35672e-008
3.283e-008
3.31786e-008
3.31261e-008
3.30664e-008
3.3132e-008
3.31708e-008
3.31414e-008
3.31285e-008
3.31401e-008
3.31521e-008
3.3154e-008
1.8107
1.25818
0.880041
0.615232
0.425347
0.286017
0.181585
0.102365
0.0431994
0.0112868
0.00144357
9.77568e-005
5.6824e-006
3.53282e-007
4.27698e-008
2.14009e-008
1.89394e-008
2.15646e-008
2.19697e-008
2.11927e-008
2.13823e-008
2.15241e-008
2.14821e-008
2.15077e-008
2.15798e-008
2.15754e-008
2.1562e-008
2.15676e-008
2.15727e-008
1.87586
1.33473
0.958635
0.691693
0.498079
0.354641
0.24619
0.162712
0.0976323
0.0467353
0.0140881
0.00220558
0.000176522
1.13281e-005
7.36089e-007
6.30032e-008
1.97232e-008
1.45011e-008
1.51268e-008
1.64193e-008
1.58079e-008
1.5614e-008
1.56377e-008
1.55976e-008
1.55727e-008
1.56332e-008
1.56657e-008
1.56543e-008
1.56511e-008
1.90247
1.37657
1.00746
0.743067
0.549739
0.405472
0.295648
0.210433
0.14317
0.089389
0.046374
0.0152645
0.00271205
0.000247753
1.75214e-005
1.22885e-006
9.93373e-008
1.8858e-008
1.2076e-008
1.13264e-008
1.2461e-008
1.24343e-008
1.2301e-008
1.23441e-008
1.22954e-008
1.21982e-008
1.22242e-008
1.22783e-008
1.22879e-008
1.90232
1.39315
1.03303
0.773516
0.582753
0.439779
0.33053
0.245445
0.17796
0.123564
0.0792337
0.0432012
0.0149692
0.00286325
0.000288639
2.2436e-005
1.71569e-006
1.41912e-007
2.0633e-008
1.11311e-008
9.38702e-009
9.97528e-009
1.02283e-008
1.01322e-008
1.02051e-008
1.02416e-008
1.01621e-008
1.01e-008
1.01165e-008
1.89322
1.40049
1.04948
0.794902
0.60681
0.46528
0.35683
0.272201
0.204963
0.150624
0.106062
0.0691846
0.0387922
0.0139343
0.00279212
0.000304813
2.60002e-005
2.17565e-006
1.91358e-007
2.47774e-008
1.00662e-008
8.17517e-009
8.32489e-009
8.70119e-009
8.57031e-009
8.59186e-009
8.70853e-009
8.69919e-009
8.64968e-009
1.87118
1.39633
1.05568
0.807315
0.622943
0.483648
0.376571
0.292822
0.226176
0.172236
0.127889
0.0909472
0.0599419
0.0340113
0.0124342
0.00255508
0.000298339
2.79019e-005
2.55695e-006
2.42733e-007
2.97687e-008
9.61065e-009
7.40104e-009
7.07089e-009
7.39797e-009
7.38564e-009
7.3866e-009
7.45062e-009
7.51646e-009
1.83849
1.38264
1.05346
0.812159
0.632326
0.495986
0.390854
0.308425
0.24271
0.18945
0.145591
0.108949
0.077978
0.0516387
0.0293363
0.0105674
0.00216673
0.000266442
2.72172e-005
2.72991e-006
2.81081e-007
3.47218e-008
9.59726e-009
6.93103e-009
6.27956e-009
6.48323e-009
6.48803e-009
6.43106e-009
6.46954e-009
1.79753
1.36082
1.04434
0.810926
0.636247
0.503396
0.400685
0.319955
0.255469
0.203123
0.159959
0.12383
0.0931886
0.0669345
0.0443377
0.0250384
0.00869985
0.0017591
0.000227741
2.54724e-005
2.80667e-006
3.15315e-007
4.04903e-008
1.00455e-008
6.45642e-009
5.80521e-009
5.87618e-009
5.87052e-009
5.80365e-009
1.75
1.33287
1.02921
0.804747
0.635745
0.506845
0.406908
0.328194
0.265192
0.213966
0.171666
0.136207
0.106069
0.0801433
0.0576485
0.0380788
0.0212182
0.00713582
0.00143025
0.000196019
2.39614e-005
2.88865e-006
3.53042e-007
4.7736e-008
1.08189e-008
6.19669e-009
5.49336e-009
5.46228e-009
5.51143e-009
1.69729
1.30006
1.00965
0.794162
0.631701
0.506968
0.410102
0.333625
0.272308
0.222374
0.181082
0.146423
0.116916
0.0914698
0.0692897
0.0498184
0.0327089
0.017822
0.00580121
0.00116015
0.000168569
2.23615e-005
2.9315e-006
3.88602e-007
5.57332e-008
1.19732e-008
6.12625e-009
5.27568e-009
5.15628e-009
1.64067
1.26349
0.986616
0.780422
0.624443
0.504631
0.410979
0.33691
0.277388
0.228829
0.188616
0.154822
0.126014
0.10113
0.07938
0.0601901
0.0431629
0.0280621
0.0148269
0.00467772
0.000940843
0.00014544
2.09399e-005
2.98465e-006
4.2917e-007
6.55351e-008
1.36775e-008
6.20332e-009
5.15853e-009
1.58105
1.22399
0.960837
0.764165
0.614895
0.499882
0.40989
0.33841
0.280848
0.233793
0.194749
0.16188
0.133818
0.109538
0.0882718
0.0694481
0.0526524
0.0376041
0.0241516
0.0122858
0.00377334
0.000772657
0.000127853
1.99764e-005
3.08513e-006
4.78073e-007
7.74202e-008
1.58905e-008
6.4354e-009
1.51916
1.18219
0.93286
0.745864
0.603466
0.493407
0.407084
0.338274
0.28277
0.237302
0.199514
0.167652
0.140408
0.116798
0.0960804
0.0776959
0.0612288
0.0463807
0.0329577
0.0208706
0.01016
0.0030604
0.000643992
0.000113943
1.92065e-005
3.19898e-006
5.33351e-007
9.18318e-008
1.86391e-008
1.45564
1.13862
0.903146
0.725916
0.590509
0.485531
0.402961
0.337083
0.283673
0.239839
0.203333
0.172495
0.146085
0.123162
0.103015
0.0851005
0.0690102
0.0544402
0.0411766
0.0290885
0.0181349
0.00838767
0.00250063
0.000545284
0.000103194
1.87333e-005
3.35946e-006
6.02916e-007
1.0876e-007
1.39098
1.09372
0.872043
0.704609
0.576258
0.476432
0.397675
0.334648
0.283452
0.241335
0.206182
0.176433
0.150909
0.128719
0.109182
0.091778
0.0761095
0.061876
0.0488566
0.0369007
0.0259284
0.0159584
0.00697584
0.0020666
0.000469233
9.49958e-005
1.85402e-005
3.57432e-006
6.73081e-007
1.32563
1.04783
0.839847
0.682191
0.560926
0.46631
0.391441
0.331365
0.28249
0.242106
0.208332
0.179688
0.155065
0.13362
0.114708
0.0978307
0.0826067
0.0687423
0.0560162
0.0442684
0.0333961
0.0233583
0.0142163
0.00586506
0.00173925
0.000413078
8.93401e-005
1.87157e-005
3.78543e-006
1.25997
1.00128
0.806813
0.658866
0.544675
0.455286
0.38433
0.327218
0.280606
0.242014
0.20968
0.182195
0.15852
0.137863
0.119611
0.103293
0.0885446
0.0750823
0.0626893
0.0512035
0.0405104
0.0305421
0.0212862
0.0128113
0.00513421
0.00153932
0.000382031
8.76673e-005
1.91062e-005
1.19438
0.95436
0.773175
0.634824
0.527665
0.4435
0.376479
0.322376
0.278105
0.241391
0.210496
0.184176
0.161458
0.141593
0.124009
0.108261
0.0940005
0.0809578
0.0689222
0.0577327
0.0472701
0.0374533
0.0282403
0.0196377
0.011674
0.00464948
0.00142109
0.000368489
8.71082e-005
1.12919
0.907331
0.739148
0.610238
0.510032
0.431058
0.367964
0.316872
0.274937
0.240054
0.210613
0.185504
0.16378
0.144746
0.127864
0.112714
0.0989683
0.0863702
0.0747178
0.0638546
0.0536613
0.0440512
0.0349682
0.0263889
0.0183176
0.0107852
0.00431366
0.00135394
0.000358287
1.06471
0.860453
0.704938
0.585273
0.491911
0.418073
0.358885
0.310802
0.271219
0.2382
0.210293
0.186388
0.16566
0.147461
0.131286
0.116741
0.103519
0.0913762
0.0801207
0.0696018
0.0597024
0.0503341
0.0414342
0.0329649
0.0249124
0.0172853
0.0101233
0.00409442
0.00129445
1.00124
0.81396
0.670733
0.560084
0.473428
0.404646
0.349322
0.304232
0.266998
0.235851
0.209459
0.18677
0.167058
0.14971
0.134259
0.120336
0.107654
0.0959823
0.08514
0.0749831
0.0653985
0.0562988
0.0476187
0.0393138
0.0313591
0.0237489
0.0164952
0.00966233
0.00388885
0.939052
0.768074
0.636714
0.534815
0.4547
0.390875
0.339357
0.297227
0.262324
0.233035
0.208136
0.18669
0.168015
0.151536
0.136823
0.123537
0.111407
0.100219
0.0898023
0.080021
0.0707667
0.0619545
0.0535192
0.0454136
0.0376067
0.0300832
0.0228433
0.0159385
0.00919345
0.87838
0.722992
0.603041
0.509598
0.435837
0.37685
0.329065
0.289854
0.257265
0.229834
0.206453
0.186279
0.168626
0.153014
0.139043
0.126396
0.114824
0.104127
0.0941443
0.0847477
0.0758344
0.0673228
0.0591491
0.0512653
0.0436376
0.0362453
0.0290814
0.0221612
0.0155154
0.81944
0.678888
0.569859
0.484551
0.416935
0.362651
0.318514
0.282168
0.25186
0.226267
0.204385
0.185443
0.168828
0.154107
0.140897
0.12891
0.117913
0.107721
0.0981856
0.0891859
0.0806253
0.0724263
0.0645275
0.0568818
0.0494541
0.0422213
0.0351716
0.0283069
0.021655
0.762413
0.635914
0.537291
0.459778
0.398079
0.348349
0.307762
0.274222
0.246159
0.222385
0.201996
0.184293
0.16873
0.1549
0.142456
0.131134
0.12072
0.111043
0.101964
0.0933708
0.0851726
0.0772962
0.0696831
0.0622874
0.0550745
0.04802
0.0411091
0.0343379
0.0277146
0.70745
0.594201
0.505447
0.435366
0.379342
0.334004
0.296861
0.266057
0.240197
0.218221
0.199317
0.182862
0.168368
0.155424
0.143751
0.133102
0.123281
0.114128
0.105516
0.0973392
0.0895136
0.0819696
0.0746519
0.0675164
0.0605293
0.053666
0.0469104
0.0402551
0.0337001
0.654676
0.553854
0.474416
0.411392
0.360787
0.319667
0.285852
0.257708
0.234002
0.213794
0.196359
0.181137
0.167685
0.15565
0.144769
0.134813
0.125603
0.116993
0.108864
0.10112
0.0936812
0.0864825
0.0794719
0.0726073
0.0658563
0.0591947
0.052606
0.0460811
0.0396172
0.604192
0.514966
0.444278
0.38792
0.342466
0.30538
0.274767
0.249201
0.227596
0.209124
0.193142
0.179149
0.166748
0.155622
0.145547
0.136299
0.127717
0.119667
0.11204
0.104746
0.0977103
0.0908726
0.0841832
0.0776022
0.0710986
0.0646488
0.0582366
0.0518525
0.0454926
0.556079
0.477614
0.415098
0.365008
0.324426
0.29118
0.263637
0.240558
0.220996
0.204225
0.189677
0.17691
0.165573
0.155388
0.146114
0.137584
0.129645
0.122174
0.11507
0.108247
0.101636
0.0951786
0.0888286
0.0825473
0.0763047
0.0700782
0.063852
0.0576167
0.0513685
0.510402
0.441864
0.38694
0.342708
0.306709
0.277102
0.252486
0.231796
0.214212
0.199099
0.185963
0.174411
0.164133
0.15488
0.146437
0.138651
0.131383
0.12452
0.117967
0.111644
0.105485
0.0994361
0.0934502
0.0874906
0.0815278
0.0755396
0.0695107
0.0634321
0.0573009
0.467217
0.407779
0.359864
0.321073
0.289362
0.263179
0.24134
0.222933
0.207253
0.193752
0.181997
0.171646
0.162423
0.154103
0.146497
0.139487
0.132922
0.126701
0.120735
0.114949
0.109281
0.103675
0.0980882
0.0924814
0.0868253
0.0810973
0.0752818
0.0693703
0.0633607
0.426574
0.37542
0.33393
0.300161
0.272432
0.249453
0.230229
0.213988
0.200131
0.188185
0.177778
0.168609
0.160438
0.153066
0.146332
0.140101
0.13426
0.128711
0.12337
0.118165
0.113033
0.107919
0.102777
0.0975668
0.0922569
0.0868223
0.0812456
0.0755177
0.0696373
0.388516
0.344848
0.309204
0.280035
0.255976
0.235971
0.219192
0.204993
0.192866
0.18241
0.173304
0.16529
0.158157
0.151733
0.145876
0.140444
0.135356
0.130517
0.125846
0.121272
0.116733
0.11217
0.107535
0.102783
0.0978774
0.0927872
0.0874909
0.0819762
0.0762408
0.353084
0.316125
0.285759
0.260766
0.240064
0.222797
0.208284
0.195991
0.185493
0.17645
0.16859
0.161691
0.15557
0.150076
0.145079
0.140455
0.136159
0.132068
0.128113
0.124226
0.120342
0.116404
0.112354
0.108141
0.10372
0.0990504
0.0941011
0.0888521
0.0832962
0.320311
0.289314
0.263671
0.24244
0.224781
0.210012
0.197582
0.187052
0.178071
0.170355
0.163673
0.157837
0.152691
0.148104
0.143964
0.14018
0.136651
0.13332
0.130113
0.126959
0.123795
0.120556
0.11718
0.113606
0.109774
0.10563
0.101127
0.0962298
0.0909183
0.290228
0.264479
0.243024
0.225153
0.210229
0.19772
0.187188
0.178275
0.170693
0.164208
0.158626
0.153789
0.149564
0.145841
0.142525
0.139536
0.136772
0.134217
0.131776
0.129391
0.126996
0.124527
0.121914
0.119084
0.115964
0.112477
0.108554
0.104132
0.0991706
0.262854
0.241683
0.223912
0.209015
0.196532
0.186055
0.177238
0.169797
0.163495
0.15814
0.153571
0.149656
0.146284
0.143364
0.140817
0.138575
0.136573
0.13475
0.133062
0.131448
0.129848
0.128195
0.126416
0.124429
0.122143
0.119458
0.116271
0.112486
0.108021
0.238204
0.220988
0.206429
0.194149
0.183831
0.175171
0.167901
0.161792
0.156654
0.152328
0.14868
0.145602
0.143004
0.14081
0.138959
0.137396
0.136077
0.134937
0.133961
0.133089
0.132271
0.131444
0.130537
0.129462
0.128115
0.126368
0.124081
0.121113
0.117323
0.216279
0.202449
0.190672
0.180682
0.17228
0.165244
0.159367
0.154466
0.150384
0.146989
0.144172
0.141842
0.139927
0.138369
0.137122
0.136147
0.135412
0.134883
0.13453
0.134327
0.134234
0.134198
0.134149
0.134012
0.133672
0.132967
0.131722
0.129757
0.12684
0.197064
0.186107
0.176724
0.168735
0.162031
0.156453
0.151837
0.148036
0.144917
0.142368
0.140296
0.138626
0.137302
0.136282
0.135534
0.135037
0.134776
0.13474
0.134888
0.135243
0.135777
0.136446
0.1372
0.137966
0.13863
0.139014
0.138905
0.138141
0.136298
0.180513
0.171974
0.164645
0.158405
0.153215
0.148957
0.145499
0.142715
0.140487
0.138715
0.137317
0.13623
0.135411
0.13483
0.134475
0.134338
0.134421
0.134722
0.135246
0.136016
0.137029
0.138268
0.139703
0.141279
0.142901
0.144402
0.145546
0.145953
0.145303
0.16654
0.160019
0.154449
0.149748
0.145922
0.14288
0.140509
0.138689
0.13731
0.136275
0.135507
0.134949
0.134569
0.134346
0.134282
0.134379
0.134652
0.135143
0.135894
0.136913
0.138234
0.139867
0.141812
0.144042
0.146497
0.149036
0.151434
0.153239
0.153819
0.155005
0.150157
0.146097
0.142763
0.140189
0.138296
0.136977
0.136109
0.135579
0.135289
0.135153
0.135103
0.135104
0.13516
0.135291
0.135521
0.135896
0.136465
0.137282
0.138384
0.139822
0.141642
0.143879
0.146547
0.149631
0.153042
0.156613
0.159837
0.162031
0.145715
0.142248
0.139491
0.137392
0.135997
0.135227
0.13497
0.135097
0.135473
0.135967
0.136495
0.137001
0.137453
0.137839
0.13818
0.138517
0.138914
0.13944
0.140175
0.141188
0.142548
0.144327
0.146603
0.149434
0.152866
0.156876
0.161427
0.165979
0.170062
0.138431
0.136102
0.134483
0.133526
0.133276
0.133646
0.134517
0.135723
0.137112
0.138572
0.13998
0.141246
0.142321
0.143183
0.143849
0.144367
0.14481
0.145267
0.145838
0.146633
0.14775
0.149291
0.151353
0.154042
0.157465
0.161688
0.166867
0.172454
0.178615
0.132885
0.131496
0.130892
0.131021
0.131917
0.133498
0.135596
0.138066
0.140738
0.143446
0.146035
0.148388
0.150426
0.152107
0.15343
0.154433
0.155187
0.155789
0.156353
0.156993
0.157854
0.159071
0.160771
0.163105
0.166227
0.170274
0.17556
0.181612
0.189776
0.128804
0.1282
0.128519
0.129707
0.131801
0.134678
0.138206
0.142199
0.146458
0.150792
0.155018
0.158981
0.162563
0.165686
0.168319
0.170477
0.172216
0.173627
0.174822
0.175927
0.177062
0.17839
0.180071
0.182272
0.185117
0.188917
0.193881
0.200192
0.209349
0.125923
0.125983
0.127166
0.129422
0.132767
0.137103
0.14227
0.148077
0.154316
0.160772
0.167237
0.173522
0.17947
0.184968
0.189952
0.19441
0.198382
0.201949
0.205227
0.208353
0.211466
0.214719
0.218199
0.222152
0.226518
0.232023
0.237439
0.246586
0.252614
0.124001
0.124628
0.126645
0.129984
0.134676
0.140617
0.147657
0.15561
0.164267
0.173408
0.182811
0.19227
0.201603
0.210675
0.219404
0.227771
0.235819
0.243651
0.251423
0.259334
0.267612
0.276523
0.286331
0.297415
0.309417
0.324292
0.337417
0.364187
0.360631
0.122825
0.123942
0.126779
0.131228
0.13735
0.145049
0.154195
0.164622
0.176139
0.188541
0.201617
0.215163
0.229006
0.243017
0.257129
0.271354
0.285786
0.300608
0.316094
0.332607
0.350613
0.370679
0.393518
0.42016
0.451218
0.490569
0.532267
0.608879
0.602382
0.122214
0.123758
0.127408
0.132992
0.140621
0.150214
0.161674
0.174871
0.189655
0.205859
0.223313
0.241854
0.261353
0.281733
0.302997
0.325245
0.348692
0.373686
0.400727
0.430486
0.463866
0.502008
0.546556
0.59956
0.66413
0.745808
0.848176
1.00234
1.04058
0.122057
0.123963
0.128436
0.135168
0.144368
0.155966
0.169914
0.186134
0.204537
0.225027
0.247508
0.271906
0.298188
0.326394
0.356663
0.389269
0.424647
0.463428
0.506487
0.554993
0.610554
0.675224
0.752194
0.845141
0.961716
1.10881
1.31107
1.56598
1.74824
0.000990141
0.000990141
0.000990145
0.000990149
0.000990146
0.000990139
0.000990139
0.000990147
0.000990155
0.000990154
0.000990144
0.00099014
0.000990149
0.000990161
0.000990159
0.000990145
0.000990135
0.000990138
0.000990142
0.000990139
0.000990127
0.000990123
0.000990128
0.000990138
0.000990142
0.000990144
0.000990146
0.000990141
0.000990131
0.000990127
0.000990127
0.000990139
0.000990145
0.000990145
0.000990144
0.000990144
0.000990144
0.000990144
0.000990144
0.000990144
0.000990144
0.000990144
0.000990145
0.000990145
0.000990146
0.000990146
0.000990146
0.000990146
0.000990146
0.000990146
0.000990146
0.000990147
0.000990147
0.000990147
0.000990147
0.000990148
0.000990148
0.000990148
0.000990149
0.000990149
0.00099015
0.00099015
0.00099015
0.000990151
0.000990151
0.000990151
0.000990152
0.000990152
0.000990153
0.000990153
0.000990153
0.000990153
0.000990154
0.000990154
0.000990155
0.000990155
0.000990154
0.000990155
0.000990155
0.000990153
0.000990156
0.000990156
0.000990156
0.000990158
0.000990158
0.000990157
0.000990154
0.000990155
0.000990156
0.000990158
0.000990159
0.000990159
0.000990159
0.000990159
0.000990159
0.000990158
0.000990159
0.000990159
0.000990159
0.000990159
0.000990159
0.000990159
0.000990159
0.000990159
0.000990159
0.000990159
0.000990159
0.000990159
0.000990159
0.000990159
0.000990158
0.000990158
0.000990158
0.000990158
0.000990158
0.000990158
0.000990158
0.000990158
0.000990158
0.000990158
0.000990158
0.000990158
0.000990158
0.000990158
0.000990158
0.000990158
0.000990159
0.000990159
0.000990159
0.00099016
0.000990161
0.000990162
0.000990162
0.000990166
0.000990164
0.000990169
0.000990166
0.000990177
0.00100814
4.09908e-005
4.09907e-005
4.09967e-005
4.10025e-005
4.09972e-005
4.09875e-005
4.0989e-005
4.10021e-005
4.10121e-005
4.10082e-005
4.09941e-005
4.09902e-005
4.1005e-005
4.10202e-005
4.10161e-005
4.09953e-005
4.09834e-005
4.09877e-005
4.09932e-005
4.09871e-005
4.09713e-005
4.09673e-005
4.09757e-005
4.09893e-005
4.0994e-005
4.09969e-005
4.09988e-005
4.09915e-005
4.09782e-005
4.09734e-005
4.09748e-005
4.09922e-005
4.09994e-005
4.09986e-005
4.09981e-005
4.09979e-005
4.09977e-005
4.09976e-005
4.09975e-005
4.09976e-005
4.09978e-005
4.09984e-005
4.09993e-005
4.10002e-005
4.10009e-005
4.10013e-005
4.10014e-005
4.10015e-005
4.10017e-005
4.10019e-005
4.10021e-005
4.10024e-005
4.10028e-005
4.10033e-005
4.10037e-005
4.10042e-005
4.10049e-005
4.10054e-005
4.10061e-005
4.10067e-005
4.10073e-005
4.10078e-005
4.10084e-005
4.1009e-005
4.10096e-005
4.10101e-005
4.10109e-005
4.10114e-005
4.10122e-005
4.10125e-005
4.10128e-005
4.10137e-005
4.10142e-005
4.10144e-005
4.10151e-005
4.1016e-005
4.10148e-005
4.10155e-005
4.10157e-005
4.10131e-005
4.10164e-005
4.10166e-005
4.10174e-005
4.102e-005
4.10209e-005
4.10193e-005
4.10149e-005
4.10165e-005
4.10179e-005
4.10201e-005
4.1022e-005
4.10219e-005
4.10216e-005
4.10215e-005
4.10216e-005
4.10214e-005
4.10218e-005
4.10215e-005
4.10218e-005
4.10218e-005
4.10218e-005
4.10218e-005
4.10218e-005
4.10219e-005
4.10218e-005
4.10218e-005
4.10215e-005
4.10216e-005
4.10214e-005
4.10213e-005
4.1021e-005
4.10209e-005
4.10205e-005
4.10203e-005
4.102e-005
4.10197e-005
4.10196e-005
4.10194e-005
4.10195e-005
4.10194e-005
4.10196e-005
4.10196e-005
4.10196e-005
4.10198e-005
4.102e-005
4.10199e-005
4.10205e-005
4.10209e-005
4.1021e-005
4.10225e-005
4.10231e-005
4.10258e-005
4.10252e-005
4.10323e-005
4.10281e-005
4.10353e-005
4.1041e-005
4.10648e-005
4.44835e-005
3.38032e-006
3.38082e-006
3.38162e-006
3.38126e-006
3.37995e-006
3.37999e-006
3.38185e-006
3.38355e-006
3.38308e-006
3.381e-006
3.37995e-006
3.38154e-006
3.38408e-006
3.38403e-006
3.38214e-006
3.38053e-006
3.38093e-006
3.3822e-006
3.38185e-006
3.38116e-006
3.38113e-006
3.38206e-006
3.38352e-006
3.38367e-006
3.38349e-006
3.38372e-006
3.38386e-006
3.38297e-006
3.38241e-006
3.38282e-006
3.38385e-006
3.3855e-006
3.38482e-006
3.3848e-006
3.38498e-006
3.38512e-006
3.38522e-006
3.38532e-006
3.38543e-006
3.38558e-006
3.38575e-006
3.38594e-006
3.38608e-006
3.38616e-006
3.38624e-006
3.38637e-006
3.38646e-006
3.3866e-006
3.38671e-006
3.38685e-006
3.38696e-006
3.38709e-006
3.38723e-006
3.38737e-006
3.3875e-006
3.38768e-006
3.38779e-006
3.38797e-006
3.3881e-006
3.38827e-006
3.38841e-006
3.38854e-006
3.38874e-006
3.38882e-006
3.38902e-006
3.38911e-006
3.38934e-006
3.38933e-006
3.38961e-006
3.38966e-006
3.38973e-006
3.39005e-006
3.38985e-006
3.39014e-006
3.39008e-006
3.39032e-006
3.39019e-006
3.39004e-006
3.39016e-006
3.38995e-006
3.39016e-006
3.38997e-006
3.39018e-006
3.3907e-006
3.39097e-006
3.39075e-006
3.39059e-006
3.39089e-006
3.3908e-006
3.39111e-006
3.39145e-006
3.39162e-006
3.3917e-006
3.39173e-006
3.39173e-006
3.39175e-006
3.39173e-006
3.39174e-006
3.39173e-006
3.39173e-006
3.39171e-006
3.3917e-006
3.39167e-006
3.39165e-006
3.39162e-006
3.39159e-006
3.39155e-006
3.3915e-006
3.39145e-006
3.39138e-006
3.39131e-006
3.39121e-006
3.39111e-006
3.39097e-006
3.39086e-006
3.39069e-006
3.3906e-006
3.39046e-006
3.39042e-006
3.39033e-006
3.39028e-006
3.39017e-006
3.39009e-006
3.39003e-006
3.38992e-006
3.38979e-006
3.3898e-006
3.38952e-006
3.3895e-006
3.38985e-006
3.38923e-006
3.38988e-006
3.38979e-006
3.39011e-006
3.38927e-006
3.40385e-006
3.28544e-006
3.08322e-006
7.06392e-006
5.32703e-007
5.32831e-007
5.32902e-007
5.32832e-007
5.32883e-007
5.33175e-007
5.33414e-007
5.33336e-007
5.33086e-007
5.33021e-007
5.33297e-007
5.33626e-007
5.33693e-007
5.3347e-007
5.33241e-007
5.33252e-007
5.33467e-007
5.33693e-007
5.33837e-007
5.33899e-007
5.33996e-007
5.33944e-007
5.33986e-007
5.34039e-007
5.34213e-007
5.34293e-007
5.34331e-007
5.34315e-007
5.3428e-007
5.34223e-007
5.34309e-007
5.34412e-007
5.34551e-007
5.34643e-007
5.34701e-007
5.34749e-007
5.34796e-007
5.34844e-007
5.34895e-007
5.34947e-007
5.34999e-007
5.35044e-007
5.35071e-007
5.35096e-007
5.35135e-007
5.35195e-007
5.35254e-007
5.35324e-007
5.35379e-007
5.3544e-007
5.35492e-007
5.35548e-007
5.35601e-007
5.35652e-007
5.35706e-007
5.35762e-007
5.35806e-007
5.35862e-007
5.35905e-007
5.35959e-007
5.36006e-007
5.36051e-007
5.36105e-007
5.36142e-007
5.36193e-007
5.36231e-007
5.3628e-007
5.36311e-007
5.36362e-007
5.36388e-007
5.36423e-007
5.36483e-007
5.36487e-007
5.36548e-007
5.36554e-007
5.36585e-007
5.366e-007
5.36612e-007
5.36663e-007
5.36656e-007
5.36735e-007
5.36731e-007
5.36783e-007
5.36826e-007
5.36873e-007
5.36889e-007
5.36889e-007
5.36931e-007
5.36958e-007
5.37002e-007
5.37058e-007
5.37114e-007
5.37164e-007
5.37192e-007
5.37206e-007
5.37231e-007
5.37227e-007
5.37251e-007
5.37253e-007
5.37261e-007
5.37265e-007
5.37267e-007
5.37267e-007
5.37262e-007
5.3726e-007
5.37249e-007
5.37245e-007
5.37225e-007
5.37213e-007
5.37187e-007
5.37166e-007
5.37126e-007
5.37101e-007
5.37054e-007
5.37027e-007
5.36979e-007
5.36942e-007
5.36894e-007
5.36859e-007
5.36816e-007
5.36772e-007
5.36715e-007
5.36661e-007
5.36607e-007
5.36542e-007
5.36457e-007
5.36399e-007
5.36335e-007
5.36234e-007
5.36048e-007
5.36472e-007
5.35962e-007
5.35409e-007
5.45409e-007
5.3954e-007
4.587e-007
1.12941e-006
0.000131246
0.0129308
1.4607e-007
1.46115e-007
1.46135e-007
1.46156e-007
1.46195e-007
1.46225e-007
1.4623e-007
1.46229e-007
1.46266e-007
1.46318e-007
1.46352e-007
1.46358e-007
1.46355e-007
1.46351e-007
1.4636e-007
1.46417e-007
1.46489e-007
1.46563e-007
1.46602e-007
1.46605e-007
1.46608e-007
1.46641e-007
1.46687e-007
1.46759e-007
1.4678e-007
1.46796e-007
1.46801e-007
1.46783e-007
1.46756e-007
1.46784e-007
1.46844e-007
1.46919e-007
1.46977e-007
1.46989e-007
1.4702e-007
1.4705e-007
1.47078e-007
1.47105e-007
1.47131e-007
1.47157e-007
1.4718e-007
1.472e-007
1.47217e-007
1.47238e-007
1.47263e-007
1.47292e-007
1.47321e-007
1.47351e-007
1.47378e-007
1.47407e-007
1.47433e-007
1.4746e-007
1.47487e-007
1.47512e-007
1.47538e-007
1.47563e-007
1.47587e-007
1.47611e-007
1.47633e-007
1.47657e-007
1.47679e-007
1.47702e-007
1.47725e-007
1.47746e-007
1.47768e-007
1.47789e-007
1.47809e-007
1.47831e-007
1.47851e-007
1.4787e-007
1.4789e-007
1.47913e-007
1.47928e-007
1.47957e-007
1.47967e-007
1.47986e-007
1.47997e-007
1.48014e-007
1.48033e-007
1.48045e-007
1.48072e-007
1.4808e-007
1.481e-007
1.48116e-007
1.48131e-007
1.48138e-007
1.48151e-007
1.48174e-007
1.48179e-007
1.48193e-007
1.48213e-007
1.48227e-007
1.48238e-007
1.4825e-007
1.48263e-007
1.48278e-007
1.48281e-007
1.48295e-007
1.48299e-007
1.48306e-007
1.4831e-007
1.48314e-007
1.48316e-007
1.48315e-007
1.48316e-007
1.48312e-007
1.48312e-007
1.48301e-007
1.48296e-007
1.48282e-007
1.48271e-007
1.48249e-007
1.48235e-007
1.48212e-007
1.48197e-007
1.48176e-007
1.48156e-007
1.48134e-007
1.48113e-007
1.48091e-007
1.48068e-007
1.48041e-007
1.48014e-007
1.47986e-007
1.47954e-007
1.47929e-007
1.47961e-007
1.47793e-007
1.47516e-007
1.48417e-007
1.46663e-007
1.47858e-007
1.50769e-007
1.18583e-007
1.34172e-007
1.01289e-006
0.000111129
0.00830625
0.124914
6.06157e-008
6.06324e-008
6.06434e-008
6.06488e-008
6.06559e-008
6.06752e-008
6.07021e-008
6.07214e-008
6.07297e-008
6.07296e-008
6.07356e-008
6.07626e-008
6.07845e-008
6.07932e-008
6.07999e-008
6.08149e-008
6.08537e-008
6.0885e-008
6.09006e-008
6.09111e-008
6.0925e-008
6.09514e-008
6.09775e-008
6.10014e-008
6.10175e-008
6.10266e-008
6.10256e-008
6.10233e-008
6.10366e-008
6.10582e-008
6.10805e-008
6.11122e-008
6.11252e-008
6.11424e-008
6.11618e-008
6.11803e-008
6.11979e-008
6.12153e-008
6.12325e-008
6.12494e-008
6.12652e-008
6.128e-008
6.12951e-008
6.13113e-008
6.13281e-008
6.13457e-008
6.13642e-008
6.13827e-008
6.13995e-008
6.1416e-008
6.14325e-008
6.14491e-008
6.14653e-008
6.14814e-008
6.14975e-008
6.15133e-008
6.15284e-008
6.15438e-008
6.15587e-008
6.15738e-008
6.15887e-008
6.16034e-008
6.16185e-008
6.16325e-008
6.16472e-008
6.1661e-008
6.16754e-008
6.16882e-008
6.17029e-008
6.17155e-008
6.17279e-008
6.17444e-008
6.17538e-008
6.17718e-008
6.17772e-008
6.17923e-008
6.17957e-008
6.18068e-008
6.18182e-008
6.18325e-008
6.18469e-008
6.18494e-008
6.18621e-008
6.18702e-008
6.18881e-008
6.18891e-008
6.18979e-008
6.1909e-008
6.19135e-008
6.1923e-008
6.19274e-008
6.19345e-008
6.19433e-008
6.1954e-008
6.19626e-008
6.19688e-008
6.19722e-008
6.19774e-008
6.19805e-008
6.19843e-008
6.19872e-008
6.19896e-008
6.19914e-008
6.19923e-008
6.19929e-008
6.1992e-008
6.19919e-008
6.19883e-008
6.19859e-008
6.19803e-008
6.19756e-008
6.19671e-008
6.19604e-008
6.19513e-008
6.1943e-008
6.19328e-008
6.1922e-008
6.19095e-008
6.18973e-008
6.18844e-008
6.187e-008
6.18538e-008
6.18365e-008
6.18174e-008
6.17955e-008
6.17271e-008
6.15408e-008
6.17953e-008
6.20921e-008
6.03614e-008
6.31062e-008
6.17007e-008
5.40115e-008
1.25541e-007
3.11368e-006
0.000215105
0.0086071
0.0990613
0.459275
3.3165e-008
3.31809e-008
3.31822e-008
3.3186e-008
3.31996e-008
3.32171e-008
3.32279e-008
3.32307e-008
3.32314e-008
3.32388e-008
3.32556e-008
3.32715e-008
3.32741e-008
3.32755e-008
3.32824e-008
3.33008e-008
3.33215e-008
3.33309e-008
3.3344e-008
3.33645e-008
3.33891e-008
3.34055e-008
3.34084e-008
3.34112e-008
3.34216e-008
3.34327e-008
3.34418e-008
3.34565e-008
3.34727e-008
3.34827e-008
3.34938e-008
3.35015e-008
3.35114e-008
3.35284e-008
3.35441e-008
3.35582e-008
3.3571e-008
3.35835e-008
3.3596e-008
3.36084e-008
3.36208e-008
3.3633e-008
3.3645e-008
3.36574e-008
3.36706e-008
3.3684e-008
3.36958e-008
3.37072e-008
3.37187e-008
3.37321e-008
3.37452e-008
3.37577e-008
3.37698e-008
3.37816e-008
3.37934e-008
3.38051e-008
3.38163e-008
3.38279e-008
3.38389e-008
3.38503e-008
3.38612e-008
3.38722e-008
3.38832e-008
3.38937e-008
3.39042e-008
3.39145e-008
3.39248e-008
3.3934e-008
3.39444e-008
3.39538e-008
3.39623e-008
3.3974e-008
3.39814e-008
3.39929e-008
3.39978e-008
3.40077e-008
3.40117e-008
3.40186e-008
3.40271e-008
3.40342e-008
3.40447e-008
3.40509e-008
3.40589e-008
3.40671e-008
3.40771e-008
3.40804e-008
3.40845e-008
3.40921e-008
3.40988e-008
3.41038e-008
3.41082e-008
3.41187e-008
3.41274e-008
3.4133e-008
3.41352e-008
3.41384e-008
3.41412e-008
3.41453e-008
3.41477e-008
3.41505e-008
3.4152e-008
3.41536e-008
3.41544e-008
3.41548e-008
3.41551e-008
3.41544e-008
3.41542e-008
3.41525e-008
3.41514e-008
3.41487e-008
3.41465e-008
3.41427e-008
3.41392e-008
3.4134e-008