/*--------------------------------*- C++ -*----------------------------------*\
| =========                 |                                                 |
| \\      /  F ield         | OpenFOAM: The Open Source CFD Toolbox           |
|  \\    /   O peration     | Version:  5.x                                   |
|   \\  /    A nd           | Web:      www.OpenFOAM.org                      |
|    \\/     M anipulation  |                                                 |
\*---------------------------------------------------------------------------*/
/*   Windows 32 and 64 bit porting by blueCAPE: http://www.bluecape.com.pt   *\
|  Based on Windows porting (2.0.x v4) by Symscape: http://www.symscape.com   |
\*---------------------------------------------------------------------------*/
FoamFile
{
    version     2.0;
    format      ascii;
    class       volScalarField;
    location    "320";
    object      nut;
}
// * * * * * * * * * * * * * * * * * * * * * * * * * * * * * * * * * * * * * //

dimensions      [0 2 -1 0 0 0 0];

internalField   nonuniform List<scalar> 
43900
(
5.716e-005
5.80007e-005
5.80695e-005
5.80643e-005
5.80596e-005
5.80586e-005
5.8059e-005
5.8059e-005
5.8059e-005
5.80593e-005
5.80592e-005
5.80595e-005
5.80598e-005
5.80598e-005
5.806e-005
5.806e-005
5.80599e-005
5.80602e-005
5.80602e-005
5.80602e-005
5.80603e-005
5.80602e-005
5.80603e-005
5.80604e-005
5.80603e-005
5.80605e-005
5.80605e-005
5.80605e-005
5.80605e-005
0.000591559
7.39352e-006
4.30796e-006
4.16128e-006
4.57986e-006
4.60608e-006
4.60918e-006
4.60397e-006
4.60384e-006
4.60443e-006
4.60438e-006
4.60508e-006
4.60565e-006
4.60593e-006
4.60633e-006
4.60617e-006
4.6062e-006
4.60686e-006
4.60689e-006
4.60697e-006
4.60709e-006
4.60698e-006
4.60733e-006
4.60749e-006
4.60738e-006
4.60767e-006
4.60776e-006
4.60761e-006
4.60785e-006
0.153465
0.045627
0.00522677
0.00010879
1.31787e-006
6.44596e-007
6.01832e-007
7.14201e-007
7.25165e-007
7.23464e-007
7.21728e-007
7.21724e-007
7.22199e-007
7.2254e-007
7.22629e-007
7.22679e-007
7.22932e-007
7.23135e-007
7.23152e-007
7.23264e-007
7.23308e-007
7.23389e-007
7.23567e-007
7.23619e-007
7.2368e-007
7.23766e-007
7.2373e-007
7.23768e-007
7.23897e-007
0.475862
0.291757
0.134011
0.0386875
0.00464916
0.000179904
4.22803e-006
2.56297e-007
1.74069e-007
1.93774e-007
2.13819e-007
2.15401e-007
2.12501e-007
2.11751e-007
2.12237e-007
2.12409e-007
2.1234e-007
2.12377e-007
2.12473e-007
2.12531e-007
2.12559e-007
2.1262e-007
2.12676e-007
2.12682e-007
2.12715e-007
2.12754e-007
2.12784e-007
2.12834e-007
2.12862e-007
0.757063
0.581723
0.414241
0.249244
0.106975
0.0267799
0.00271734
0.000131579
3.10027e-006
2.14133e-007
9.05429e-008
8.38909e-008
1.02356e-007
1.06055e-007
1.03117e-007
1.02748e-007
1.03752e-007
1.0374e-007
1.03483e-007
1.03507e-007
1.0351e-007
1.03502e-007
1.03536e-007
1.03584e-007
1.03613e-007
1.03622e-007
1.03629e-007
1.03644e-007
1.03659e-007
0.96661
0.798563
0.642266
0.490493
0.338625
0.187938
0.0683799
0.012522
0.000948495
4.76374e-005
1.43574e-006
1.54805e-007
6.39206e-008
6.10283e-008
7.24636e-008
7.24668e-008
6.88543e-008
6.94445e-008
7.05403e-008
7.03824e-008
7.04497e-008
7.05851e-008
7.05319e-008
7.04829e-008
7.05142e-008
7.05469e-008
7.05641e-008
7.05881e-008
7.05984e-008
1.12605
0.963736
0.815437
0.67489
0.537069
0.39797
0.254765
0.113224
0.0293514
0.0032728
0.000201093
1.05593e-005
3.97236e-007
8.29945e-008
4.94246e-008
5.35552e-008
6.26623e-008
5.91635e-008
5.71256e-008
5.80311e-008
5.78803e-008
5.77014e-008
5.78678e-008
5.796e-008
5.7876e-008
5.78379e-008
5.78601e-008
5.78762e-008
5.78788e-008
1.24302
1.08524
0.942688
0.809808
0.681963
0.555366
0.427324
0.297645
0.162213
0.0532305
0.00829848
0.00062178
3.77129e-005
2.055e-006
1.3471e-007
5.62542e-008
4.28666e-008
5.12447e-008
5.34221e-008
5.06639e-008
5.13273e-008
5.18542e-008
5.16931e-008
5.17703e-008
5.20127e-008
5.1992e-008
5.19361e-008
5.19484e-008
5.19632e-008
1.33856
1.18448
1.0462
0.918689
0.797743
0.679855
0.562208
0.442693
0.319414
0.192383
0.0721798
0.0137875
0.00123192
8.34302e-005
5.38642e-006
3.22887e-007
7.33539e-008
4.68046e-008
4.60573e-008
5.24068e-008
4.95901e-008
4.85354e-008
4.86646e-008
4.84897e-008
4.83574e-008
4.86307e-008
4.87737e-008
4.87099e-008
4.86883e-008
1.40211
1.2539
1.12104
0.999595
0.885614
0.775773
0.667295
0.557921
0.44587
0.330014
0.210572
0.0854219
0.0184152
0.00188052
0.000140316
1.00716e-005
7.08767e-007
8.28823e-008
4.98384e-008
4.16661e-008
4.76528e-008
4.81342e-008
4.72745e-008
4.74676e-008
4.71875e-008
4.66298e-008
4.67694e-008
4.70665e-008
4.71099e-008
1.44608
1.3007
1.17281
1.0566
0.948682
0.845882
0.745487
0.645235
0.543304
0.438358
0.32968
0.217678
0.092112
0.0211929
0.00237694
0.000194244
1.53206e-005
1.19143e-006
1.19502e-007
5.73578e-008
4.20081e-008
4.43384e-008
4.67269e-008
4.61406e-008
4.66025e-008
4.68805e-008
4.63453e-008
4.58969e-008
4.60034e-008
1.48474
1.34239
1.21706
1.10431
1.00039
0.902465
0.807951
0.714636
0.620683
0.524649
0.425528
0.322856
0.217128
0.0953546
0.022708
0.00273376
0.000243874
2.10326e-005
1.80973e-006
1.83741e-007
5.76085e-008
4.49242e-008
4.29649e-008
4.59939e-008
4.50017e-008
4.5051e-008
4.59001e-008
4.58533e-008
4.54507e-008
1.51226
1.37337
1.25086
1.14186
1.04177
0.948124
0.858553
0.770953
0.683541
0.594854
0.503772
0.409531
0.311763
0.210511
0.0943031
0.0227474
0.0028982
0.00028196
2.65568e-005
2.51371e-006
2.59346e-007
6.0993e-008
4.64531e-008
4.07619e-008
4.34074e-008
4.3644e-008
4.35108e-008
4.39206e-008
4.4575e-008
1.53078
1.3961
1.27682
1.17024
1.07436
0.984648
0.89947
0.816826
0.735
0.652552
0.568324
0.48144
0.3913
0.29754
0.199931
0.0872104
0.0207406
0.00275196
0.000291214
2.99656e-005
3.10062e-006
3.38178e-007
7.05388e-008
4.93131e-008
4.05077e-008
4.18673e-008
4.23173e-008
4.18772e-008
4.20438e-008
1.5421
1.41106
1.29612
1.19269
1.09912
1.01387
0.932692
0.854462
0.777532
0.700504
0.622222
0.541769
0.45846
0.371818
0.281563
0.187806
0.077431
0.0179105
0.00247527
0.000285929
3.22854e-005
3.66017e-006
4.33036e-007
8.49723e-008
4.9272e-008
4.25929e-008
4.16114e-008
4.169e-008
4.13701e-008
1.54769
1.42038
1.30886
1.2098
1.11926
1.03645
0.959667
0.885516
0.813024
0.740838
0.667827
0.593073
0.515856
0.43565
0.3521
0.265039
0.174699
0.0688132
0.0155042
0.00224355
0.000282168
3.47888e-005
4.29948e-006
5.52441e-007
1.02273e-007
4.98653e-008
4.44501e-008
4.23376e-008
4.27474e-008
1.54866
1.42514
1.3171
1.22133
1.13512
1.05495
0.980897
0.910896
0.8425
0.774748
0.70653
0.636931
0.56522
0.490837
0.413377
0.332575
0.248272
0.160165
0.0603586
0.0133493
0.00202942
0.000276057
3.69336e-005
4.95524e-006
6.88386e-007
1.23748e-007
5.34434e-008
4.61647e-008
4.31475e-008
1.54591
1.42625
1.32173
1.22927
1.14626
1.0705
0.999115
0.932157
0.867361
0.803484
0.739482
0.674452
0.607656
0.538513
0.46658
0.391537
0.313149
0.231166
0.145037
0.0523022
0.0114535
0.00183836
0.000270598
3.92824e-005
5.71847e-006
8.54795e-007
1.54221e-007
5.89159e-008
4.88226e-008
1.54012
1.4244
1.32344
1.23429
1.15446
1.08182
1.01432
0.950324
0.889413
0.829087
0.768865
0.707883
0.645425
0.580911
0.513889
0.444013
0.371022
0.294688
0.214691
0.130165
0.0450787
0.00990879
0.00169196
0.000269567
4.23253e-005
6.63717e-006
1.05923e-006
1.93925e-007
6.6716e-008
1.53181
1.42009
1.32275
1.23692
1.16022
1.0906
1.02627
0.965132
0.906779
0.850236
0.793776
0.736748
0.678456
0.618332
0.555923
0.490875
0.422917
0.351828
0.27738
0.199187
0.116121
0.0388898
0.00867608
0.00157586
0.000270185
4.5668e-005
7.69736e-006
1.31291e-006
2.44509e-007
1.52139
1.41374
1.32006
1.23759
1.16405
1.0975
1.03624
0.97882
0.923431
0.869887
0.816623
0.76302
0.708394
0.65218
0.59392
0.533249
0.469883
0.403596
0.334189
0.261423
0.184832
0.103043
0.0336402
0.00768894
0.00148636
0.000273708
4.9711e-005
9.00862e-006
1.6163e-006
1.50915
1.40563
1.31565
1.23655
1.16616
1.10257
1.04415
0.989459
0.937018
0.886179
0.83636
0.786167
0.735112
0.68265
0.628332
0.571796
0.512753
0.450975
0.386275
0.318475
0.247357
0.17251
0.0891819
0.0286749
0.00678506
0.00140147
0.000277432
5.41602e-005
1.02986e-005
1.49532
1.39598
1.30974
1.23405
1.16681
1.10623
1.05074
0.999003
0.949897
0.901993
0.854998
0.807781
0.759887
0.710785
0.660034
0.607271
0.552203
0.494592
0.43425
0.371014
0.304731
0.235208
0.162724
0.0761967
0.024401
0.00602997
0.00133256
0.000283593
5.81323e-005
1.48006
1.38496
1.30249
1.23022
1.16614
1.1085
1.0558
1.00673
0.960136
0.914865
0.870514
0.826499
0.781848
0.736101
0.688841
0.639718
0.588446
0.534793
0.478567
0.419614
0.357798
0.292997
0.225208
0.154873
0.0686483
0.0219929
0.00565345
0.00132405
0.000292962
1.46354
1.3727
1.29404
1.22522
1.16429
1.1096
1.05972
1.01342
0.969645
0.927522
0.88599
0.844811
0.802864
0.760018
0.715854
0.670019
0.622222
0.572223
0.519822
0.464859
0.407199
0.346731
0.283392
0.217226
0.147717
0.0641914
0.0207577
0.00554831
0.00133543
1.44588
1.35935
1.28452
1.21914
1.16137
1.1096
1.06248
1.01881
0.977577
0.93788
0.898686
0.859951
0.821031
0.781252
0.740236
0.697659
0.653246
0.606766
0.558023
0.506855
0.453127
0.396727
0.337569
0.275585
0.210542
0.141761
0.0612857
0.0202076
0.00549214
1.42721
1.34501
1.27403
1.21211
1.15748
1.10863
1.06424
1.02319
0.984507
0.94736
0.911035
0.874827
0.838653
0.801504
0.763268
0.723624
0.682299
0.63906
0.593708
0.546077
0.496024
0.44343
0.388193
0.330219
0.269357
0.205284
0.137424
0.0596401
0.0197133
1.40766
1.3298
1.26268
1.20422
1.15273
1.10676
1.06508
1.0266
0.990423
0.955764
0.921987
0.888172
0.854319
0.819828
0.784338
0.747545
0.709189
0.669044
0.626915
0.582635
0.536058
0.487059
0.435529
0.381365
0.324447
0.264583
0.201411
0.1348
0.0579609
1.38734
1.31382
1.25056
1.19555
1.14719
1.10409
1.06507
1.02912
0.995341
0.962997
0.931417
0.899963
0.86843
0.836552
0.803726
0.769672
0.734148
0.696942
0.657865
0.616752
0.573457
0.527852
0.479822
0.429262
0.376061
0.320081
0.261147
0.199046
0.131483
1.36632
1.29715
1.23775
1.18619
1.14094
1.10069
1.06431
1.03085
0.999467
0.969481
0.940309
0.911496
0.882337
0.852874
0.822282
0.790638
0.757678
0.723175
0.68693
0.648773
0.60855
0.566128
0.521386
0.474213
0.424503
0.372142
0.317006
0.258876
0.198008
1.3447
1.27987
1.22431
1.17618
1.13403
1.09661
1.06285
1.03183
1.00279
0.975057
0.948071
0.921352
0.894338
0.866977
0.838967
0.809885
0.779519
0.747672
0.714164
0.678833
0.64153
0.602121
0.560482
0.516502
0.470074
0.421093
0.369453
0.315021
0.257689
1.32251
1.262
1.21028
1.16557
1.1265
1.09189
1.06072
1.03214
1.0054
0.979897
0.955087
0.930509
0.905731
0.880548
0.854815
0.828087
0.800146
0.770803
0.739883
0.707226
0.672685
0.636122
0.597413
0.556442
0.5131
0.467284
0.418894
0.367822
0.313898
1.29978
1.24357
1.19566
1.15435
1.11834
1.08652
1.05794
1.03177
1.00734
0.984061
0.961449
0.939107
0.916737
0.893749
0.87027
0.845628
0.819907
0.792895
0.764406
0.734272
0.702338
0.668465
0.632521
0.594385
0.553946
0.511097
0.465737
0.417765
0.367047
1.2765
1.22454
1.18042
1.14249
1.10953
1.08049
1.05448
1.03072
1.00858
0.987506
0.967042
0.946798
0.926427
0.90558
0.884132
0.861881
0.838522
0.813885
0.787808
0.760137
0.730724
0.699431
0.666124
0.630682
0.592986
0.552928
0.510406
0.465315
0.417547
1.25262
1.20487
1.1645
1.12992
1.1
1.07373
1.05028
1.02894
1.00908
0.99022
0.971909
0.953779
0.935488
0.916688
0.897417
0.877426
0.856354
0.834041
0.810329
0.785066
0.758107
0.729312
0.698546
0.665683
0.6306
0.593186
0.553332
0.510935
0.465892
1.22808
1.18449
1.14782
1.11656
1.08964
1.06614
1.04525
1.02632
1.00877
0.992142
0.976022
0.960073
0.944011
0.927618
0.910479
0.892645
0.873723
0.853646
0.832238
0.809333
0.784777
0.758422
0.730127
0.699758
0.667187
0.632294
0.594966
0.555097
0.512589
1.20281
1.16329
1.13028
1.1023
1.07836
1.05759
1.03926
1.02275
1.00753
0.993149
0.979245
0.965498
0.951641
0.937455
0.922585
0.907035
0.890394
0.872639
0.853589
0.833075
0.810939
0.787024
0.761183
0.73327
0.703151
0.670695
0.635783
0.598305
0.558162
1.17672
1.1412
1.11177
1.08701
1.06601
1.04796
1.03217
1.01808
1.00519
0.993087
0.981428
0.969911
0.958268
0.946239
0.933512
0.920264
0.906174
0.890921
0.874365
0.856352
0.836724
0.81532
0.791984
0.766558
0.738893
0.708847
0.676289
0.641101
0.603182
1.14978
1.11816
1.09222
1.07061
1.05249
1.03712
1.02385
1.01217
1.00161
0.991799
0.982415
0.973178
0.963839
0.954177
0.943987
0.933066
0.921376
0.908619
0.894623
0.879213
0.862214
0.843449
0.822739
0.799908
0.774783
0.7472
0.717008
0.684073
0.648286
1.12203
1.09417
1.07162
1.05308
1.03777
1.02502
1.01423
1.00492
0.996682
0.98916
0.982061
0.975127
0.968136
0.960895
0.953272
0.944812
0.935776
0.925546
0.914206
0.901539
0.887338
0.8714
0.853517
0.833481
0.811086
0.78613
0.758426
0.727809
0.694149
1.09359
1.06936
1.05008
1.0345
1.02192
1.01171
1.00334
0.996365
0.990403
0.985138
0.980298
0.975649
0.970983
0.966107
0.960813
0.954757
0.948414
0.941089
0.932654
0.922946
0.911769
0.898907
0.884126
0.867182
0.84782
0.825787
0.800839
0.772757
0.741364
1.06476
1.04399
1.02783
1.01511
1.00516
0.997422
0.991401
0.986687
0.982935
0.979855
0.9772
0.97476
0.972348
0.9698
0.966958
0.963701
0.959589
0.955042
0.949539
0.942903
0.934928
0.925381
0.914001
0.900499
0.884566
0.865879
0.844113
0.818961
0.790168
1.03599
1.01851
1.00535
0.995362
0.987953
0.982594
0.978831
0.976281
0.974625
0.973595
0.97297
0.972564
0.972219
0.971801
0.971191
0.970293
0.96859
0.966768
0.964093
0.960515
0.955817
0.949748
0.942021
0.932308
0.920238
0.905403
0.887373
0.865724
0.840073
1.00797
0.993585
0.983276
0.975918
0.970951
0.967874
0.966251
0.965713
0.965958
0.966735
0.967846
0.969137
0.970487
0.971803
0.973007
0.974024
0.974725
0.974973
0.974937
0.974282
0.972798
0.970239
0.966308
0.960652
0.952846
0.942389
0.928723
0.911278
0.889497
0.981549
0.970067
0.962468
0.957624
0.954986
0.954051
0.954377
0.955592
0.957393
0.959544
0.961874
0.964271
0.966672
0.969044
0.971376
0.973665
0.975896
0.977726
0.980034
0.981965
0.983431
0.984219
0.984046
0.982576
0.97935
0.973751
0.965069
0.952608
0.935574
0.957694
0.948912
0.943868
0.941394
0.940915
0.941889
0.943832
0.946343
0.949107
0.951902
0.954599
0.957153
0.95959
0.961973
0.96438
0.966927
0.969581
0.972982
0.976681
0.980485
0.984385
0.988119
0.991419
0.994093
0.995676
0.995341
0.99211
0.985463
0.974228
0.937361
0.931053
0.928361
0.928038
0.929431
0.931904
0.934894
0.937943
0.940714
0.943022
0.944806
0.946125
0.947165
0.94811
0.949142
0.950712
0.953628
0.957352
0.961166
0.965861
0.971567
0.97761
0.98405
0.990599
0.996814
1.00217
1.00436
1.00456
1.00059
0.921315
0.917206
0.916578
0.918053
0.920836
0.924141
0.927282
0.929728
0.931124
0.931377
0.930533
0.928789
0.926642
0.92485
0.923961
0.923939
0.924744
0.926756
0.929581
0.934113
0.940358
0.948019
0.956963
0.966949
0.977582
0.988283
0.997886
1.00512
1.00771
0.909937
0.907689
0.908709
0.911449
0.914899
0.91807
0.920117
0.92046
0.918717
0.91503
0.909583
0.903535
0.897412
0.891416
0.885931
0.881566
0.878483
0.877224
0.87814
0.881458
0.887326
0.895586
0.906124
0.918771
0.933243
0.949078
0.965376
0.981355
0.993096
0.903103
0.902299
0.90442
0.907705
0.910875
0.912699
0.912162
0.908738
0.901907
0.893129
0.882133
0.869503
0.856173
0.843153
0.831166
0.820971
0.813097
0.808001
0.805966
0.807024
0.811306
0.818845
0.829626
0.843603
0.860679
0.880671
0.902976
0.926781
0.951944
0.900171
0.900341
0.902917
0.905909
0.907735
0.906936
0.902296
0.893755
0.881182
0.86483
0.845416
0.82435
0.80299
0.782404
0.763542
0.747085
0.733593
0.723477
0.717021
0.714364
0.715522
0.720525
0.72954
0.742658
0.760045
0.781967
0.808357
0.838722
0.876696
0.90013
0.900797
0.903172
0.905044
0.904529
0.900092
0.890529
0.875741
0.855214
0.830498
0.802901
0.773886
0.744837
0.716935
0.691145
0.668166
0.648512
0.632541
0.6205
0.612596
0.6089
0.609316
0.613962
0.623077
0.637141
0.656959
0.683465
0.715943
0.764172
0.901848
0.90259
0.904209
0.904306
0.900877
0.89208
0.876887
0.854989
0.8273
0.795244
0.760339
0.724298
0.688616
0.654486
0.622798
0.594159
0.568958
0.547432
0.529711
0.515842
0.506011
0.499867
0.497658
0.499927
0.50709
0.519974
0.540496
0.566363
0.616795
0.90432
0.904825
0.905335
0.903375
0.896614
0.883327
0.862585
0.834797
0.80098
0.762909
0.722424
0.681302
0.641024
0.602694
0.567065
0.534591
0.50551
0.479904
0.457766
0.439036
0.423611
0.411275
0.402145
0.396528
0.39464
0.397268
0.407337
0.41947
0.460594
0.906828
0.906928
0.906254
0.902136
0.892298
0.875018
0.849849
0.817409
0.779166
0.737109
0.693236
0.64932
0.606754
0.56651
0.529193
0.495113
0.464372
0.436933
0.412674
0.391436
0.373017
0.357393
0.343856
0.332762
0.323776
0.317786
0.316319
0.313358
0.332983
0.908972
0.908652
0.906901
0.90098
0.888634
0.868432
0.84015
0.804747
0.76398
0.719976
0.674773
0.630085
0.58719
0.546934
0.509801
0.476002
0.445559
0.418375
0.394282
0.373082
0.35454
0.338588
0.32498
0.313485
0.302647
0.294869
0.286897
0.280119
0.275389
0.910607
0.909962
0.907444
0.90029
0.886387
0.864465
0.834555
0.797845
0.756256
0.711962
0.666972
0.622916
0.58097
0.541886
0.506072
0.473691
0.444735
0.4191
0.396622
0.377123
0.360395
0.346341
0.334641
0.325895
0.318134
0.315597
0.308759
0.314221
0.287625
0.911756
0.910958
0.908139
0.900493
0.886045
0.863651
0.833485
0.796853
0.755725
0.712259
0.66841
0.625737
0.585348
0.547944
0.513907
0.483386
0.456383
0.432812
0.412539
0.395429
0.381326
0.370188
0.361759
0.356701
0.353221
0.356981
0.35597
0.37539
0.339468
0.912544
0.911806
0.909221
0.901873
0.887892
0.866158
0.836872
0.801338
0.761504
0.719485
0.677195
0.636158
0.597462
0.561806
0.529579
0.500949
0.475945
0.454512
0.436558
0.42199
0.410713
0.402757
0.397973
0.397144
0.398671
0.408708
0.415212
0.443552
0.410345
5.80605e-005
5.80605e-005
5.80608e-005
5.80612e-005
5.80609e-005
5.80604e-005
5.80604e-005
5.8061e-005
5.80616e-005
5.80615e-005
5.80608e-005
5.80605e-005
5.80612e-005
5.8062e-005
5.80619e-005
5.80608e-005
5.80601e-005
5.80603e-005
5.80606e-005
5.80603e-005
5.80594e-005
5.80591e-005
5.80595e-005
5.80603e-005
5.80606e-005
5.80608e-005
5.80609e-005
5.80605e-005
5.80598e-005
5.80595e-005
5.80595e-005
5.80604e-005
5.80609e-005
5.80608e-005
5.80608e-005
5.80608e-005
5.80608e-005
5.80607e-005
5.80607e-005
5.80607e-005
5.80607e-005
5.80608e-005
5.80608e-005
5.80609e-005
5.80609e-005
5.80609e-005
5.80609e-005
5.80609e-005
5.80609e-005
5.80609e-005
5.80609e-005
5.8061e-005
5.8061e-005
5.8061e-005
5.8061e-005
5.8061e-005
5.80611e-005
5.80611e-005
5.80611e-005
5.80612e-005
5.80612e-005
5.80612e-005
5.80612e-005
5.80613e-005
5.80613e-005
5.80613e-005
5.80614e-005
5.80614e-005
5.80614e-005
5.80614e-005
5.80614e-005
5.80615e-005
5.80615e-005
5.80615e-005
5.80616e-005
5.80616e-005
5.80615e-005
5.80616e-005
5.80616e-005
5.80615e-005
5.80617e-005
5.80617e-005
5.80617e-005
5.80618e-005
5.80619e-005
5.80618e-005
5.80615e-005
5.80616e-005
5.80617e-005
5.80618e-005
5.80619e-005
5.80619e-005
5.80619e-005
5.80619e-005
5.80619e-005
5.80619e-005
5.80619e-005
5.80619e-005
5.80619e-005
5.80619e-005
5.80619e-005
5.80619e-005
5.80619e-005
5.80619e-005
5.80619e-005
5.80619e-005
5.80619e-005
5.80619e-005
5.80619e-005
5.80619e-005
5.80619e-005
5.80619e-005
5.80618e-005
5.80618e-005
5.80618e-005
5.80618e-005
5.80618e-005
5.80618e-005
5.80618e-005
5.80618e-005
5.80618e-005
5.80618e-005
5.80618e-005
5.80618e-005
5.80619e-005
5.80619e-005
5.80619e-005
5.80619e-005
5.80619e-005
5.8062e-005
5.8062e-005
5.80622e-005
5.80622e-005
5.80625e-005
5.80623e-005
5.80627e-005
5.80625e-005
5.80633e-005
5.93216e-005
4.60788e-006
4.60789e-006
4.60857e-006
4.60916e-006
4.60851e-006
4.60747e-006
4.60773e-006
4.60924e-006
4.61028e-006
4.60975e-006
4.60816e-006
4.60782e-006
4.60956e-006
4.61118e-006
4.61063e-006
4.60832e-006
4.60706e-006
4.60759e-006
4.60814e-006
4.60743e-006
4.60574e-006
4.60537e-006
4.60635e-006
4.6078e-006
4.60828e-006
4.60861e-006
4.60881e-006
4.60796e-006
4.60652e-006
4.60603e-006
4.60625e-006
4.60819e-006
4.60891e-006
4.60882e-006
4.60877e-006
4.60875e-006
4.60873e-006
4.60872e-006
4.60872e-006
4.60872e-006
4.60875e-006
4.60882e-006
4.60893e-006
4.60902e-006
4.6091e-006
4.60914e-006
4.60917e-006
4.60917e-006
4.6092e-006
4.60922e-006
4.60925e-006
4.60928e-006
4.60933e-006
4.60939e-006
4.60943e-006
4.6095e-006
4.60957e-006
4.60964e-006
4.60971e-006
4.60977e-006
4.60985e-006
4.60991e-006
4.60998e-006
4.61004e-006
4.61011e-006
4.61017e-006
4.61027e-006
4.61032e-006
4.61041e-006
4.61045e-006
4.61048e-006
4.6106e-006
4.61063e-006
4.61067e-006
4.61074e-006
4.61084e-006
4.61071e-006
4.61077e-006
4.61079e-006
4.6105e-006
4.61087e-006
4.61088e-006
4.61097e-006
4.61128e-006
4.61139e-006
4.6112e-006
4.61072e-006
4.6109e-006
4.61104e-006
4.61129e-006
4.61151e-006
4.61151e-006
4.61149e-006
4.61148e-006
4.61148e-006
4.61146e-006
4.6115e-006
4.61147e-006
4.61149e-006
4.61149e-006
4.61149e-006
4.6115e-006
4.6115e-006
4.6115e-006
4.61149e-006
4.61149e-006
4.61146e-006
4.61147e-006
4.61145e-006
4.61143e-006
4.6114e-006
4.61138e-006
4.61134e-006
4.61131e-006
4.61127e-006
4.61124e-006
4.61122e-006
4.61119e-006
4.6112e-006
4.6112e-006
4.61121e-006
4.61121e-006
4.61122e-006
4.61124e-006
4.61126e-006
4.61125e-006
4.61131e-006
4.61135e-006
4.61136e-006
4.61153e-006
4.61159e-006
4.6119e-006
4.61183e-006
4.61266e-006
4.61214e-006
4.61293e-006
4.61407e-006
4.61753e-006
5.07548e-006
7.23919e-007
7.24028e-007
7.2419e-007
7.24097e-007
7.23832e-007
7.23884e-007
7.24291e-007
7.24613e-007
7.24472e-007
7.24031e-007
7.23864e-007
7.2423e-007
7.24743e-007
7.24684e-007
7.24271e-007
7.23966e-007
7.24077e-007
7.24351e-007
7.24281e-007
7.24151e-007
7.24176e-007
7.24362e-007
7.2465e-007
7.24655e-007
7.24631e-007
7.24683e-007
7.2471e-007
7.24533e-007
7.24435e-007
7.24515e-007
7.24729e-007
7.25041e-007
7.24905e-007
7.2491e-007
7.2495e-007
7.24978e-007
7.25001e-007
7.25023e-007
7.25048e-007
7.2508e-007
7.25118e-007
7.25157e-007
7.25185e-007
7.252e-007
7.25216e-007
7.25244e-007
7.25266e-007
7.25299e-007
7.25323e-007
7.25353e-007
7.25378e-007
7.25408e-007
7.25437e-007
7.25467e-007
7.25497e-007
7.25535e-007
7.25559e-007
7.25598e-007
7.25624e-007
7.25661e-007
7.25692e-007
7.25719e-007
7.25762e-007
7.2578e-007
7.25822e-007
7.25841e-007
7.25889e-007
7.25889e-007
7.25946e-007
7.25956e-007
7.25972e-007
7.26039e-007
7.25995e-007
7.26057e-007
7.26044e-007
7.26091e-007
7.26066e-007
7.26035e-007
7.26063e-007
7.26019e-007
7.26065e-007
7.26023e-007
7.2607e-007
7.26174e-007
7.2623e-007
7.26192e-007
7.26161e-007
7.26223e-007
7.26206e-007
7.26268e-007
7.26338e-007
7.26378e-007
7.26397e-007
7.26406e-007
7.26406e-007
7.2641e-007
7.26404e-007
7.26409e-007
7.26406e-007
7.26405e-007
7.26401e-007
7.26398e-007
7.26394e-007
7.26389e-007
7.26383e-007
7.26375e-007
7.26366e-007
7.26356e-007
7.26345e-007
7.2633e-007
7.26315e-007
7.26294e-007
7.26273e-007
7.26241e-007
7.26218e-007
7.26181e-007
7.26161e-007
7.2613e-007
7.26122e-007
7.26102e-007
7.2609e-007
7.26067e-007
7.26049e-007
7.26035e-007
7.26012e-007
7.25982e-007
7.25984e-007
7.25922e-007
7.2591e-007
7.25993e-007
7.25849e-007
7.25994e-007
7.25989e-007
7.25895e-007
7.25828e-007
7.30144e-007
6.93366e-007
6.42098e-007
1.8854e-006
2.12877e-007
2.1293e-007
2.12952e-007
2.12927e-007
2.12957e-007
2.13075e-007
2.13152e-007
2.13106e-007
2.13014e-007
2.13008e-007
2.13128e-007
2.13243e-007
2.13247e-007
2.13155e-007
2.13073e-007
2.13101e-007
2.13193e-007
2.13282e-007
2.1334e-007
2.13366e-007
2.13403e-007
2.13387e-007
2.13396e-007
2.13421e-007
2.13484e-007
2.13514e-007
2.13527e-007
2.13521e-007
2.13503e-007
2.13485e-007
2.13523e-007
2.13558e-007
2.1362e-007
2.13651e-007
2.13674e-007
2.13693e-007
2.13712e-007
2.13731e-007
2.1375e-007
2.13771e-007
2.1379e-007
2.13806e-007
2.13815e-007
2.13823e-007
2.13839e-007
2.13862e-007
2.13886e-007
2.13914e-007
2.13936e-007
2.1396e-007
2.13981e-007
2.14003e-007
2.14024e-007
2.14044e-007
2.14064e-007
2.14086e-007
2.14103e-007
2.14125e-007
2.14141e-007
2.14162e-007
2.1418e-007
2.14197e-007
2.14218e-007
2.14232e-007
2.14251e-007
2.14266e-007
2.14284e-007
2.14297e-007
2.14315e-007
2.14326e-007
2.14339e-007
2.14361e-007
2.14364e-007
2.14387e-007
2.1439e-007
2.144e-007
2.14408e-007
2.14414e-007
2.14434e-007
2.14432e-007
2.14462e-007
2.14462e-007
2.14483e-007
2.14498e-007
2.14513e-007
2.14523e-007
2.14525e-007
2.14542e-007
2.14553e-007
2.14568e-007
2.14588e-007
2.1461e-007
2.14629e-007
2.1464e-007
2.14646e-007
2.14656e-007
2.14654e-007
2.14665e-007
2.14665e-007
2.14669e-007
2.14671e-007
2.14671e-007
2.14671e-007
2.14669e-007
2.14668e-007
2.14663e-007
2.14662e-007
2.14654e-007
2.14648e-007
2.14638e-007
2.14629e-007
2.14613e-007
2.14603e-007
2.14584e-007
2.14574e-007
2.14554e-007
2.14539e-007
2.1452e-007
2.14506e-007
2.14489e-007
2.14472e-007
2.14451e-007
2.1443e-007
2.1441e-007
2.14385e-007
2.14352e-007
2.14326e-007
2.1431e-007
2.14286e-007
2.14152e-007
2.14437e-007
2.14134e-007
2.1379e-007
2.19592e-007
2.16114e-007
1.73008e-007
6.46346e-007
0.000137139
0.00902195
1.03695e-007
1.03723e-007
1.03734e-007
1.03749e-007
1.03774e-007
1.03792e-007
1.03795e-007
1.03797e-007
1.03825e-007
1.0386e-007
1.03878e-007
1.0388e-007
1.03876e-007
1.03876e-007
1.03889e-007
1.03932e-007
1.03986e-007
1.04032e-007
1.04054e-007
1.04058e-007
1.0406e-007
1.04087e-007
1.04116e-007
1.04163e-007
1.04175e-007
1.04185e-007
1.04184e-007
1.04168e-007
1.04155e-007
1.04178e-007
1.04215e-007
1.04263e-007
1.04296e-007
1.04306e-007
1.04328e-007
1.04348e-007
1.04366e-007
1.04384e-007
1.04401e-007
1.04418e-007
1.04433e-007
1.04445e-007
1.04456e-007
1.0447e-007
1.04487e-007
1.04506e-007
1.04525e-007
1.04545e-007
1.04563e-007
1.04582e-007
1.046e-007
1.04618e-007
1.04635e-007
1.04652e-007
1.04669e-007
1.04685e-007
1.047e-007
1.04716e-007
1.04731e-007
1.04746e-007
1.04761e-007
1.04776e-007
1.0479e-007
1.04804e-007
1.04819e-007
1.04833e-007
1.04846e-007
1.0486e-007
1.04873e-007
1.04886e-007
1.04899e-007
1.04915e-007
1.04925e-007
1.04945e-007
1.04952e-007
1.04965e-007
1.04972e-007
1.04985e-007
1.04997e-007
1.05007e-007
1.05024e-007
1.05029e-007
1.05043e-007
1.05052e-007
1.05063e-007
1.05067e-007
1.05078e-007
1.05092e-007
1.05093e-007
1.05103e-007
1.05114e-007
1.05122e-007
1.05127e-007
1.05136e-007
1.05145e-007
1.05155e-007
1.05158e-007
1.05167e-007
1.0517e-007
1.05175e-007
1.05178e-007
1.0518e-007
1.05182e-007
1.05182e-007
1.05182e-007
1.05179e-007
1.05179e-007
1.05172e-007
1.05168e-007
1.05158e-007
1.05151e-007
1.05137e-007
1.05128e-007
1.05113e-007
1.05103e-007
1.05089e-007
1.05076e-007
1.05061e-007
1.05047e-007
1.05033e-007
1.05018e-007
1.05e-007
1.04982e-007
1.04964e-007
1.04942e-007
1.04932e-007
1.0498e-007
1.04816e-007
1.04557e-007
1.05508e-007
1.03687e-007
1.04973e-007
1.07805e-007
7.57976e-008
9.50664e-008
1.23485e-006
0.000177525
0.00939438
0.0872307
7.06094e-008
7.0629e-008
7.06392e-008
7.06435e-008
7.06529e-008
7.06793e-008
7.07073e-008
7.07225e-008
7.07239e-008
7.07254e-008
7.07368e-008
7.07682e-008
7.07846e-008
7.079e-008
7.07964e-008
7.08127e-008
7.08596e-008
7.08911e-008
7.09056e-008
7.09182e-008
7.09362e-008
7.09627e-008
7.09897e-008
7.10092e-008
7.10245e-008
7.10314e-008
7.10281e-008
7.10277e-008
7.10466e-008
7.10655e-008
7.10883e-008
7.11191e-008
7.11293e-008
7.11475e-008
7.11668e-008
7.11853e-008
7.12029e-008
7.12205e-008
7.12377e-008
7.12547e-008
7.12704e-008
7.12853e-008
7.13009e-008
7.13177e-008
7.13346e-008
7.13522e-008
7.13714e-008
7.13905e-008
7.14072e-008
7.14236e-008
7.144e-008
7.14566e-008
7.14729e-008
7.1489e-008
7.15051e-008
7.15209e-008
7.1536e-008
7.15516e-008
7.15665e-008
7.15817e-008
7.15968e-008
7.16115e-008
7.16269e-008
7.1641e-008
7.1656e-008
7.16698e-008
7.16848e-008
7.16971e-008
7.17127e-008
7.17252e-008
7.17376e-008
7.17549e-008
7.17639e-008
7.17825e-008
7.17874e-008
7.18021e-008
7.18055e-008
7.18158e-008
7.18264e-008
7.18413e-008
7.18561e-008
7.18592e-008
7.18718e-008
7.18811e-008
7.19e-008
7.19013e-008
7.19097e-008
7.19221e-008
7.19286e-008
7.19381e-008
7.19408e-008
7.19486e-008
7.19591e-008
7.19702e-008
7.19774e-008
7.19822e-008
7.19852e-008
7.19895e-008
7.19924e-008
7.19957e-008
7.19982e-008
7.20003e-008
7.20015e-008
7.20022e-008
7.20022e-008
7.20011e-008
7.20005e-008
7.19966e-008
7.19938e-008
7.19882e-008
7.19832e-008
7.1975e-008
7.19678e-008
7.19589e-008
7.195e-008
7.19393e-008
7.19277e-008
7.19145e-008
7.19017e-008
7.18882e-008
7.18732e-008
7.18565e-008
7.18388e-008
7.18197e-008
7.17968e-008
7.16949e-008
7.13904e-008
7.18555e-008
7.23918e-008
6.94222e-008
7.41956e-008
7.15797e-008
6.29262e-008
2.07911e-007
7.44777e-006
0.000465
0.0140452
0.10674
0.319836
5.78976e-008
5.79219e-008
5.79198e-008
5.79267e-008
5.7952e-008
5.79764e-008
5.79851e-008
5.79861e-008
5.79896e-008
5.80041e-008
5.80312e-008
5.80475e-008
5.80441e-008
5.8045e-008
5.806e-008
5.8096e-008
5.81224e-008
5.81296e-008
5.81476e-008
5.81834e-008
5.82281e-008
5.8248e-008
5.82446e-008
5.82403e-008
5.8253e-008
5.82685e-008
5.82832e-008
5.83105e-008
5.83363e-008
5.8347e-008
5.83595e-008
5.83613e-008
5.83729e-008
5.83986e-008
5.84224e-008
5.84429e-008
5.84613e-008
5.84791e-008
5.84967e-008
5.8514e-008
5.85313e-008
5.85486e-008
5.85656e-008
5.85831e-008
5.86021e-008
5.86218e-008
5.8637e-008
5.86507e-008
5.86663e-008
5.86854e-008
5.87042e-008
5.87221e-008
5.8739e-008
5.87555e-008
5.87719e-008
5.87883e-008
5.88038e-008
5.882e-008
5.88352e-008
5.88512e-008
5.88663e-008
5.88816e-008
5.8897e-008
5.89116e-008
5.89262e-008
5.89405e-008
5.89548e-008
5.89675e-008
5.89822e-008
5.89949e-008
5.90068e-008
5.90231e-008
5.90342e-008
5.90499e-008
5.90575e-008
5.90707e-008
5.90777e-008
5.90876e-008
5.91003e-008
5.91095e-008
5.91239e-008
5.91352e-008
5.91454e-008
5.91559e-008
5.91688e-008
5.91747e-008
5.91807e-008
5.91894e-008
5.91984e-008
5.92037e-008
5.92104e-008
5.92264e-008
5.9238e-008
5.92439e-008
5.92454e-008
5.92501e-008
5.92542e-008
5.92601e-008
5.92636e-008
5.92673e-008
5.92692e-008
5.9271e-008
5.92719e-008
5.92719e-008
5.9272e-008
5.92705e-008
5.92699e-008
5.92672e-008
5.92651e-008
5.9261e-008
5.92577e-008
5.92522e-008
5.92467e-008
5.92388e-008
5.92312e-008
5.92213e-008
5.92109e-008
5.91981e-008
5.9186e-008
5.91733e-008
5.91595e-008
5.91438e-008
5.91286e-008
5.91107e-008
5.91015e-008
5.93469e-008
5.99334e-008
5.89037e-008
5.78331e-008
6.35045e-008
5.57481e-008
5.89378e-008
3.09133e-007
1.94014e-005
0.000993478
0.0226379
0.138436
0.374248
0.631727
5.19702e-008
5.19785e-008
5.19988e-008
5.20137e-008
5.20233e-008