/*--------------------------------*- C++ -*----------------------------------*\
| =========                 |                                                 |
| \\      /  F ield         | OpenFOAM: The Open Source CFD Toolbox           |
|  \\    /   O peration     | Version:  5.x                                   |
|   \\  /    A nd           | Web:      www.OpenFOAM.org                      |
|    \\/     M anipulation  |                                                 |
\*---------------------------------------------------------------------------*/
/*   Windows 32 and 64 bit porting by blueCAPE: http://www.bluecape.com.pt   *\
|  Based on Windows porting (2.0.x v4) by Symscape: http://www.symscape.com   |
\*---------------------------------------------------------------------------*/
FoamFile
{
    version     2.0;
    format      ascii;
    class       volScalarField;
    location    "320";
    object      p;
}
// * * * * * * * * * * * * * * * * * * * * * * * * * * * * * * * * * * * * * //

dimensions      [0 2 -2 0 0 0 0];

internalField   nonuniform List<scalar> 
43900
(
0.339929
0.33958
0.339539
0.339412
0.339209
0.338984
0.338781
0.338446
0.338204
0.337879
0.337556
0.337225
0.336879
0.336518
0.336149
0.33577
0.33538
0.334982
0.334576
0.334162
0.333741
0.333313
0.332879
0.332439
0.331993
0.331543
0.331086
0.330625
0.330161
0.337913
0.345996
0.339856
0.343148
0.340634
0.341386
0.340475
0.340298
0.339847
0.339414
0.33901
0.338576
0.33814
0.337711
0.337278
0.33684
0.3364
0.335955
0.335507
0.335056
0.334599
0.33414
0.333676
0.333207
0.332735
0.332257
0.331775
0.331292
0.330801
0.331081
0.352869
0.341777
0.348023
0.34294
0.345508
0.343117
0.343455
0.342365
0.341949
0.341359
0.340795
0.340257
0.339723
0.339195
0.338672
0.338155
0.337642
0.337133
0.336623
0.336116
0.335612
0.335105
0.334599
0.334092
0.333583
0.333075
0.332562
0.332046
0.326324
0.35398
0.347253
0.347051
0.346696
0.346277
0.345191
0.345148
0.344356
0.34398
0.343416
0.342898
0.342377
0.341853
0.341328
0.340802
0.340276
0.33975
0.339219
0.338691
0.338164
0.337631
0.337101
0.336569
0.336034
0.335501
0.334963
0.334423
0.333886
0.328935
0.352758
0.347752
0.347142
0.347118
0.346689
0.346494
0.346261
0.345731
0.345423
0.344988
0.344564
0.344136
0.343691
0.343234
0.342766
0.342287
0.341798
0.341303
0.340797
0.340279
0.339759
0.339229
0.338688
0.338143
0.337592
0.337034
0.336471
0.335898
0.333945
0.352029
0.348991
0.348682
0.348607
0.348197
0.347922
0.34767
0.347448
0.347175
0.346802
0.346454
0.346079
0.345687
0.345281
0.344862
0.344426
0.343979
0.343517
0.343041
0.34256
0.342058
0.341543
0.341028
0.340495
0.339946
0.339393
0.338824
0.33825
0.34019
0.354129
0.352316
0.351782
0.351734
0.351589
0.351256
0.350801
0.350479
0.350244
0.349911
0.349551
0.349183
0.348795
0.348392
0.347971
0.34754
0.347093
0.346632
0.34616
0.345664
0.34516
0.344651
0.344115
0.343564
0.343008
0.34245
0.341878
0.341279
0.347084
0.358305
0.357157
0.356544
0.356366
0.356226
0.356011
0.355659
0.355197
0.354752
0.354409
0.354039
0.353624
0.353196
0.352754
0.352298
0.351821
0.351328
0.35082
0.350294
0.349759
0.349209
0.348629
0.348042
0.347451
0.346832
0.346181
0.345525
0.344867
0.354965
0.363977
0.363274
0.36264
0.36236
0.362149
0.361898
0.361588
0.361193
0.360673
0.36015
0.359726
0.359284
0.358797
0.358297
0.357785
0.357255
0.3567
0.356127
0.35554
0.354931
0.354302
0.353663
0.353011
0.352334
0.351637
0.350943
0.350236
0.349492
0.364184
0.371053
0.370652
0.37001
0.369647
0.369365
0.369054
0.368699
0.368299
0.367828
0.367248
0.366627
0.366093
0.365556
0.364989
0.364405
0.363797
0.363172
0.362529
0.361855
0.361167
0.360458
0.359723
0.358964
0.358197
0.357415
0.356597
0.355761
0.354914
0.373603
0.379546
0.379253
0.378583
0.378154
0.377808
0.377435
0.377017
0.376555
0.376044
0.375467
0.374796
0.374061
0.373404
0.372747
0.372071
0.371379
0.370648
0.3699
0.369136
0.368334
0.367512
0.366671
0.365801
0.364908
0.363994
0.363058
0.362115
0.361136
0.383725
0.389159
0.388916
0.388213
0.387727
0.387324
0.386893
0.386414
0.385885
0.385305
0.384668
0.383964
0.383173
0.382317
0.381509
0.380714
0.379903
0.379076
0.378206
0.377305
0.376391
0.375442
0.37446
0.373452
0.372433
0.371385
0.370303
0.369196
0.368073
0.394994
0.399736
0.399524
0.398798
0.398259
0.397799
0.397312
0.396773
0.39618
0.39553
0.394818
0.394039
0.393183
0.392237
0.391221
0.39024
0.389282
0.388308
0.387315
0.386273
0.385207
0.384113
0.382991
0.381849
0.38067
0.379463
0.378257
0.377007
0.375709
0.407056
0.41127
0.411062
0.41031
0.40972
0.409203
0.408657
0.408057
0.407398
0.406676
0.405884
0.40502
0.404077
0.403047
0.401915
0.400715
0.399553
0.398403
0.397232
0.396032
0.394791
0.393532
0.392243
0.390898
0.38954
0.388152
0.386703
0.385237
0.383761
0.419818
0.423655
0.423433
0.422649
0.422007
0.421433
0.420826
0.420161
0.419431
0.418631
0.417754
0.416795
0.415749
0.414612
0.413374
0.412025
0.410613
0.409221
0.407828
0.406412
0.404974
0.403483
0.401943
0.400399
0.398805
0.397151
0.395516
0.393845
0.392106
0.433184
0.436769
0.436525
0.435702
0.435007
0.434373
0.433703
0.432969
0.432164
0.431281
0.430313
0.429253
0.428096
0.426838
0.425475
0.423997
0.422402
0.420741
0.419091
0.417439
0.415776
0.414073
0.412343
0.410556
0.408736
0.4069
0.404991
0.403074
0.401139
0.447101
0.450527
0.450257
0.449393
0.448646
0.447956
0.447226
0.446426
0.445549
0.444587
0.443531
0.442375
0.441113
0.43974
0.438254
0.436651
0.434921
0.43307
0.43116
0.429264
0.427347
0.425433
0.423454
0.421433
0.419415
0.417277
0.41512
0.412891
0.410617
0.461445
0.464788
0.464492
0.463584
0.462787
0.462042
0.461251
0.460384
0.459433
0.458389
0.457243
0.455987
0.454614
0.453119
0.451498
0.449749
0.447868
0.445848
0.443699
0.441491
0.439274
0.437026
0.434757
0.432424
0.430038
0.427637
0.425127
0.422616
0.420084
0.47611
0.479435
0.479112
0.478157
0.477308
0.476506
0.475653
0.474715
0.473685
0.472552
0.471306
0.469939
0.468443
0.466812
0.465041
0.463127
0.461067
0.458856
0.456487
0.453981
0.451402
0.448815
0.446195
0.44354
0.440852
0.438116
0.435333
0.432493
0.429618
0.491006
0.494362
0.494016
0.493013
0.492112
0.491257
0.490341
0.489333
0.488224
0.487005
0.485664
0.48419
0.482575
0.480812
0.478896
0.476823
0.474589
0.472194
0.469631
0.466896
0.464015
0.461076
0.458094
0.455096
0.452074
0.448949
0.44576
0.442543
0.439254
0.50601
0.509438
0.509071
0.508019
0.507068
0.50616
0.505186
0.504112
0.502926
0.501619
0.500179
0.498596
0.49686
0.494963
0.492899
0.490664
0.488254
0.485667
0.482902
0.479952
0.476812
0.47352
0.470153
0.466724
0.463265
0.459747
0.45614
0.452515
0.448829
0.521022
0.524553
0.524166
0.523066
0.522065
0.521103
0.520067
0.518921
0.517654
0.516257
0.514717
0.513021
0.51116
0.509124
0.506906
0.504502
0.501907
0.499119
0.496136
0.492957
0.489575
0.485981
0.482233
0.478405
0.474497
0.470552
0.46657
0.462522
0.458443
0.535932
0.539593
0.539189
0.53804
0.536989
0.535975
0.53488
0.533666
0.532321
0.530833
0.529189
0.527376
0.525384
0.523204
0.52083
0.518254
0.515472
0.512481
0.509279
0.505868
0.502246
0.498408
0.494347
0.49013
0.485807
0.481399
0.476932
0.472391
0.467753
0.550644
0.554457
0.554038
0.55284
0.551741
0.550674
0.549517
0.548229
0.546799
0.545212
0.543459
0.541526
0.5394
0.537071
0.53453
0.531772
0.528792
0.525585
0.52215
0.518487
0.514596
0.51048
0.506132
0.501553
0.496785
0.491879
0.486876
0.481826
0.476711
0.565063
0.56905
0.568617
0.56737
0.566222
0.565102
0.563881
0.562519
0.561003
0.55932
0.557455
0.555393
0.553121
0.55063
0.547911
0.544959
0.541766
0.538329
0.534646
0.530715
0.526537
0.522115
0.517451
0.512542
0.507391
0.502024
0.49653
0.490939
0.48528
0.579113
0.583294
0.582849
0.581554
0.580359
0.579186
0.577901
0.576462
0.574856
0.573066
0.571077
0.568877
0.566453
0.563794
0.560888
0.55773
0.554312
0.550632
0.546685
0.542472
0.537993
0.533251
0.52825
0.522993
0.517481
0.511708
0.505729
0.499589
0.493293
0.592719
0.597114
0.596658
0.595314
0.594072
0.592845
0.591493
0.589974
0.588272
0.586373
0.58426
0.581918
0.579333
0.576492
0.573385
0.570005
0.566345
0.562401
0.558171
0.553654
0.54885
0.543762
0.538396
0.532756
0.526849
0.520672
0.514241
0.507586
0.500721
0.605825
0.610452
0.609986
0.608596
0.607308
0.606027
0.604609
0.603008
0.601208
0.599195
0.596949
0.594453
0.591693
0.588658
0.585336
0.581718
0.577799
0.573572
0.569036
0.564189
0.559034
0.553573
0.547812
0.541757
0.535419
0.528804
0.521923
0.514787
0.507426
0.61838
0.623257
0.622783
0.621346
0.620014
0.618681
0.617195
0.61551
0.613609
0.611475
0.609088
0.606431
0.603489
0.60025
0.596701
0.59283
0.588631
0.584099
0.579231
0.574027
0.568489
0.562622
0.55643
0.549924
0.543114
0.536013
0.528633
0.520978
0.513111
0.630346
0.635488
0.635005
0.633524
0.63215
0.630765
0.629211
0.62744
0.625434
0.623176
0.620645
0.617823
0.614691
0.611234
0.607439
0.603296
0.598797
0.593936
0.588711
0.58312
0.577166
0.570854
0.564192
0.55719
0.549861
0.542221
0.534288
0.526077
0.517598
0.641692
0.647111
0.646619
0.645098
0.643685
0.642251
0.64063
0.638773
0.636663
0.63428
0.6316
0.628603
0.625269
0.621583
0.61753
0.6131
0.608281
0.603068
0.597457
0.591446
0.585039
0.578242
0.571063
0.563515
0.555614
0.547378
0.53883
0.529992
0.520873
0.652398
0.658101
0.6576
0.656041
0.654593
0.653112
0.651426
0.649484
0.647268
0.644756
0.641924
0.638748
0.635208
0.631285
0.626965
0.622232
0.617074
0.611484
0.605457
0.598993
0.592095
0.584768
0.577023
0.568874
0.560341
0.551444
0.542211
0.53267
0.522842
0.662449
0.668439
0.667929
0.666336
0.664857
0.663333
0.661583
0.659558
0.657238
0.654598
0.651611
0.648254
0.644503
0.640335
0.635734
0.630681
0.625165
0.619175
0.612706
0.605756
0.598326
0.590424
0.582062
0.573255
0.564025
0.554399
0.544409
0.534088
0.523472
0.671841
0.678115
0.677593
0.675971
0.674468
0.672904
0.671095
0.668991
0.666568
0.663802
0.660664
0.657124
0.653157
0.648737
0.643844
0.638459
0.632568
0.626157
0.619218
0.611746
0.603745
0.59522
0.586185
0.576657
0.566663
0.556234
0.545405
0.534221
0.522728
0.680574
0.687123
0.686587
0.684942
0.68342
0.681822
0.679958
0.677778
0.675257
0.672367
0.669077
0.665354
0.661168
0.656493
0.651305
0.64558
0.639298
0.632444
0.625007
0.61698
0.608365
0.599168
0.589402
0.579088
0.568255
0.55694
0.545186
0.533046
0.520577
0.688657
0.695466
0.694914
0.693252
0.691718
0.690091
0.688177
0.685924
0.683309
0.680299
0.676859
0.672954
0.668551
0.663619
0.658128
0.652052
0.645366
0.63805
0.63009
0.621476
0.612206
0.602286
0.591728
0.580557
0.568806
0.556516
0.543741
0.530542
0.516991
0.696102
0.703154
0.702581
0.700911
0.699372
0.697721
0.695761
0.693442
0.690738
0.687613
0.684028
0.679945
0.675326
0.670135
0.664338
0.657902
0.650798
0.643003
0.634495
0.625261
0.615294
0.604597
0.593185
0.58108
0.568322
0.55496
0.541056
0.526686
0.511936
0.702926
0.710202
0.709605
0.707934
0.706397
0.704728
0.702728
0.700349
0.697561
0.694325
0.6906
0.686343
0.681511
0.676063
0.669957
0.663157
0.655628
0.647338
0.638258
0.62837
0.617662
0.606134
0.593796
0.580676
0.566815
0.55227
0.537118
0.521449
0.50537
0.709146
0.716631
0.716006
0.714342
0.712815
0.711133
0.709099
0.706665
0.703799
0.700459
0.696598
0.69217
0.687128
0.681424
0.675012
0.667846
0.659884
0.651085
0.641413
0.63084
0.619348
0.60693
0.593595
0.579368
0.564295
0.548444
0.531906
0.514793
0.497236
0.714784
0.722469
0.721811
0.720161
0.718652
0.716963
0.7149
0.712416
0.709478
0.70604
0.70205
0.697458
0.692211
0.686257
0.67954
0.672007
0.663606
0.654287
0.644004
0.632718
0.6204
0.607034
0.592621
0.577187
0.560781
0.543481
0.525397
0.506668
0.487459
0.719856
0.727747
0.72705
0.725422
0.723937
0.722246
0.720159
0.717632
0.714628
0.711098
0.706986
0.702237
0.696793
0.690595
0.683579
0.675684
0.666846
0.657002
0.646094
0.634069
0.620884
0.606508
0.590936
0.574184
0.556306
0.537391
0.517571
0.49702
0.475951
0.724381
0.7325
0.731755
0.730154
0.728699
0.72701
0.724904
0.72234
0.719277
0.715661
0.711434
0.706537
0.700905
0.694473
0.68717
0.678923
0.669656
0.65929
0.647753
0.634972
0.620885
0.605444
0.588625
0.570438
0.550932
0.530208
0.508426
0.485804
0.462617
0.728373
0.736764
0.735956
0.734387
0.732966
0.731282
0.729163
0.726566
0.72345
0.719757
0.715425
0.71039
0.704584
0.697934
0.69036
0.681778
0.672098
0.661227
0.64907
0.635529
0.620518
0.603964
0.585819
0.566074
0.54477
0.522016
0.498
0.473001
0.447376
0.73185
0.740573
0.739681
0.738146
0.736762
0.735088
0.732958
0.730336
0.727174
0.723413
0.718988
0.713831
0.70787
0.701025
0.693208
0.684322
0.674263
0.662917
0.650162
0.635878
0.619941
0.602244
0.582704
0.561282
0.538
0.512968
0.486402
0.45865
0.430188
0.734833
0.743956
0.742952
0.741454
0.740111
0.738448
0.736314
0.733673
0.730475
0.726659
0.722158
0.716903
0.710815
0.703811
0.695792
0.68665
0.67626
0.66449
0.651189
0.636199
0.61936
0.600517
0.579538
0.556336
0.5309
0.503322
0.473838
0.442876
0.411073
0.737352
0.746936
0.745789
0.74433
0.743031
0.741384
0.739253
0.736604
0.733386
0.729536
0.724986
0.719665
0.713494
0.706382
0.698221
0.688886
0.678237
0.666119
0.652346
0.63672
0.619036
0.599082
0.576658
0.551607
0.523854
0.49345
0.460639
0.425921
0.390143
0.739449
0.749531
0.748205
0.746796
0.745546
0.743921
0.741805
0.739167
0.735951
0.732098
0.727539
0.722204
0.716008
0.708853
0.700622
0.69118
0.680369
0.668002
0.653864
0.637714
0.61929
0.598307
0.574482
0.54756
0.517366
0.483853
0.447266
0.408158
0.367631
0.741174
0.751752
0.75022
0.748878
0.747685
0.746094
0.744012
0.74141
0.738233
0.734421
0.729908
0.724618
0.718466
0.71135
0.703145
0.693704
0.68285
0.670367
0.656007
0.639485
0.620473
0.598601
0.573485
0.544736
0.512039
0.475179
0.434344
0.390049
0.343847
0.742585
0.753617
0.751859
0.750612
0.749486
0.747947
0.745927
0.743397
0.740303
0.736584
0.732178
0.72701
0.720993
0.714021
0.70596
0.696649
0.685891
0.673447
0.659032
0.642318
0.62291
0.600347
0.574126
0.543689
0.508533
0.468174
0.422662
0.372218
0.319188
0.743741
0.75515
0.75316
0.752041
0.750995
0.749532
0.747606
0.745188
0.742224
0.73866
0.734436
0.729477
0.723695
0.716977
0.709179
0.700126
0.689603
0.677352
0.663058
0.646351
0.626778
0.603784
0.576736
0.544871
0.507459
0.46359
0.413117
0.35551
0.294224
0.744692
0.756387
0.754169
0.753214
0.752262
0.750898
0.749098
0.74683
0.744046
0.740696
0.736719
0.732041
0.726568
0.720181
0.712729
0.704029
0.693855
0.681936
0.667935
0.651446
0.631965
0.608849
0.581344
0.548452
0.509196
0.462042
0.406608
0.340858
0.269709
0.745479
0.757373
0.754937
0.754181
0.753329
0.752085
0.750434
0.748346
0.745774
0.742669
0.738968
0.734595
0.729453
0.72342
0.716344
0.70804
0.69828
0.686784
0.673205
0.657109
0.637955
0.615029
0.587478
0.55405
0.513553
0.463627
0.403663
0.329063
0.246428
0.74614
0.758163
0.755519
0.754986
0.754235
0.753121
0.75163
0.749729
0.747369
0.744501
0.741059
0.736967
0.732126
0.726416
0.719688
0.711756
0.702394
0.691323
0.678192
0.662558
0.643856
0.62132
0.594031
0.560495
0.519372
0.467329
0.40357
0.319962
0.224285
0.746696
0.75881
0.755967
0.755669
0.75501
0.754026
0.752686
0.750954
0.748779
0.746108
0.742876
0.739005
0.734397
0.728933
0.722466
0.714814
0.705755
0.695013
0.68224
0.666985
0.648677
0.626503
0.599521
0.56601
0.524569
0.470818
0.403792
0.311272
0.200638
0.747103
0.759298
0.756265
0.756196
0.755609
0.754737
0.75352
0.75192
0.749881
0.747352
0.744263
0.740536
0.736073
0.730755
0.724438
0.716943
0.70805
0.697483
0.684895
0.669826
0.6517
0.629653
0.602731
0.568987
0.527034
0.471328
0.400761
0.298001
0.168413
0.747158
0.759441
0.756219
0.756346
0.755793
0.754989
0.753839
0.752306
0.750336
0.747874
0.744851
0.741187
0.736784
0.731521
0.725255
0.717805
0.70895
0.698411
0.685833
0.670744
0.65255
0.630333
0.603109
0.568675
0.525708
0.467248
0.392352
0.274901
0.120486
0.746942
0.759265
0.755864
0.756128
0.755565
0.754768
0.753612
0.752065
0.750077
0.747596
0.744554
0.74087
0.736447
0.731161
0.724864
0.717375
0.708465
0.697846
0.685155
0.669897
0.651457
0.628856
0.601067
0.5656
0.521224
0.459421
0.379999
0.244389
0.0574912
0.748553
0.760816
0.757381
0.757754
0.757254
0.756537
0.755449
0.753951
0.751983
0.74949
0.746407
0.742655
0.738141
0.732748
0.726331
0.718708
0.709651
0.698866
0.68598
0.670485
0.651739
0.628717
0.600346
0.563927
0.518192
0.453677
0.371256
0.225886
0.013205
0.756933
0.769404
0.766347
0.767004
0.76704
0.766985
0.766658
0.765937
0.764688
0.762798
0.760174
0.756732
0.752391
0.747054
0.7406
0.73287
0.723656
0.712682
0.699588
0.683879
0.664919
0.64171
0.613084
0.576656
0.530043
0.466367
0.382552
0.264275
0.16488
0.329606
0.328963
0.328311
0.327652
0.326987
0.326315
0.325637
0.324952
0.324262
0.323564
0.322861
0.322154
0.321439
0.320718
0.319993
0.319261
0.318526
0.317787
0.317042
0.316292
0.31554
0.314786
0.314029
0.313269
0.312509
0.311756
0.310996
0.310228
0.309465
0.308702
0.307936
0.307173
0.306408
0.305641
0.304875
0.304111
0.303348
0.302587
0.301827
0.301069
0.300313
0.29956
0.298808
0.298061
0.297317
0.296577
0.295839
0.295105
0.294375
0.293649
0.292926
0.292208
0.291495
0.290786
0.290083
0.289384
0.288691
0.288004
0.287323
0.286647
0.285978
0.285315
0.284659
0.284009
0.283367
0.282732
0.282104
0.281484
0.280871
0.280266
0.279671
0.279082
0.278502
0.277931
0.277369
0.276815
0.27627
0.275735
0.275209
0.274692
0.274185
0.273686
0.273198
0.272719
0.272248
0.271788
0.271339
0.270899
0.270469
0.27005
0.269641
0.269242
0.268854
0.268478
0.268112
0.267757
0.267414
0.267081
0.26676
0.26645
0.266151
0.265863
0.265586
0.26532
0.265066
0.264822
0.264589
0.264368
0.264157
0.263957
0.263768
0.263591
0.263424
0.263269
0.263124
0.262989
0.262864
0.262748
0.262642
0.262545
0.262457
0.262378
0.262307
0.262244
0.262189
0.262141
0.262102
0.26207
0.262044
0.262026
0.262015
0.262009
0.262015
0.26202
0.262049
0.262064
0.262128
0.26214
0.262296
0.33022
0.329545
0.32886
0.328171
0.327474
0.326772
0.326064
0.32535
0.324632
0.323908
0.32318
0.322449
0.321714
0.320975
0.320232
0.319489
0.318743
0.317992
0.317242
0.316491
0.315741
0.31498
0.314217
0.313455
0.312683
0.311904
0.311125
0.310352
0.309577
0.308796
0.308013
0.307227
0.306444
0.305666
0.304894
0.30412
0.303346
0.302571
0.301797
0.301023
0.300251
0.299481
0.298715
0.297953
0.297194
0.296436
0.29568
0.294927
0.294177
0.29343
0.292687
0.291949
0.291215
0.290486
0.289763
0.289044
0.288332
0.287625
0.286925
0.286231
0.285543
0.284863
0.28419
0.283523
0.282865
0.282214
0.28157
0.280936
0.280309
0.27969
0.279082
0.278482
0.277891
0.27731
0.276737
0.276175
0.275617
0.275064
0.274519
0.27397
0.273429
0.272902
0.272385
0.271885
0.271401
0.270925
0.27045
0.269982
0.269527
0.269087
0.268662
0.268252
0.267852
0.267464
0.267086
0.266721
0.266368
0.266027
0.265698
0.26538
0.265075
0.264782
0.264501
0.264232
0.263976
0.263731
0.263499
0.263279
0.263071
0.262875
0.262691
0.262518
0.262356
0.262206
0.262067
0.26194
0.261823
0.261716
0.261619
0.261532
0.261455
0.261387
0.261328
0.261278
0.261237
0.261204
0.261177
0.261158
0.261149
0.261133
0.261137
0.261121
0.261141
0.261102
0.261149
0.261098
0.261144
0.261078
0.261035
0.331439
0.330731
0.330021
0.329307
0.328585
0.327859
0.327129
0.326392
0.325651
0.324907
0.324158
0.323403
0.322644
0.32188
0.321111
0.320338
0.319562
0.318782
0.317996
0.3172
0.316392
0.3156
0.314805
0.313999
0.313192
0.312376
0.311559
0.310745
0.309919
0.309093
0.308286
0.307475
0.306646
0.30582
0.305
0.304184
0.303371
0.302561
0.301753
0.300947
0.300142
0.299338
0.298534
0.297728
0.296924
0.296123
0.295326
0.294535
0.293747
0.292964
0.292186
0.291412
0.290643
0.289879
0.28912
0.288367
0.287619
0.286876
0.286139
0.285408
0.284684
0.283965
0.283253
0.282548
0.281849
0.281157
0.280472
0.279793
0.279122
0.278459
0.2778
0.277151
0.276507
0.275872
0.275245
0.27463
0.274025
0.273429
0.272845
0.272282
0.271736
0.271194
0.270662
0.270141
0.269634
0.269135
0.268648
0.268177
0.267715
0.267264
0.266822
0.266393
0.265976
0.265572
0.265181
0.264804
0.264439
0.264087
0.263747
0.263421
0.263107
0.262807
0.26252
0.262246
0.261986
0.26174
0.261507
0.261287
0.261082
0.260889
0.260711
0.260546
0.260394
0.260254
0.260127
0.260012
0.259911
0.259823
0.259748
0.259687
0.259639
0.259603
0.25958
0.259568
0.259569
0.259581
0.259606
0.259638
0.259686
0.259747
0.259828
0.259882
0.259971
0.260074
0.260086
0.260293
0.260129
0.260628
0.26014
0.333244
0.332502
0.331759
0.331006
0.330247
0.329482
0.328709
0.327929
0.327142
0.326344
0.325537
0.324726
0.323905
0.323076
0.322243
0.321407
0.320559
0.3197
0.318838
0.318009
0.317178
0.316303
0.315419
0.314536
0.31366
0.312804
0.311977
0.31115
0.310297
0.309425
0.308529
0.307639
0.306767
0.305888
0.305001
0.304119
0.303239
0.302357
0.301476
0.300596
0.299719
0.298844
0.297972
0.297102
0.296234
0.295371
0.294511
0.293657
0.292807
0.291962
0.291121
0.290285
0.289453
0.288626
0.287804
0.286988
0.286178
0.285374
0.284577
0.283786
0.283003
0.282226
0.281458
0.280697
0.279944
0.279199
0.278463
0.277735
0.277015
0.276307
0.275603
0.274914
0.274235
0.273566
0.272908
0.272258
0.271622
0.271001
0.270399
0.269807
0.26922
0.268646
0.268088
0.267539
0.266997
0.266471
0.265965
0.265475
0.264999
0.264532
0.264076
0.263627
0.26319
0.26277
0.262369
0.261979
0.261601
0.261237
0.260886
0.26055
0.260227
0.25992
0.259627
0.259349
0.259086
0.258838
0.258604
0.258385
0.25818
0.257989
0.257812
0.257648
0.257497
0.257361
0.257242
0.257142
0.257061
0.256999
0.256957
0.256934
0.256931
0.256948
0.256986
0.257045
0.257124
0.257227
0.257342
0.25748
0.257644
0.2578
0.257961
0.258307
0.25823
0.259025
0.258237
0.260191
0.258109
0.261644
0.257519
0.335217
0.334428
0.333623
0.332811
0.331994
0.331166
0.330327
0.329479
0.328623
0.327776
0.32692
0.326049
0.325174
0.32429
0.323396
0.322487
0.321606
0.320763
0.31988
0.318924
0.317972
0.31704
0.316132
0.315222
0.314278
0.313314
0.312319
0.311315
0.310353
0.309414
0.308463
0.307512
0.306556
0.305596
0.304648
0.3037
0.302748
0.301792
0.300835
0.299878
0.298922
0.297968
0.297016
0.296069
0.295126
0.294187
0.293249
0.292315
0.291386
0.290461
0.289542
0.288629
0.287722
0.286824
0.285932
0.285047
0.28417
0.283301
0.282441
0.281588
0.280744
0.279909
0.279084
0.278269
0.277464
0.27667
0.275887
0.275116
0.274358
0.273612
0.272881
0.27216
0.271451
0.270753
0.270068
0.269393
0.268731
0.268079
0.267436
0.266803
0.26618
0.265574
0.264974
0.264381
0.263794
0.263222
0.26267
0.262126
0.261593
0.26108
0.26058
0.260098
0.259635
0.259185
0.258746
0.258329
0.257931
0.25755
0.257186
0.256838
0.256505
0.256187
0.255885
0.255598
0.255326
0.25507
0.254829
0.254605
0.254398
0.254208
0.254036
0.253884
0.253753
0.253643
0.253553
0.253483
0.253433
0.253404
0.253396
0.25341
0.253445
0.253502
0.253583
0.253687
0.253814
0.253967
0.254169
0.254374
0.254622
0.255047
0.255048
0.256102
0.255245
0.258097
0.255017
0.261262
0.253736
0.266373
0.248736
0.337569
0.336759
0.335931
0.335096
0.334245
0.33337
0.332488
0.331626
0.330743
0.329811
0.328872
0.327929
0.326967
0.326036
0.325106
0.324133
0.32312
0.322064
0.321036
0.320035
0.319031
0.318017
0.316972
0.315924
0.314899
0.313876
0.312835
0.311784
0.310732
0.309684
0.308641
0.307587
0.306532
0.30548
0.304417
0.303348
0.302286
0.301232
0.300187
0.299147
0.298109
0.297073
0.296039
0.295008
0.293981
0.292956
0.291931
0.290907
0.289884
0.288873
0.287877
0.286888
0.285906
0.284931
0.283964
0.283004
0.282054
0.281112
0.280179
0.279255
0.278342
0.277439
0.276546
0.275665
0.274796
0.273938
0.273092
0.272259
0.271436
0.270622
0.26982
0.269022
0.268233
0.267451
0.266674
0.265905
0.265145
0.264406
0.263677
0.262969
0.262292
0.261625
0.260982
0.26036
0.259761
0.259184
0.258616
0.258062
0.257531
0.257013
0.256505
0.256012
0.255529
0.255055
0.254596
0.254146
0.253705
0.253278
0.252867
0.252472
0.252094
0.251735
0.251395
0.251073
0.250771
0.25049
0.250229
0.249989
0.249771
0.249575
0.2494
0.249247
0.249115
0.249004
0.248915
0.248846
0.248799
0.248773
0.24877
0.248791
0.248838
0.248912
0.249016
0.249154
0.249327
0.249528
0.249774
0.250125
0.25023
0.25108
0.250616
0.252576
0.250849
0.254482
0.250861
0.256756
0.249297
0.26324
0.232669
0.340554
0.339699
0.338833
0.337937
0.33701
0.336094
0.335157
0.334143
0.333132
0.332134
0.331129
0.330118
0.329089
0.327997
0.326889
0.325818
0.324742
0.323655
0.322556
0.321438
0.320309
0.319183
0.318065
0.316944
0.315787
0.314627
0.313507
0.312413
0.311285
0.310106
0.30892
0.307743
0.306565
0.305393
0.304223
0.303059
0.3019
0.300742
0.299583
0.298425
0.297273
0.296126
0.294986
0.293851
0.292722
0.291603
0.290488
0.28937
0.28826
0.287153
0.286045
0.284949
0.283869
0.282801
0.281744
0.280697
0.27966
0.278632
0.277616
0.276609
0.275613
0.274627
0.273651
0.272685
0.27173
0.270785
0.269849
0.268924
0.26801
0.267106
0.266218
0.265345
0.264491
0.263657
0.262843
0.26205
0.261274
0.260519
0.259774
0.259034
0.2583
0.257587
0.256876
0.256169
0.25548
0.254802
0.25414
0.253502
0.252877
0.252267
0.251682
0.251114
0.25057
0.250051
0.249549
0.249068
0.248609
0.248169
0.24775
0.247346
0.246959
0.246589
0.246234
0.245898
0.245578
0.245276
0.244992
0.244727
0.244483
0.244259
0.244055
0.243873
0.243712
0.243574
0.243458
0.243366
0.243297
0.243255
0.243238
0.24325
0.243289
0.243357
0.243451
0.243574
0.243731
0.24391
0.244045
0.244421
0.244324
0.245078
0.244574
0.245782
0.24492
0.246328
0.245686
0.246503
0.245897
0.252847
0.22066
0.344087
0.343169
0.342203
0.341214
0.340225
0.339195
0.33813
0.337077
0.336012
0.334922
0.333795
0.332653
0.331503
0.330346
0.329204
0.328034
0.326816
0.325589
0.324348
0.323121
0.321895
0.320627
0.319345
0.318066
0.316788
0.315512
0.314222
0.312917
0.311613
0.310322
0.309041
0.30775
0.306457
0.305161
0.303874
0.302602
0.301332
0.300056
0.298779
0.297506
0.296235
0.294967
0.293702
0.29244
0.291177
0.289917
0.288666
0.287416
0.286181
0.284957
0.283739
0.282558
0.281405
0.28025
0.279099
0.277954
0.276819
0.275692
0.274576
0.273471
0.272377
0.271295
0.270226
0.269169
0.268125
0.267096
0.266081
0.26508
0.264093
0.263123
0.262168
0.261231
0.260312
0.259404
0.258509
0.257628
0.256758
0.255887
0.255035
0.254216
0.253423
0.252647
0.251886
0.251153
0.250434
0.249735
0.249058
0.248383
0.247726
0.247097
0.246468
0.245856
0.245267
0.244685
0.244121
0.243577
0.243052
0.242547
0.24206
0.241597
0.241154
0.240732
0.240332
0.239953
0.239595
0.23926
0.238944
0.238649
0.238375
0.238119
0.237886
0.237672
0.237482
0.237312
0.237166
0.237041
0.23694
0.236861
0.236804
0.236767
0.23675
0.236748
0.236762
0.236782
0.236816
0.236892
0.236852
0.237079
0.236921
0.237314
0.237068
0.237566
0.237356
0.237615
0.238267
0.237654
0.23774
0.24473
0.215206
0.348589
0.347523
0.346456
0.345377
0.344236
0.343076
0.341926
0.340736
0.339504
0.338257
0.336994
0.335749
0.33448
0.333156
0.331798
0.330426
0.329076
0.327734
0.326362
0.324961
0.323546
0.32214
0.320742
0.319333
0.317907
0.316479
0.315037
0.313585
0.312132
0.310667
0.309197
0.307741
0.306284
0.304826
0.303386
0.301971
0.300553
0.299133
0.297718
0.296308
0.294903
0.293503
0.292112
0.290732
0.289361
0.288001
0.286641
0.285273
0.283919
0.282582
0.281257
0.279919
0.278587
0.277287
0.276007
0.274744
0.273494
0.272259
0.271038
0.269832
0.268642
0.267467
0.266308
0.265163
0.264034
0.262918
0.26182
0.260735
0.259665
0.258612
0.257571
0.25654
0.255527
0.254534
0.253558
0.252602
0.251663
0.250757
0.24987
0.248982
0.248117
0.24728
0.246451
0.245625
0.244831
0.244064
0.243305
0.242572
0.241874
0.241187
0.240528
0.239896
0.239273
0.238671
0.238092
0.237525
0.236972
0.236438
0.23592
0.235419
0.234936
0.234475
0.234032
0.233607
0.233204
0.232819
0.232457
0.232114
0.231791
0.23149
0.231209
0.230949
0.230709
0.230488
0.230287
0.230105
0.229938
0.229789
0.229652
0.22953
0.229419
0.22932
0.229235
0.229157
0.229079
0.229062
0.228942
0.229028
0.228861
0.229061
0.228844
0.229128
0.229127
0.228836
0.229303
0.228353
0.226969
0.233878
0.208026
0.353922
0.352734
0.351494
0.350221
0.348934
0.347631
0.346269
0.344875
0.343502
0.342106
0.340661
0.33917
0.337665
0.336173
0.334708
0.333234
0.3317
0.330128
0.328564
0.327014
0.325474
0.323895
0.322272
0.320654
0.319048
0.317448
0.315858
0.314263
0.312665
0.311071
0.309483
0.307896
0.306319
0.304736
0.303114
0.301456
0.299808
0.29819
0.296592
0.29501
0.29344
0.291881
0.290329
0.288783
0.287225
0.285677
0.28416
0.282686
0.281221
0.27976
0.278315
0.276866
0.275418
0.273989
0.272586
0.271197
0.269826
0.268473
0.267138
0.26582
0.264517
0.26323
0.261957
0.260699
0.259458
0.258227
0.257011
0.255813
0.254625
0.253464
0.252324
0.251207
0.250121
0.249062
0.248028
0.247023
0.246046
0.245083
0.244134
0.243204
0.242302
0.24141
0.240529
0.239674
0.238826
0.237997
0.237195
0.236401
0.235626
0.234882
0.234153
0.233437
0.232744
0.232083
0.231439
0.230811
0.230212
0.229638
0.229088
0.228555
0.228049
0.227557
0.227088
0.226635
0.226198
0.225786
0.225383
0.225003
0.224642
0.224297
0.223968
0.223659
0.223363
0.223085
0.22282
0.222572
0.222334
0.222113
0.221905
0.221708
0.221527
0.221357
0.221201
0.221067
0.220916
0.220852
0.220671
0.220703
0.220488
0.220591
0.220429
0.220395
0.2207
0.22032
0.22031
0.219592
0.21823
0.224272
0.201766
0.359939
0.358541
0.357135
0.355689
0.354184
0.352658
0.351139
0.349587
0.347969
0.34634
0.344733
0.343146
0.341504
0.339809
0.338069
0.336296
0.334578
0.332902
0.331132
0.329314
0.327505
0.325713
0.32395
0.322179
0.320372
0.31853
0.316678
0.314844
0.31302
0.311185
0.309349
0.307513
0.305689
0.303906
0.302167
0.300426
0.298683
0.296934
0.295179
0.293426
0.291681
0.289948
0.288228
0.286513
0.284829
0.283146
0.281448
0.279776
0.278122
0.276489
0.274868
0.273293
0.271741
0.270206
0.268698
0.267195
0.265708
0.264236
0.262781
0.261341
0.259922
0.258522
0.257144
0.255785
0.254448
0.253136
0.251847
0.250585
0.24935
0.248135
0.246937
0.245756
0.244587
0.243435
0.242305
0.241192
0.240102
0.239055
0.238025
0.237002
0.236012
0.235075
0.23415
0.233235
0.232361
0.231521
0.230693
0.229879
0.229086
0.228313
0.22755
0.226803
0.226084
0.225371
0.224664
0.223988
0.223338
0.222702
0.222081
0.221486
0.220907
0.220359
0.219822
0.219309
0.218819
0.218341
0.217891
0.217455
0.217038
0.216634
0.216251
0.21588
0.21553
0.215188
0.214866
0.214552
0.214259
0.213975
0.213707
0.213456
0.213217
0.212994
0.212772
0.212606
0.212402
0.212303
0.212118
0.212081
0.211938
0.211935
0.211864
0.211732
0.211838
0.211264
0.210864
0.210271
0.209207
0.214379
0.194661
0.366773
0.365201
0.363553
0.361893
0.360214
0.358512
0.356756
0.354971
0.353184
0.351338