/*--------------------------------*- C++ -*----------------------------------*\
| =========                 |                                                 |
| \\      /  F ield         | OpenFOAM: The Open Source CFD Toolbox           |
|  \\    /   O peration     | Version:  5.x                                   |
|   \\  /    A nd           | Web:      www.OpenFOAM.org                      |
|    \\/     M anipulation  |                                                 |
\*---------------------------------------------------------------------------*/
/*   Windows 32 and 64 bit porting by blueCAPE: http://www.bluecape.com.pt   *\
|  Based on Windows porting (2.0.x v4) by Symscape: http://www.symscape.com   |
\*---------------------------------------------------------------------------*/
FoamFile
{
    version     2.0;
    format      ascii;
    class       surfaceScalarField;
    location    "320";
    object      phi;
}
// * * * * * * * * * * * * * * * * * * * * * * * * * * * * * * * * * * * * * //

dimensions      [0 3 -1 0 0 0 0];

internalField   nonuniform List<scalar> 
87341
(
0.365411
39.5576
0.528901
39.7595
0.495126
39.9568
0.600316
39.8178
0.635586
39.8878
0.679185
39.8794
0.714895
39.8873
0.75174
39.8862
0.788023
39.8868
0.81917
39.8919
0.851769
39.8904
0.878097
39.8967
0.9001
39.901
0.920897
39.9022
0.938045
39.9059
0.956639
39.9044
0.976718
39.903
0.991491
39.9083
1.00551
39.909
1.01935
39.9092
1.032
39.9104
1.04594
39.9091
1.05757
39.9114
1.06795
39.9127
1.0799
39.9111
1.08933
39.9136
1.09707
39.9153
1.1062
39.9139
39.9152
1.11401
0.970267
38.5874
1.3623
39.3675
1.47361
39.8455
1.61098
39.6805
1.65098
39.8478
1.80936
39.7211
1.9099
39.7868
2.03963
39.7565
2.13347
39.7929
2.23587
39.7895
2.33051
39.7958
2.42696
39.8003
2.51792
39.8101
2.59801
39.8221
2.67781
39.8261
2.75287
39.8294
2.81293
39.8429
2.87021
39.851
2.92889
39.8503
2.98274
39.8553
3.03597
39.8572
3.08345
39.8616
3.12584
39.869
3.16618
39.8723
3.19994
39.8773
3.23334
39.8802
3.27265
39.876
3.31007
39.8765
39.8822
3.34307
2.03832
36.549
3.3579
38.0479
4.14045
39.0629
4.22794
39.593
4.38974
39.686
4.32884
39.782
4.36645
39.7492
4.34682
39.7761
4.37499
39.7647
4.3998
39.7647
4.43016
39.7654
4.46849
39.7619
4.51488
39.7637
4.56704
39.77
4.61839
39.7747
4.66532
39.7824
4.72051
39.7877
4.78412
39.7874
4.83833
39.7961
4.89119
39.8025
4.94354
39.8048
4.99238
39.8128
5.04442
39.817
5.10211
39.8146
5.16516
39.8143
5.22861
39.8168
5.28018
39.8244
5.31964
39.837
39.8394
5.36249
1.70023
34.8488
3.50453
36.2436
4.95904
37.6084
5.84968
38.7023
6.15353
39.3821
6.24345
39.692
6.26083
39.7318
6.29418
39.7427
6.31335
39.7456
6.32586
39.7522
6.33478
39.7565
6.33626
39.7604
6.33836
39.7616
6.3486
39.7597
6.36425
39.7591
6.3824
39.7643
6.40342
39.7667
6.42281
39.768
6.4528
39.7662
6.48909
39.7662
6.52405
39.7699
6.5674
39.7694
6.61719
39.7672
6.65918
39.7726
6.68967
39.7838
6.71803
39.7884
6.74967
39.7928
6.80182
39.7849
39.78
6.86118
1.09118
33.7576
2.46109
34.8737
4.03716
36.0324
5.50539
37.2341
6.57988
38.3076
7.17164
39.1003
7.38366
39.5198
7.43168
39.6947
7.47748
39.6998
7.52255
39.7071
7.56101
39.7181
7.60318
39.7183
7.64476
39.72
7.67741
39.7271
7.71221
39.7243
7.75421
39.7223
7.80137
39.7195
7.84765
39.7217
7.88694
39.7269
7.92676
39.7264
7.97697
39.7196
8.02471
39.7217
8.06196
39.7299
8.0965
39.7381
8.14169
39.7386
8.20273
39.7273
8.27354
39.722
8.33349
39.7249
39.7379
8.37562
0.859191
32.8984
1.87708
33.8558
3.05207
34.8574
4.38851
35.8977
5.74979
36.9464
6.8944
37.9557
7.62903
38.7851
7.99018
39.3336
8.12759
39.5624
8.21746
39.6172
8.3129
39.6226
8.40136
39.6298
8.48232
39.639
8.56781
39.6416
8.65169
39.6404
8.72756
39.6464
8.8082
39.6389
8.89513
39.6348
8.98248
39.6395
9.06802
39.6408
9.13721
39.6504
9.20271
39.6562
9.28117
39.6515
9.37395
39.6453
9.47137
39.6412
9.5517
39.647
9.61745
39.6562
9.67107
39.6713
39.6627
9.74626
0.754474
32.144
1.6103
33
2.56965
33.898
3.63647
34.8309
4.80034
35.7825
6.02205
36.734
7.14258
37.6646
7.97942
38.4967
8.44529
39.0965
8.65122
39.4113
8.77352
39.5003
8.90066
39.5027
9.03049
39.5092
9.15104
39.5211
9.27139
39.5201
9.3989
39.5189
9.50881
39.529
9.61094
39.5326
9.72473
39.5257
9.83799
39.5276
9.95511
39.5333
10.0781
39.5332
10.1943
39.5353
10.2969
39.5428
10.3805
39.5576
10.4685
39.559
10.5666
39.5582
10.6784
39.5595
39.5615
10.7796
0.700306
31.4437
1.47028
32.23
2.31332
33.055
3.23173
33.9124
4.223
34.7912
5.27827
35.6787
6.38262
36.5603
7.46414
37.4152
8.34515
38.2155
8.91057
38.8459
9.18449
39.2264
9.33963
39.3475
9.4989
39.3499
9.66227
39.3577
9.81243
39.3699
9.96467
39.3667
10.1293
39.3644
10.2831
39.3788
10.4161
39.3927
10.5536
39.39
10.7027
39.3842
10.8434
39.3925
10.9771
39.4016
11.1153
39.4045
11.2608
39.4121
11.3995
39.4203
11.5398
39.4178
11.6831
39.4163
39.4186
11.8259
0.672228
30.7714
1.39509
31.5072
2.17294
32.2771
3.0078
33.0776
3.89921
33.8998
4.8437
34.7342
5.83383
35.5701
6.85367
36.3954
7.87389
37.1952
8.76959
37.9502
9.40657
38.5894
9.74268
39.0114
9.93375
39.1589
10.1224
39.169
10.3145
39.1779
10.4943
39.1868
10.6663
39.1924
10.8474
39.1977
11.0366
39.2035
11.2146
39.212
11.3707
39.2282
11.5339
39.2293
11.7085
39.227
11.8775
39.2354
12.0491
39.2405
12.2171
39.2522
12.3755
39.2594
12.5181
39.2737
39.2885
12.6483
0.655855
30.1156
1.35446
30.8086
2.0953
31.5363
2.88009
32.2928
3.70906
33.0708
4.58067
33.8626
5.49116
34.6596
6.43351
35.453
7.39602
36.2327
8.35972
36.9865
9.25292
37.6962
9.93702
38.3273
10.3304
38.7654
10.5546
38.9448
10.7671
38.9654
10.9782
38.9758
11.1878
38.9828
11.3891
38.9964
11.5933
38.9993
11.8023
39.003
12.0193
39.0112
12.2275
39.0211
12.4187
39.0359
12.6073
39.0468
12.7935
39.0543
12.9788
39.067
13.1657
39.0725
13.3649
39.0745
39.0936
13.5598
0.653024
29.4626
1.34024
30.1214
2.06238
30.8142
2.82012
31.535
3.61336
32.2776
4.44099
33.0349
5.30069
33.7999
6.18855
34.5652
7.09845
35.3228
8.02083
36.0641
8.93902
36.778
9.8179
37.4484
10.5217
38.0616
10.9536
38.5129
11.209
38.71
11.4447
38.7401
11.6768
38.7506
11.9233
38.7499
12.1446
38.778
12.3711
38.7765
12.5992
38.7831
12.8239
38.7964
13.0428
38.817
13.2571
38.8325
13.4709
38.8405
13.6807
38.8572
13.8773
38.876
14.0456
38.9061
38.9104
14.2289
0.657228
28.8053
1.34302
29.4356
2.05893
30.0982
2.80518
30.7888
3.58142
31.5014
4.38652
32.2298
5.21858
32.9679
6.0747
33.709
6.95074
34.4468
7.84063
35.1742
8.73497
35.8837
9.6176
36.5658
10.4712
37.208
11.1855
37.7986
11.6447
38.2508
11.9324
38.4524
12.1969
38.4861
12.4487
38.4981
12.7211
38.5056
12.9605
38.5371
13.1915
38.5522
13.4233
38.5646
13.6706
38.5697
13.9169
38.5862
14.152
38.6054
14.3878
38.6213
14.6362
38.6276
14.8923
38.65
38.6818
15.1208
0.664375
28.141
1.35536
28.7446
2.07308
29.3805
2.81747
30.0444
3.58806
30.7308
4.38395
31.434
5.2035
32.1483
6.04437
32.8682
6.90345
33.5877
7.77651
34.3012
8.65771
35.0025
9.53859
35.6849
10.4063
36.3403
11.2475
36.9574
11.9723
37.5261
12.4508
37.9739
12.7668
38.1701
13.0628
38.2022
13.3445
38.2239
13.6401
38.2415
13.928
38.2643
14.1997
38.2929
14.4723
38.2971
14.7406
38.3178
15.0177
38.3283
15.2622
38.3768
15.4811
38.4087
15.6993
38.4318
38.4369
15.9442
0.674343
27.4666
1.37289
28.046
2.0959
28.6575
2.8432
29.2971
3.61402
29.96
4.40738
30.6406
5.22195
31.3338
6.05576
32.0344
6.90628
32.7372
7.77029
33.4372
8.64367
34.1291
9.52095
34.8076
10.3946
35.4667
11.2532
36.0988
12.0853
36.6939
12.8141
37.2451
13.2979
37.6863
13.6275
37.8725
13.943
37.9084
14.2495
37.935
14.5571
37.9566
14.8769
37.9731
15.1697
38.0043
15.4458
38.0417
15.7129
38.0613
16.0018
38.0878
16.3044
38.1062
16.5908
38.1454
38.203
16.8247
0.68692
26.7797
1.39634
27.3366
2.12831
27.9255
2.88279
28.5426
3.65912
29.1836
4.45604
29.8437
5.2723
30.5175
6.1063
31.2004
6.9559
31.8876
7.8185
32.5746
8.69087
33.2567
9.56901
33.9295
10.4477
34.588
11.3198
35.2267
12.1748
35.8388
13.0046
36.4153
13.7394
36.9515
14.2301
37.3818
14.5815
37.5571
14.9214
37.5951
15.2603
37.6178
15.5758
37.6576
15.9023
37.6778
16.2266
37.7174
16.5345
37.7534
16.8078
37.8146
17.0694
37.8445
17.3589
37.8558
37.8678
17.6942
0.702032
26.0777
1.42536
26.6133
2.16994
27.181
2.93561
27.777
3.72201
28.3972
4.52811
29.0376
5.35239
29.6932
6.19342
30.3593
7.04948
31.0315
7.91843
31.7056
8.79773
32.3774
9.68427
33.043
10.5742
33.698
11.4627
34.3383
12.3429
34.9586
13.2053
35.5529
14.0436
36.1132
14.789
36.6365
15.2937
37.0524
15.6668
37.222
16.023
37.2616
16.3712
37.3094
16.6876
37.3614
17.0103
37.3947
17.3354
37.4283
17.6821
37.4679
18.0247
37.502
18.2929
37.5876
37.6212
18.5395
0.716525
25.3611
1.45358
25.8762
2.21099
26.4235
2.9884
26.9996
3.78532
27.6003
4.60111
28.2218
5.43446
28.8599
6.28372
29.5101
7.14723
30.168
8.02306
30.8298
8.90898
31.4915
9.8024
32.1495
10.7002
32.8002
11.5987
33.4398
12.4929
34.0644
13.3764
34.6694
14.2401
35.2495
15.0781
35.7985
15.8162
36.3142
16.3218
36.7164
16.6904
36.8931
17.0552
36.9445
17.4275
36.9891
17.7761
37.046
18.1161
37.0884
18.44
37.1439
18.7578
37.1842
19.1324
37.213
37.2745
19.4792
0.730479
24.6307
1.48087
25.1258
2.25092
25.6535
3.04018
26.2103
3.84798
26.7925
4.67355
27.3962
5.51596
28.0175
6.37368
28.6523
7.24504
29.2967
8.12825
29.9466
9.02118
30.5986
9.92145
31.2493
10.8263
31.8953
11.7327
32.5335
12.6367
33.1604
13.5335
33.7725
14.4172
34.3659
15.2798
34.9359
16.1157
35.4782
16.8427
35.9895
17.3541
36.3816
17.746
36.5526
18.1331
36.6021
18.5416
36.6374
18.9351
36.6949
19.3249
36.7542
19.6822
36.8269
19.9794
36.9158
36.9381
20.3158
0.744402
23.8862
1.50825
24.362
2.2913
24.8704
3.09308
25.4085
3.91291
25.9727
4.7499
26.5592
5.60308
27.1643
6.47119
27.7842
7.35258
28.4153
8.24558
29.0536
9.14837
29.6958
10.0588
30.3388
10.9747
30.9795
11.8932
31.615
12.8114
32.2422
13.7256
32.8583
14.6315
33.46
15.5237
34.0437
16.3963
34.6056
17.2423
35.1434
17.9703
35.6537
18.5001
36.0228
18.916
36.1861
19.3042
36.2493
19.6809
36.3181
20.0395
36.3956
20.4181
36.4483
20.7999
36.534
36.6191
21.1189
0.75725
23.129
1.53367
23.5856
2.32893
24.0752
3.14254
24.5949
3.97382
25.1414
4.82188
25.7112
5.68569
26.3005
6.56412
26.9058
7.45567
27.5237
8.35861
28.1506
9.27122
28.7832
10.1916
29.4184
11.1177
30.0534
12.0471
30.6855
12.9772
31.3121
13.9052
31.9304
14.8274
32.5377
15.7398
33.1313
16.6373
33.7081
17.5151
34.2656
18.3642
34.8046
19.074
35.313
19.5808
35.6794
20.0028
35.8272
20.4037
35.9172
20.7965
36.0028
21.1435
36.1013
21.5146
36.1629
36.2654
21.8683
0.769095
22.3599
1.55708
22.7976
2.36363
23.2686
3.18823
23.7703
4.03017
24.2995
4.88857
24.8527
5.76237
25.4267
6.65041
26.0178
7.55139
26.6227
8.46368
27.2384
9.38553
27.8613
10.3152
28.4888
11.2507
29.118
12.1899
29.7463
13.1305
30.3715
14.0699
30.9909
15.0053
31.6023
15.9333
32.2033
16.8501
32.7913
17.7518
33.3639
18.6371
33.9193
19.4915
34.4586
20.1897
34.9812
20.6829
35.3341
21.1049
35.4951
21.5099
35.5979
21.9245
35.6867
22.3297
35.7577
35.8617
22.7334
0.779711
21.5802
1.57812
21.9992
2.39488
22.4519
3.22945
22.9357
4.08115
23.4478
4.94911
23.9848
5.83228
24.5435
6.72946
25.1206
7.63938
25.7128
8.56056
26.3172
9.4913
26.9306
10.4299
27.5502
11.3745
28.1734
12.3232
28.7977
13.2739
29.4208
14.2243
30.0405
15.172
30.6546
16.1143
31.261
17.0482
31.8575
17.9703
32.4418
18.8777
33.0118
19.7705
33.5659
20.6355
34.1162
21.3172
34.6523
21.8013
35.0111
22.2201
35.1791
22.6102
35.2966
22.9785
35.3893
35.4939
23.3463
0.788899
20.7913
1.59632
21.1918
2.42189
21.6263
3.26508
22.0926
4.12519
22.5877
5.00137
23.1086
5.89256
23.6523
6.79757
24.2156
7.71511
24.7953
8.64376
25.3885
9.58192
25.9924
10.5279
26.6042
11.4799
27.2214
12.436
27.8415
13.3944
28.4624
14.3529
29.082
15.3093
29.6982
16.2612
30.3092
17.2058
30.9128
18.1403
31.5073
19.0612
32.0909
19.965
32.6621
20.86
33.2212
21.7287
33.7836
22.3938
34.346
22.8784
34.6945
23.3117
34.8633
23.7194
34.9815
35.1148
24.0985
0.79655
19.9947
1.61147
20.3768
2.44437
20.7934
3.29474
21.2422
4.16187
21.7205
5.04492
22.2256
5.94285
22.7544
6.85449
23.3039
7.77853
23.8712
8.71355
24.4535
9.658
25.048
10.6102
25.6521
11.5683
26.2632
12.5307
26.8791
13.4953
27.4978
14.4602
28.1171
15.4234
28.7351
16.3825
29.35
17.3354
29.96
18.2794
30.5633
19.2119
31.1584
20.1301
31.7439
21.0321
32.3192
21.9316
32.8841
22.8122
33.4654
23.485
34.0217
23.9457
34.4026
24.3659
34.5613
34.7141
24.7666
0.802695
19.192
1.62358
19.5559
2.46231
19.9547
3.31835
20.3861
4.19104
20.8478
5.07952
21.3371
5.98278
21.8511
6.89964
22.3871
7.82875
22.9421
8.76872
23.5135
9.71802
24.0987
10.675
24.6951
11.6379
25.3003
12.605
25.9121
13.5744
26.5283
14.5443
27.1472
15.5126
27.7667
16.4774
28.3852
17.4364
29.0009
18.3875
29.6122
19.3283
30.2176
20.2565
30.8157
21.1702
31.4054
22.0679
31.9864
22.971
32.5623
23.8406
33.1522
24.5088
33.7343
24.934
34.1361
34.33
25.3182
0.807094
18.385
1.63224
18.7308
2.47505
19.1119
3.33506
19.5261
4.21161
19.9713
5.10385
20.4448
6.01081
20.9442
6.9313
21.4666
7.86405
22.0094
8.80764
22.5699
9.76056
23.1458
10.7211
23.7346
11.6875
24.3339
12.658
24.9415
13.6308
25.5556
14.6039
26.1741
15.5755
26.7952
16.5435
27.4172
17.5059
28.0385
18.4606
28.6575
19.4055
29.2727
20.3384
29.8828
21.2574
30.4865
22.1607
31.0831
23.0498
31.6732
23.9412
32.2608
24.8078
32.8678
25.4598
33.4841
33.9098
25.8799
0.809866
17.5751
1.63759
17.9031
2.48284
18.2666
3.34518
18.6638
4.22398
19.0925
5.11843
19.5504
6.02756
20.035
6.95022
20.5439
7.8851
21.0745
8.83075
21.6243
9.78564
22.1909
10.7481
22.7721
11.7165
23.3656
12.6888
23.9692
13.6633
24.5811
14.6381
25.1993
15.6112
25.8221
16.5806
26.4478
17.5444
27.0747
18.5005
27.7014
19.4468
28.3264
20.3813
28.9483
21.3021
29.5658
22.2072
30.1779
23.0961
30.7844
23.9705
31.3864
24.8499
31.9884
25.7077
32.6262
33.2744
26.3431
0.81082
16.7643
1.63931
17.0746
2.48517
17.4208
3.348
17.801
4.22723
18.2133
5.12209
18.6555
6.03162
19.1255
6.95471
19.6208
7.89005
20.1392
8.83621
20.6781
9.79164
21.2354
10.7547
21.809
11.7237
22.3966
12.6966
22.9963
13.6716
23.6061
14.6468
24.2241
15.6201
24.8488
16.5895
25.4783
17.553
26.1112
18.5086
26.7458
19.4542
27.3808
20.3877
28.0147
21.3072
28.6463
22.2107
29.2744
23.0968
29.8982
23.9652
30.518
24.8181
31.1355
25.6867
31.7576
32.4415
26.5196
0.809994
15.9543
1.63743
16.2472
2.48207
16.5761
3.34358
16.9395
4.22146
17.3354
5.11497
17.762
6.02323
18.2172
6.94512
18.6989
7.87939
19.2049
8.82463
19.7329
9.77928
20.2808
10.7417
20.8466
11.7101
21.4283
12.6824
22.0239
13.6569
22.6316
14.6313
23.2497
15.6037
23.8764
16.572
24.51
17.5341
25.1491
18.4878
25.7921
19.431
26.4376
20.3617
27.0841
21.2777
27.7302
22.1772
28.3749
23.0584
29.017
23.9203
29.6561
24.7635
30.2924
25.5943
30.9268
31.582
26.4537
0.807372
15.1469
1.63193
15.4226
2.47351
15.7345
3.33188
16.0811
4.2066
16.4607
5.09703
16.8716
6.00233
17.312
6.92143
17.7798
7.85312
18.2732
8.79597
18.79
9.74841
19.3284
10.7087
19.8862
11.6751
20.4618
12.6457
21.0534
13.6184
21.6589
14.5912
22.2769
15.5619
22.9057
16.5283
23.5436
17.4882
24.1893
18.4393
24.841
19.3794
25.4975
20.3063
26.1572
21.2178
26.8187
22.1119
27.4808
22.9868
28.1421
23.841
28.8019
24.6738
29.4595
25.4857
30.1149
30.7714
26.2964
0.802915
14.344
1.62272
14.6028
2.45935
14.8979
3.31267
15.2278
4.18236
15.591
5.06785
15.9861
5.96836
16.4114
6.88291
16.8653
7.81032
17.3458
8.74922
17.8511
9.69808
18.3795
10.6552
18.9291
11.6188
19.4982
12.5869
20.0853
13.5573
20.6885
14.5278
21.3064
15.4963
21.9372
16.4603
22.5796
17.4175
23.232
18.3656
23.893
19.3021
24.561
20.2247
25.2346
21.1311
25.9123
22.019
26.5928
22.8864
27.2747
23.7315
27.9568
24.5531
28.638
25.3504
29.3176
29.9958
26.126
0.796654
13.5473
1.60986
13.7896
2.43967
14.0681
3.28609
14.3813
4.14891
14.7282
5.02768
15.1073
5.92172
15.5174
6.83013
15.9569
7.7518
16.4241
8.68541
16.9175
9.62946
17.4354
10.5823
17.9763
11.542
18.5385
12.5066
19.1206
13.474
19.7212
14.4418
20.3386
15.4076
20.9714
16.369
21.6182
17.3235
22.2775
18.2685
22.948
19.2015
23.628
20.1197
24.3163
21.0209
25.0112
21.9024
25.7113
22.7619
26.4152
23.5975
27.1212
24.4073
27.8282
25.1902
28.5348
29.2399
25.9461
0.788589
12.7587
1.59334
12.9848
2.41446
13.247
3.25212
13.5437
4.10624
13.874
4.9765
14.237
5.86235
14.6316
6.76297
15.0563
7.67736
15.5097
8.60427
15.9906
9.54222
16.4975
10.4895
17.029
11.4443
17.5837
12.4046
18.1604
13.3682
18.7576
14.3327
19.3741
15.2957
20.0084
16.2545
20.6594
17.2064
21.3256
18.1487
22.0057
19.0785
22.6983
19.9929
23.4018
20.8892
24.1149
21.7646
24.8359
22.6166
25.5632
23.4426
26.2952
24.2406
27.0302
25.0088
27.7665
28.5026
25.7461
0.778726
11.98
1.57319
12.1904
2.38376
12.4364
3.21078
12.7167
4.05435
13.0305
4.91428
13.3771
5.79015
13.7557
6.68128
14.1651
7.58676
14.6043
8.50542
15.072
9.43588
15.567
10.3765
16.0883
11.3255
16.6347
12.2809
17.205
13.2403
17.7982
14.2014
18.413
15.1615
19.0483
16.1178
19.7031
17.0675
20.3759
18.0074
21.0657
18.9346
21.7711
19.8459
22.4906
20.7381
23.2227
21.6081
23.9659
22.453
24.7183
23.2699
25.4782
24.0564
26.2437
24.8101
27.0128
27.7834
25.5293
0.767081
11.2129
1.54944
11.408
2.34763
11.6382
3.16219
11.9021
3.9934
12.1993
4.84125
12.5293
5.70544
12.8915
6.58545
13.2851
7.4805
13.7092
8.38953
14.1629
9.31126
14.6453
10.2442
15.1554
11.1865
15.6924
12.1362
16.2553
13.091
16.8434
14.0483
17.4557
15.0055
18.0912
15.9595
18.749
16.9073
19.4281
17.8456
20.1274
18.7711
20.8457
19.6801
21.5816
20.5692
22.3336
21.4349
23.1002
22.2737
23.8795
23.0824
24.6695
23.858
25.4681
24.5978
26.273
27.0817
25.2994
0.753657
10.4593
1.52212
10.6396
2.30613
10.8542
3.10645
11.1018
3.92354
11.3822
4.75758
11.6952
5.60843
12.0406
6.47573
12.4178
7.35884
12.8261
8.25686
13.2649
9.16861
13.7335
10.0927
14.2314
11.0272
14.7578
11.9704
15.3122
12.9199
15.8939
13.8731
16.5024
14.8273
17.137
15.7793
17.797
16.7259
18.4815
17.6635
19.1898
18.5883
19.9209
19.4964
20.6735
20.3838
21.4462
21.2465
22.2375
22.0806
23.0454
22.8823
23.8679
23.648
24.7024
24.3746
25.5464
26.397
25.0593
0.738437
9.72085
1.49122
9.88677
2.25927
10.0862
3.04359
10.3175
3.84485
10.5809
4.66337
10.8767
5.49922
11.2048
6.35219
11.5648
7.22181
11.9565
8.10732
12.3794
9.0077
12.8332
9.92161
13.3175
10.8475
13.8319
11.7833
14.3763
12.7269
14.9503
13.6758
15.5536
14.627
16.1858
15.5774
16.8466
16.5235
17.5355
17.4613
18.252
18.3867
18.9954
19.2955
19.7647
20.183
20.5587
21.0446
21.3759
21.8757
22.2143
22.6719
23.0716
23.4291
23.9453
24.1434
24.8321
25.7288
24.8117
0.721389
8.99946
1.45671
9.15145
2.20706
9.33581
2.97366
9.55085
3.75738
9.79719
4.55871
10.0754
5.37791
10.3856
6.21494
10.7278
7.0695
11.1019
7.94101
11.5079
8.8286
11.9456
9.73111
12.415
10.6471
12.916
11.5748
13.4486
12.512
14.013
13.4563
14.6093
14.4047
15.2374
15.3538
15.8974
16.3
16.5893
17.2392
17.3128
18.1669
18.0678
19.0781
18.8535
19.9677
19.6691
20.8304
20.5132
21.6608
21.3839
22.4535
22.2788
23.2038
23.195
23.9069
24.1289
25.0764
24.5593
0.702472
8.29698
1.41856
8.43536
2.14947
8.6049
2.89665
8.80368
3.66112
9.03271
4.44359
9.29291
5.24447
9.58472
6.06391
9.90836
6.90181
10.264
7.75776
10.6519
8.63111
11.0722
9.52089
11.5252
10.4258
12.011
11.3443
12.5302
12.2742
13.083
13.2134
13.6702
14.1587
14.2921
15.107
14.9492
16.0542
15.642
16.9962
16.3709
17.9279
17.1361
18.8439
17.9375
19.7383
18.7747
20.605
19.6465
21.4374
20.5514
22.2294
21.4869
22.9748
22.4496
23.6683
23.4354
24.4394
24.3054
0.681657
7.61533
1.37674
7.74028
2.08649
7.89515
2.81252
8.07765
3.55603
8.2892
4.31788
8.53106
5.09867
8.80392
5.89875
9.10828
6.7182
9.4446
7.55683
9.81331
8.41418
10.2149
9.28952
10.6498
10.1818
11.1188
11.0896
11.6224
12.0112
12.1615
12.9444
12.737
13.8864
13.3501
14.8339
14.0016
15.7831
14.6928
16.7293
15.4246
17.6673
16.1981
18.5909
17.0139
19.4935
17.8721
20.3678
18.7722
21.2062
19.7131
22.001
20.6921
22.7448
21.7058
23.4309
22.7493
23.8166
24.0536
0.658957
6.95637
1.33129
7.06795
2.01814
7.2083
2.72125
7.37454
3.44198
7.56847
4.18134
7.79169
4.94012
8.04515
5.71883
8.32958
6.51775
8.64567
7.33692
8.99414
8.17613
9.37568
9.03489
9.79108
9.91245
10.2412
10.8077
10.7271
11.7193
11.2499
12.6454
11.811
13.5833
12.4122
14.5299
13.055
15.4815
13.7411
16.4334
14.4728
17.3799
15.2516
18.3143
16.0794
19.2291
16.9573
20.1158
17.8855
20.9652
18.8636
21.7679
19.8894
22.5146
20.9592
23.1967
22.0672
23.2061
23.8071
0.634452
6.32192
1.28231
6.42009
1.94449
6.54612
2.62283
6.6962
3.31882
6.87248
4.03362
7.07689
4.76817
7.3106
5.52318
7.57457
6.29912
7.86973
7.09627
8.19699
7.91466
8.55728
8.75415
8.95159
9.61433
9.38103
10.4945
9.84689
11.3937
10.3507
12.3104
10.8943
13.2426
11.48
14.1874
12.1101
15.1414
12.7872
16.0997
13.5144
17.0566
14.2947
18.0051
15.131
18.9365
16.0258
19.8411
16.981
20.7079
17.9968
21.5252
19.0721
22.2811
20.2032
22.9646
21.3838
22.6044
23.5663
0.608296
5.71362
1.23
5.79839
1.86566
5.91046
2.51724
6.04462
3.18633
6.20339
3.87423
6.38899
4.58203
6.6028
5.3106
6.84599
6.06064
7.1197
6.83263
7.425
7.62693
7.76298
8.44373
8.13479
9.28306
8.5417
10.1447
8.98525
11.0281
9.46728
11.9324
9.98999
12.8563
10.5562
13.7973
11.1691
14.7523
11.8322
15.7169
12.5498
16.6854
13.3261
17.6504
14.166
18.6026
15.0736
19.5308
16.0527
20.4221
17.1056
21.262
18.2322
22.0354
19.4298
22.7276
20.6915
22.0058
23.3262
0.580698
5.13293
1.17456
5.20453
1.78177
5.30325
2.40444
5.42195
3.04426
5.56356
3.70266
5.73059
4.38086
5.9246
5.07989
6.14696
5.80064
6.39895
6.54386
6.68178
7.31021
6.99663
8.1003
7.3447
8.91461
7.72739
9.7535
8.14636
10.6171
8.60371
11.505
9.10202
12.4167
9.64451
13.3506
10.2352
14.3041
10.8787
15.2733
11.5805
16.253
12.3465
17.2356
13.1834
18.2115
14.0978
19.1683
15.096
20.0909
16.1829
20.962
17.3612
21.7622
18.6296
22.4723
19.9814
21.4031
23.0751
0.551872
4.58105
1.11618
4.64021
1.69293
4.72651
2.28444
4.83044
2.89251
4.95549
3.51864
5.10446
4.16417
5.27907
4.83031
5.48082
5.51812
5.71113
6.22865
5.97125
6.96293
6.26236
7.72196
6.58567
8.50677
6.94258
9.31829
7.33484
10.1573
7.7647
11.0243
8.23506
11.9192
8.74953
12.8416
9.3128
13.7896
9.9308
14.76
10.61
15.7484
11.3582
16.7477
12.1841
17.7481
13.0973
18.7367
14.1074
19.6964
15.2232
20.6065
16.451
21.4432
17.793
22.1809
19.2437
20.7877
22.7962
0.521981
4.05907
1.05504
4.10716
1.59933
4.18222
2.15749
4.27228
2.73134
4.38165
3.32246
4.51335
3.93231
4.66922
4.56225
4.85088
5.21358
5.0598
5.88765
5.29718
6.58586
5.56414
7.30969
5.86184
8.06068
6.1916
8.84036
6.55516
9.65018
6.95488
10.4914
7.39388
11.3647
7.87623
12.2702
8.40728
13.2072
8.99381
14.1738
9.64345
15.1664
10.3656
16.179
11.1714
17.2025
12.0738
18.2235
13.0865
19.2236
14.2231
20.179
15.4956
21.0608
16.9112
21.8358
18.4687
20.1511
22.4724
0.49111
3.56796
0.991336
3.60693
1.50141
3.67214
2.02428
3.7494
2.56176
3.84417
3.11548
3.95963
3.68704
4.09766
4.27796
4.25996
4.8898
4.44796
5.52426
4.66272
6.18312
4.90528
6.86833
5.17663
7.58191
5.47801
8.32594
5.81114
9.1024
6.17841
9.91309
6.58319
10.7593
7.03003
11.6421
7.52452
12.5621
8.07381
13.5186
8.68686
14.5095
9.37473
15.53
10.1509
16.5722
11.0316
17.6233
12.0353
18.6646
13.1819
19.6693
14.4909
20.6034
15.9771
21.4242
17.6479
19.4853
22.09
0.459318
3.10864
0.925455
3.14079
1.40002
3.19758
1.88623
3.26319
2.38581
3.34459
2.90046
3.44498
3.4319
3.56623
3.98186
3.71
4.55219
3.87763
5.14492
4.06999
5.76225
4.28796
6.4065
4.53238
7.08008
4.80443
7.78538
5.10584
8.5247
5.43909
9.30033
5.80756
10.1145
6.21586
10.9692
6.66981
11.8662
7.17686
12.806
7.74703
13.7879
8.3928
14.8091
9.12978
15.8633
9.97734
16.9395
10.9592
18.0195
12.1018
19.0749
13.4356
20.0667
14.9852
20.9404
16.7742
18.7825
21.6432
0.426747
2.6819
0.85812
2.70942
1.29661
2.75908
1.74561
2.81419
2.20666
2.88354
2.68155
2.97008
3.17214
3.07565
3.68037
3.20177
4.20839
3.34961
4.75851
3.51987
5.33324
3.71323
5.93512
3.9305
6.56676
4.17279
7.23088
4.44172
7.93025
4.73972
8.66766
5.07015
9.44599
5.43752
10.268
5.84781
11.1361
6.30876
12.0522
6.83088
13.0174
7.42767
14.0306
8.11652
15.0884
8.91955
16.182
9.86561
17.2956
10.9882
18.4
12.3311
19.4539
13.9314
20.3873
15.8407
18.035
21.1348
0.393747
2.28815
0.790456
2.31271
1.19321
2.35633
1.60537
2.40204
2.02829
2.46062
2.46385
2.53452
2.91402
2.62547
3.38096
2.73483
3.86703
2.86354
4.37467
3.01223
4.90657
3.18133
5.46555
3.37152
6.05453
3.58381
6.67644
3.8198
7.33435
4.08181
8.03138
4.37312
8.77076
4.69814
9.55577
5.0628
10.3896
5.47493
11.2754
5.94511
12.2158
6.48727
13.2122
7.12013
14.2639
7.86781
15.3654
8.7641
16.5051
9.84858
17.6545
11.1816
18.7734
12.8126
19.7732
14.841
17.2333
20.5748
0.360921
1.92723
0.723902
1.94973
1.09214
1.98808
1.46876
2.02543
1.85493
2.07445
2.25262
2.13684
2.66388
2.2142
3.09095
2.30776
3.5363
2.41819
4.0026
2.54593
4.4927
2.69122
5.00957
2.85465
5.5562
3.03718
6.13565
3.24035
6.75112
3.46635
7.40594
3.7183
8.10364
4.00045
8.84794
4.31851
9.64275
4.68012
10.4922
5.09566
11.4005
5.57894
12.3713
6.14933
13.4073
6.8319
14.5064
7.66493
15.6633
8.6917
16.8517
9.9932
18.0381
11.6262
19.1117
13.7673
16.3624
19.9827
0.329048
1.59818
0.659967
1.61881
0.995662
1.65239
1.33879
1.6823
1.6904
1.72284
2.05247
1.77477
2.42708
1.83959
2.81655
1.91829
3.22347
2.01128
3.65058
2.11881
4.10073
2.24107
4.57685
2.37853
5.08194
2.53209
5.61912
2.70317
6.19163
2.89383
6.80296
3.10698
7.45685
3.34655
8.15744
3.61792
8.90927
3.92829
9.71734
4.28758
10.5872
4.70903
11.5246
5.21193
12.5357
5.82085
13.6225
6.57811
14.7876
7.52664
16.0079
8.77285
17.265
10.3691
18.4244
12.608
15.3964
19.3904
0.298911
1.29927
0.599946
1.31777
0.905585
1.34675
1.21776
1.37012
1.53748
1.40312
1.86672
1.44553
2.20757
1.49874
2.56238
1.56348
2.9337
1.63996
3.32421
1.7283
3.73667
1.82862
4.1739
1.9413
4.63883
2.06716
5.13452
2.20748
5.66423
2.36412
6.2315
2.53971
6.84026
2.73779
7.49495
2.96323
8.20067
3.22257
8.96324
3.52501
9.78949
3.88279
10.6871
4.31432
11.6657
4.84228
12.7314
5.51237
13.8964
6.36161
15.1431
7.52615
16.4767
9.03552
17.7461
11.3385
14.288
18.8546
0.27111
1.02816
0.544715
1.04417
0.823053
1.06841
1.10704
1.08614
1.3978
1.11236
1.69726
1.14606
2.00748
1.18852
2.33075
1.24021
2.66949
1.30121
3.02625
1.37154
3.40362
1.45125
3.80425
1.54067
4.23093
1.64049
4.68658
1.75183
5.17439
1.87631
5.69791
2.01619
6.26116
2.17454
6.86883
2.35556
7.52644
2.56496
8.24059
2.81086
9.01931
3.10406
9.87214
3.46149
10.8118
3.90259
11.8495
4.4747
13.0073
5.2038
14.279
6.25444
15.6964
7.6181
17.1262
9.90874
12.9556
18.4586
0.245989
0.782171
0.494665
0.795494
0.748498
0.81458
1.00704
0.827592
1.27176
0.847645
1.54446
0.873364
1.82711
0.905873
2.12188
0.94544
2.43105
0.992042
2.75695
1.04563
3.10198
1.10623
3.46855
1.17409
3.85925
1.24979
4.27683
1.33424
4.72436
1.42879
5.20529
1.53525
5.72368
1.65615
6.28433
1.79491
6.89308
1.9562
7.55717
2.14677
8.28566
2.37558
9.08984
2.65731
9.98495
3.00748
10.9885
3.47113
12.1305
4.06186
13.4288
4.95607
14.9336
6.11333
16.623
8.21936
11.2856
18.293
0.223716
0.558455
0.449766
0.569445
0.681733
0.582613
0.917418
0.591907
1.15881
0.606251
1.40752
0.624658
1.66541
0.647985
1.9345
0.676346
2.21688
0.709659
2.51467
0.747847
2.83
0.790906
3.16506
0.839029
3.5222
0.892652
3.90396
0.95248
4.31323
1.01952
4.75333
1.09515
5.22823
1.18126
5.74273
1.28041
6.3028
1.39613
6.91604
1.53353
7.59223
1.69939
8.34426
1.90527
9.18891
2.16283
10.1504
2.50959
11.2625
2.94977
12.5779
3.64066
14.1586
4.53266
16.216
6.162
9.14773
18.3539
0.204373
0.354081
0.409613
0.364205
0.622109
0.370117
0.837218
0.376798
1.05769
0.385778
1.28485
0.397497
1.52047
0.412372
1.76638
0.430427
2.02448
0.451563
2.29663
0.475701
2.5847
0.502829
2.89066
0.533073
3.21658
0.566729
3.56479
0.604269
3.93795
0.64636
4.33919
0.693913
4.77229
0.748161
5.24191
0.81079
5.75393
0.88411
6.31598
0.971471
6.938
1.07738
7.63375
1.20952
8.42097
1.37561
9.3284
1.60217
10.3908
1.88737
11.6847
2.34673
13.3005
2.91688
15.6589
3.80362
6.51915
18.2875
0.187662
0.166419
0.373492
0.178376
0.568733
0.174876
0.765164
0.180367
0.966759
0.184182
1.17444
0.189812
1.3899
0.196913
1.6148
0.205527
1.8508
0.215571
2.0995
0.226997
2.36254
0.239791
2.64159
0.254017
2.9385
0.269821
3.25533
0.287438
3.5945
0.307196
3.95887
0.329538
4.35197
0.355061
4.77819
0.384576
5.24309
0.41921
5.75401
0.460548
6.32054
0.510851
6.95636
0.5737
7.67905
0.652922
8.51897
0.762249
9.50889
0.897451
10.7318
1.12383
12.2701
1.37856
14.6224
1.45135
3.61956
17.522
0.166419
0.344795
0.519671
0.700037
0.884219
1.07403
1.27094
1.47647
1.69204
1.91904
2.15883
2.41285
2.68267
2.97011
3.2773
3.60684
3.9619
4.34648
4.76569
5.22623
5.73709
6.31079
6.96371
7.72596
8.62341
9.74723
11.1258
12.5771
16.1967
1.12443
54.1298
1.13579
54.1289
1.13961
54.1364
1.13402
54.1458
1.13332
54.1409
1.14664
54.1269
1.16149
54.1254
1.16036
54.1414
1.14362
54.157
1.12814
54.1557
1.13106
54.1373
1.14299
54.1283
1.13791
54.1453
1.11008
54.1681
1.08446
54.1659
1.08685
54.1378
1.10784
54.1192
1.12485
54.1232
1.13203
54.1331
1.14639
54.1259
1.18404
54.1026
1.22996
54.0943
1.26643
54.1038
1.28245
54.1242
1.29042
54.1323
1.29446
54.1362
1.29585
54.1388
1.30582
54.1303
1.33469
54.1114
1.37217
54.1028
1.4097
54.1027
1.42442
54.1255
1.42623
54.1384
1.429
54.1375
1.43267
54.1366
1.43679
54.1361
1.44129
54.1357
1.44602
54.1355
1.45093
54.1353
1.45594
54.1352
1.46077
54.1354
1.46495
54.1361
1.46791
54.1373
1.46965
54.1385
1.47046
54.1394
1.47079
54.1399
1.47095
54.1401
1.47118
54.14
1.47114
54.1403
1.47098
54.1404
1.47057
54.1406
1.46995
54.1408
1.46881
54.1414
1.4671
54.1419
1.4649
54.1424
1.46212
54.143
1.45844
54.1439
1.45418
54.1445
1.44899
54.1454
1.44326
54.146
1.43674
54.1468
1.42954
54.1474
1.42172
54.1481
1.4131
54.1489
1.40392
54.1494
1.39405
54.1501
1.3833
54.151
1.37171
54.1518
1.35944
54.1525
1.34658
54.1531
1.33344
54.1534
1.31943
54.1542
1.30413
54.1555
1.28918
54.1552
1.27291
54.1565
1.25584
54.1573
1.24014
54.1559
1.223
54.1574
1.20582
54.1574
1.19199
54.1541
1.1735
54.1587
1.15415
54.1596
1.13402
54.1604
1.11103
54.1632
1.08725
54.164
1.06523
54.1622
1.04947
54.156
1.03188
54.1578
1.01182
54.1603
0.988977
54.1631
0.963963
54.1652
0.939284
54.1649
0.915066
54.1645
0.890971
54.1643
0.866789
54.1644
0.842796
54.1642
0.818204
54.1648
0.793993
54.1644
0.769432
54.1648
0.744837
54.1648
0.720194
54.1649
0.695433
54.165
0.670655
54.165
0.645753
54.1651
0.620988
54.165
0.596116
54.1651
0.571582
54.1648
0.546871
54.1649
0.522431
54.1647
0.498102
54.1646
0.474095
54.1642
0.450212
54.1641
0.426769
54.1637
0.40344
54.1636
0.380383
54.1633
0.357495
54.1631
0.334716
54.163
0.312105
54.1628
0.289337
54.163
0.266537
54.163
0.243512
54.1633
0.220455
54.1633