/*--------------------------------*- C++ -*----------------------------------*\
| =========                 |                                                 |
| \\      /  F ield         | OpenFOAM: The Open Source CFD Toolbox           |
|  \\    /   O peration     | Version:  5.x                                   |
|   \\  /    A nd           | Web:      www.OpenFOAM.org                      |
|    \\/     M anipulation  |                                                 |
\*---------------------------------------------------------------------------*/
/*   Windows 32 and 64 bit porting by blueCAPE: http://www.bluecape.com.pt   *\
|  Based on Windows porting (2.0.x v4) by Symscape: http://www.symscape.com   |
\*---------------------------------------------------------------------------*/
FoamFile
{
    version     2.0;
    format      ascii;
    class       volVectorField;
    location    "320";
    object      U;
}
// * * * * * * * * * * * * * * * * * * * * * * * * * * * * * * * * * * * * * //

dimensions      [0 1 -1 0 0 0 0];

internalField   nonuniform List<vector> 
43900
(
(1.16163 -0.000736549 -1.61916e-027)
(1.16714 0.00217716 -4.33908e-027)
(1.16973 0.000362728 1.43782e-030)
(1.16838 0.00182474 2.80766e-030)
(1.16974 0.000794984 3.65102e-030)
(1.16992 0.00198141 3.66663e-030)
(1.17012 0.00117892 5.79274e-027)
(1.17052 0.00185991 -1.15653e-026)
(1.17042 0.00163987 9.68386e-030)
(1.17007 0.00178415 -1.15365e-026)
(1.17004 0.00190095 1.15587e-026)
(1.17014 0.00193646 1.15603e-029)
(1.17006 0.00197712 -1.15005e-026)
(1.16996 0.00202089 2.49897e-029)
(1.17008 0.00209853 2.55977e-029)
(1.17015 0.00210034 2.62822e-029)
(1.16994 0.00216111 -2.28943e-026)
(1.16978 0.00220663 5.49908e-029)
(1.16984 0.00221373 2.29217e-026)
(1.1699 0.00227745 2.85309e-029)
(1.17004 0.00227877 2.90305e-029)
(1.17004 0.0023212 2.94829e-029)
(1.16989 0.00235934 2.98814e-029)
(1.16994 0.00235693 3.03026e-029)
(1.16995 0.00241424 3.06389e-029)
(1.16995 0.00242032 -2.26257e-026)
(1.17004 0.00243073 6.27346e-029)
(1.17002 0.00248073 6.32503e-029)
(1.16994 0.00246527 9.03048e-026)
(1.1587 0.0114638 0)
(1.16551 -0.00497965 0)
(1.17145 0.00906983 0)
(1.16661 -0.000179694 0)
(1.16847 0.00620403 0)
(1.16803 0.00275074 0)
(1.16839 0.00491901 0)
(1.16774 0.00465257 0)
(1.16819 0.00464336 0)
(1.1686 0.00535046 0)
(1.1686 0.00533754 0)
(1.16877 0.00553728 0)
(1.16902 0.00585198 0)
(1.16914 0.00608283 0)
(1.16919 0.00617477 0)
(1.169 0.00642069 0)
(1.16909 0.00657398 0)
(1.16952 0.00667551 0)
(1.16948 0.00687152 0)
(1.16941 0.00694056 0)
(1.16932 0.00709616 0)
(1.16924 0.0072357 0)
(1.16949 0.00728363 0)
(1.1695 0.00745096 0)
(1.16939 0.0074908 0)
(1.16951 0.00755535 0)
(1.1695 0.00770676 0)
(1.16942 0.00771981 0)
(1.16955 0.00784629 0)
(1.10201 0.0321392 0)
(1.14469 -0.0175729 0)
(1.16303 0.0288254 0)
(1.16317 -0.00367064 0)
(1.1663 0.0209198 0)
(1.16423 0.00403193 0)
(1.16575 0.0150709 0)
(1.16646 0.00843445 0)
(1.16659 0.0119016 0)
(1.16653 0.0106581 0)
(1.16671 0.0108229 0)
(1.1667 0.0111692 0)
(1.16681 0.011181 0)
(1.16718 0.0112345 0)
(1.16718 0.0114502 0)
(1.16733 0.0115524 0)
(1.16779 0.0116503 0)
(1.16768 0.0118612 0)
(1.16756 0.0119412 0)
(1.16781 0.0120956 0)
(1.16785 0.0122763 0)
(1.16797 0.0123151 0)
(1.16802 0.0125095 0)
(1.16813 0.0126045 0)
(1.16844 0.0127294 0)
(1.16841 0.012985 0)
(1.16811 0.0130286 0)
(1.16816 0.0131846 0)
(1.16836 0.0133046 1.58869e-027)
(1.04068 0.0199846 0)
(1.08655 -0.00670961 0)
(1.12947 0.020115 0)
(1.15547 0.00820798 0)
(1.16319 0.0222674 0)
(1.16587 0.0107691 0)
(1.16463 0.0206037 0)
(1.16343 0.01368 0)
(1.16448 0.018168 0)
(1.16463 0.0157827 0)
(1.16472 0.0168816 0)
(1.165 0.0165801 0)
(1.16512 0.0165983 0)
(1.16508 0.016654 0)
(1.16538 0.0166396 0)
(1.16569 0.0167183 0)
(1.16548 0.0167918 0)
(1.16554 0.0167763 0)
(1.16608 0.0168827 0)
(1.1661 0.0170245 0)
(1.16616 0.0169975 0)
(1.16641 0.0171952 0)
(1.16649 0.0173 0)
(1.16618 0.0173839 0)
(1.16577 0.0175612 0)
(1.16582 0.0175497 0)
(1.16646 0.0176497 0)
(1.16706 0.0177925 0)
(1.16692 0.0178922 1.6943e-027)
(1.00338 0.0101876 3.39491e-027)
(1.03888 -0.00090077 0)
(1.07573 0.0108269 0)
(1.114 0.0129049 0)
(1.14434 0.0183206 0)
(1.15995 0.0173653 0)
(1.16325 0.0228492 0)
(1.16431 0.0185751 0)
(1.16338 0.0217046 0)
(1.16367 0.0203755 0)
(1.16381 0.0208218 0)
(1.16364 0.0211584 0)
(1.16383 0.0210593 0)
(1.164 0.0211615 0)
(1.16376 0.0213058 0)
(1.16385 0.0213923 0)
(1.16432 0.0214728 0)
(1.16439 0.0216852 0)
(1.16394 0.0218002 0)
(1.16399 0.0217896 0)
(1.16416 0.0220552 0)
(1.16396 0.0221574 0)
(1.16379 0.022202 0)
(1.16434 0.0224001 0)
(1.16539 0.0224321 0)
(1.16569 0.0225962 0)
(1.16531 0.0228328 0)
(1.16428 0.0229593 0)
(1.16414 0.0231079 -7.13314e-027)
(0.976057 0.00684893 -3.54308e-027)
(1.00593 0.000676661 0)
(1.03716 0.00760795 0)
(1.06956 0.0110566 0)
(1.10201 0.0149326 0)
(1.13234 0.018244 0)
(1.15269 0.0222017 0)
(1.16097 0.0223341 0)
(1.16223 0.0246249 0)
(1.162 0.0230869 0)
(1.16223 0.024482 0)
(1.16249 0.0243347 0)
(1.16226 0.0246338 0)
(1.16233 0.0248871 0)
(1.16257 0.025123 0)
(1.16232 0.0253761 0)
(1.16196 0.0256156 0)
(1.16215 0.0258466 0)
(1.16282 0.0260334 0)
(1.16278 0.026464 0)
(1.16242 0.0265734 0)
(1.16276 0.026677 0)
(1.16348 0.0270897 0)
(1.16343 0.0271902 0)
(1.16251 0.0274946 0)
(1.16187 0.027838 0)
(1.16191 0.0279387 0)
(1.16311 0.0281753 0)
(1.1642 0.0283901 3.77554e-027)
(0.952868 0.00527797 0)
(0.979188 0.00143187 0)
(1.00676 0.00645303 0)
(1.0354 0.00967959 0)
(1.06452 0.0130143 0)
(1.09344 0.0166474 0)
(1.1215 0.0204142 0)
(1.14482 0.0233088 0)
(1.1564 0.0259917 0)
(1.15962 0.0265331 0)
(1.15951 0.0264932 0)
(1.15943 0.0274452 0)
(1.15987 0.0275509 0)
(1.1596 0.0280455 0)
(1.15942 0.0283959 0)
(1.15993 0.0287401 0)
(1.1599 0.0292078 0)
(1.15957 0.0294014 0)
(1.15924 0.0299076 0)
(1.15941 0.0300513 0)
(1.1602 0.0304754 0)
(1.16022 0.0310123 0)
(1.15939 0.0311761 0)
(1.15903 0.0315326 0)
(1.15957 0.0319335 0)
(1.16076 0.032129 0)
(1.16133 0.0324608 0)
(1.16105 0.032732 0)
(1.15966 0.0330215 0)
(0.931719 0.00444174 0)
(0.955682 0.00189619 0)
(0.980802 0.00601825 0)
(1.00691 0.0090742 0)
(1.03362 0.0121233 0)
(1.06051 0.0154227 0)
(1.08707 0.0189735 0)
(1.11252 0.022546 0)
(1.13574 0.0258732 0)
(1.15048 0.028274 0)
(1.15558 0.030078 0)
(1.1557 0.0298412 0)
(1.1554 0.030719 0)
(1.15589 0.0311018 0)
(1.15592 0.0317734 0)
(1.15544 0.0321926 0)
(1.15603 0.0326243 0)
(1.1564 0.0332984 0)
(1.15636 0.0335872 0)
(1.15638 0.0341874 0)
(1.15592 0.0346606 0)
(1.15582 0.0349042 0)
(1.15665 0.0355257 0)
(1.15753 0.0361085 0)
(1.15776 0.0363226 0)
(1.15665 0.0368077 0)
(1.15615 0.0373147 0)
(1.15644 0.0377416 0)
(1.15802 0.0383585 0)
(0.911787 0.00387005 0)
(0.933994 0.00230897 0)
(0.957274 0.00592434 0)
(0.981477 0.00891422 0)
(1.00632 0.0118621 0)
(1.03149 0.0149837 0)
(1.05663 0.0183132 0)
(1.08131 0.0217968 0)
(1.105 0.0253398 0)
(1.12701 0.0286254 0)
(1.14372 0.0314506 0)
(1.15038 0.033534 0)
(1.1508 0.033586 0)
(1.15045 0.0344556 0)
(1.15084 0.0350969 0)
(1.15133 0.035795 0)
(1.15074 0.0363893 0)
(1.15109 0.0368534 0)
(1.15194 0.0377539 0)
(1.15183 0.0381164 0)
(1.15191 0.0387724 0)
(1.15258 0.0394781 0)
(1.15233 0.0399239 0)
(1.15156 0.0403758 0)
(1.15169 0.0411524 0)
(1.15338 0.0417269 0)
(1.154 0.0424119 0)
(1.15373 0.0426934 0)
(1.15237 0.043176 0)
(0.8924 0.00337291 0)
(0.913285 0.0027224 0)
(0.935174 0.00603497 0)
(0.957927 0.00901888 0)
(0.981314 0.0119518 0)
(1.00509 0.0150112 0)
(1.02898 0.0182403 0)
(1.05269 0.0216133 0)
(1.07588 0.0250947 0)
(1.09814 0.028617 0)
(1.1188 0.0319735 0)
(1.13641 0.0349535 0)
(1.14428 0.0374395 0)
(1.14506 0.0377285 0)
(1.14486 0.0387392 0)
(1.14488 0.0394785 0)
(1.14584 0.0401696 0)
(1.14563 0.040993 0)
(1.14527 0.0416274 0)
(1.14603 0.0424955 0)
(1.14698 0.0432684 0)
(1.14637 0.0439359 0)
(1.14641 0.0446897 0)
(1.14775 0.0455095 0)
(1.14793 0.0461241 0)
(1.14677 0.0466503 0)
(1.14653 0.0473785 0)
(1.14751 0.0480863 0)
(1.14984 0.0489878 -9.97436e-027)
(0.873243 0.00321236 0)
(0.893047 0.0030361 0)
(0.913837 0.00629635 0)
(0.935455 0.00934197 0)
(0.957702 0.0123281 0)
(0.980365 0.0154122 0)
(1.00322 0.0186401 0)
(1.02603 0.021994 0)
(1.04855 0.0254491 0)
(1.07048 0.0289797 0)
(1.09142 0.0325335 0)
(1.11078 0.0359524 0)
(1.1282 0.0390655 0)
(1.13751 0.0418389 0)
(1.13845 0.0423137 0)
(1.13865 0.0435736 0)
(1.13839 0.0443764 0)
(1.13929 0.0450214 0)
(1.13975 0.0464013 0)
(1.13941 0.0467437 0)
(1.13908 0.0479429 0)
(1.14036 0.0487469 0)
(1.14114 0.0495843 0)
(1.14049 0.0503334 0)
(1.14079 0.0512221 0)
(1.14269 0.0519792 0)
(1.14352 0.0530766 0)
(1.14285 0.0534118 0)
(1.14164 0.0540634 1.05201e-026)
(0.854123 0.00317471 0)
(0.872998 0.00334702 0)
(0.892839 0.00666377 0)
(0.9135 0.00982967 0)
(0.934801 0.0129307 0)
(0.956553 0.0161127 0)
(0.978559 0.0194214 0)
(1.00062 0.0228429 0)
(1.02252 0.0263557 0)
(1.04405 0.0299396 0)
(1.06494 0.0335684 0)
(1.08487 0.0371903 0)
(1.10338 0.0406758 0)
(1.1202 0.0439179 0)
(1.1302 0.046805 0)
(1.1311 0.0477338 0)
(1.13196 0.0490044 0)
(1.13123 0.0499668 0)
(1.1322 0.0507261 0)
(1.13248 0.05221 0)
(1.13346 0.0530032 0)
(1.13302 0.0537164 0)
(1.13342 0.0548891 0)
(1.13512 0.0559399 0)
(1.13524 0.0568333 0)
(1.13419 0.0576775 0)
(1.13458 0.0587798 0)
(1.13681 0.0594759 0)
(1.13874 0.061238 1.15615e-026)
(0.834778 0.00310302 0)
(0.85285 0.00371019 0)
(0.871872 0.00711797 0)
(0.891709 0.0104402 0)
(0.912195 0.0137034 0)
(0.933162 0.0170376 0)
(0.954435 0.020488 0)
(0.975835 0.0240431 0)
(0.997185 0.0276846 0)
(1.0183 0.0313955 0)
(1.03899 0.0351566 0)
(1.05904 0.0389413 0)
(1.07814 0.0427012 0)
(1.09592 0.0463259 0)
(1.11214 0.049723 0)
(1.1224 0.0527796 0)
(1.12296 0.0540966 0)
(1.12425 0.0552151 0)
(1.12372 0.056725 0)
(1.12517 0.0574029 0)
(1.1253 0.0592374 0)
(1.12666 0.0601364 0)
(1.12655 0.061286 0)
(1.12604 0.0625709 0)
(1.12705 0.0634706 0)
(1.12916 0.0649061 0)
(1.12952 0.0660568 0)
(1.12859 0.0664751 0)
(1.1285 0.0676271 -1.22013e-026)
(0.815177 0.00308685 0)
(0.832508 0.00408603 0)
(0.85078 0.00763342 0)
(0.869876 0.0111422 0)
(0.889639 0.0145991 0)
(0.909907 0.0181207 0)
(0.930524 0.0217509 0)
(0.951331 0.0254804 0)
(0.972169 0.0292928 0)
(0.992879 0.0331736 0)
(1.0133 0.037107 0)
(1.03326 0.0410734 0)
(1.05256 0.0450469 0)
(1.07093 0.0489797 0)
(1.08804 0.0527554 0)
(1.10378 0.0563298 0)
(1.11402 0.0596743 0)
(1.1141 0.0609253 0)
(1.11572 0.0622977 0)
(1.11542 0.0639966 0)
(1.11663 0.0649063 0)
(1.11706 0.0666863 0)
(1.11757 0.0678425 0)
(1.11937 0.0694213 0)
(1.11891 0.070476 0)
(1.11924 0.0713925 0)
(1.12056 0.0730581 0)
(1.1229 0.0742565 0)
(1.12415 0.076017 -1.34382e-026)
(0.795264 0.00312399 0)
(0.811916 0.00448298 0)
(0.829503 0.00822081 0)
(0.847914 0.0119493 0)
(0.867021 0.0156342 0)
(0.886664 0.0193814 0)
(0.906691 0.0232315 0)
(0.926962 0.027178 0)
(0.947332 0.0312058 0)
(0.967659 0.0353019 0)
(0.987801 0.0394527 0)
(1.00761 0.0436419 0)
(1.02694 0.0478493 0)
(1.0456 0.0520483 0)
(1.06336 0.0561898 0)
(1.07989 0.0601441 0)
(1.09521 0.0639953 0)
(1.10522 0.0674586 0)
(1.10523 0.0688958 0)
(1.10674 0.0704913 0)
(1.107 0.0724508 0)
(1.10777 0.0735377 0)
(1.10902 0.0750883 0)
(1.10969 0.0771527 0)
(1.11144 0.0778148 0)
(1.11283 0.0800589 0)
(1.11302 0.0811674 0)
(1.11302 0.0819351 0)
(1.1147 0.0836886 1.42149e-026)
(0.774926 0.00321183 0)
(0.790939 0.00490876 0)
(0.807888 0.0088857 0)
(0.825663 0.0128729 0)
(0.844145 0.0168213 0)
(0.863203 0.0208341 0)
(0.882686 0.0249496 0)
(0.902452 0.0291594 0)
(0.922373 0.0334516 0)
(0.942321 0.0378142 0)
(0.962169 0.0422357 0)
(0.981791 0.0467023 0)
(1.00106 0.0511971 0)
(1.01983 0.0556999 0)
(1.03793 0.0601835 0)
(1.05516 0.0645942 0)
(1.07124 0.0688171 0)
(1.08623 0.0729511 0)
(1.09581 0.0766137 0)
(1.09614 0.0783273 0)
(1.09703 0.0799238 0)
(1.0989 0.08235 0)
(1.09949 0.083306 0)
(1.10114 0.0850397 0)
(1.10146 0.0872033 0)
(1.10355 0.088008 0)
(1.10453 0.0901623 0)
(1.10632 0.0921903 0)
(1.1061 0.0932031 0)
(0.754136 0.00333321 0)
(0.769537 0.00534906 0)
(0.785877 0.00959461 0)
(0.803052 0.0138654 0)
(0.820943 0.0180992 0)
(0.839432 0.0223975 0)
(0.858394 0.0268009 0)
(0.877684 0.0312998 0)
(0.897174 0.03588 0)
(0.916747 0.0405317 0)
(0.936286 0.0452433 0)
(0.95568 0.0500024 0)
(0.974815 0.0547939 0)
(0.993575 0.0596002 0)
(1.01183 0.0644004 0)
(1.02943 0.0691648 0)
(1.0462 0.0738334 0)
(1.06192 0.0783003 0)
(1.07657 0.0827011 0)
(1.08527 0.086525 0)
(1.08632 0.088224 0)
(1.08715 0.0903461 0)
(1.08965 0.0918587 0)
(1.09019 0.0946898 0)
(1.09197 0.0952573 0)
(1.09234 0.0983351 0)
(1.09356 0.0994262 0)
(1.09643 0.100486 0)
(1.09805 0.103553 0)
(0.732941 0.00348633 0)
(0.747751 0.00580779 0)
(0.763506 0.0103493 0)
(0.780109 0.0149264 0)
(0.797445 0.019469 0)
(0.815397 0.0240748 0)
(0.83385 0.0287853 0)
(0.852683 0.0335939 0)
(0.871768 0.0384853 0)
(0.890993 0.0434484 0)
(0.910249 0.0484727 0)
(0.92943 0.0535456 0)
(0.948437 0.0586528 0)
(0.967167 0.0637779 0)
(0.985515 0.0689018 0)
(1.00337 0.0740026 0)
(1.02059 0.0790476 0)
(1.03703 0.083973 0)
(1.05254 0.0886986 0)
(1.06695 0.0933795 0)
(1.07514 0.0972001 0)
(1.0771 0.0992977 0)
(1.07737 0.101692 0)
(1.07978 0.103172 0)
(1.0806 0.106663 0)
(1.08321 0.107517 0)
(1.08446 0.110118 0)
(1.08509 0.113147 0)
(1.08743 0.113174 0)
(0.711334 0.0036711 4.09151e-026)
(0.725568 0.00629286 0)
(0.740755 0.0111607 0)
(0.756804 0.016072 0)
(0.773608 0.0209509 0)
(0.791053 0.0258952 0)
(0.809027 0.0309456 0)
(0.827419 0.0360963 0)
(0.846109 0.0413325 0)
(0.864986 0.0466422 0)
(0.883953 0.0520167 0)
(0.902915 0.0574436 0)
(0.921777 0.0629099 0)
(0.940449 0.0684007 0)
(0.95884 0.0738991 0)
(0.976855 0.0793863 0)
(0.994391 0.08484 0)
(1.01133 0.0902271 0)
(1.02756 0.0954819 0)
(1.04303 0.10057 0)
(1.05746 0.105501 0)
(1.06476 0.109692 0)
(1.06724 0.11174 0)
(1.06761 0.114975 0)
(1.07037 0.115945 0)
(1.07152 0.119488 0)
(1.07426 0.12084 0)
(1.07744 0.12263 0)
(1.07731 0.126385 0)
(0.689328 0.00388033 1.33786e-027)
(0.702995 0.00679925 0)
(0.717625 0.0120174 0)
(0.73313 0.017285 0)
(0.749409 0.0225211 0)
(0.766355 0.0278257 0)
(0.783859 0.033239 0)
(0.801817 0.0387556 0)
(0.820124 0.0443621 0)
(0.83867 0.0500456 0)
(0.857354 0.0557951 0)
(0.876088 0.0616003 0)
(0.894785 0.0674485 0)
(0.913363 0.0733256 0)
(0.93174 0.0792161 0)
(0.949836 0.0851027 0)
(0.967564 0.090966 0)
(0.984832 0.096783 0)
(1.00155 0.102518 0)
(1.01763 0.108106 0)
(1.03317 0.113506 0)
(1.04724 0.118852 0)
(1.05378 0.122799 0)
(1.05677 0.125288 0)
(1.05804 0.128397 0)
(1.06135 0.129608 0)
(1.06238 0.133259 0)
(1.06541 0.13526 0)
(1.06972 0.136441 0)
(0.666962 0.00411285 -4.72179e-026)
(0.680072 0.00732944 0)
(0.694155 0.0129211 0)
(0.709128 0.0185668 0)
(0.724896 0.0241811 0)
(0.741357 0.029867 0)
(0.758408 0.0356663 0)
(0.775944 0.0415713 0)
(0.793866 0.0475691 0)
(0.812075 0.053648 0)
(0.830475 0.0597964 0)
(0.848981 0.0660035 0)
(0.867509 0.0722564 0)
(0.885984 0.0785415 0)
(0.90433 0.0848442 0)
(0.922475 0.091148 0)
(0.940344 0.0974351 0)
(0.957861 0.103686 0)
(0.974947 0.109877 0)
(0.991529 0.115974 0)
(1.00757 0.121907 0)
(1.02318 0.127694 0)
(1.03761 0.133494 0)
(1.04328 0.137173 0)
(1.04731 0.139801 0)
(1.04915 0.143611 0)
(1.05306 0.144816 0)
(1.05375 0.148499 0)
(1.05677 0.151345 0)
(0.644264 0.00436553 0)
(0.656822 0.00788357 0)
(0.670365 0.0138713 0)
(0.684812 0.0199165 0)
(0.700074 0.0259302 0)
(0.716055 0.0320193 0)
(0.732656 0.038227 0)
(0.749777 0.0445448 0)
(0.767324 0.0509591 0)
(0.785207 0.057459 0)
(0.80333 0.0640325 0)
(0.821607 0.0706671 0)
(0.839963 0.0773516 0)
(0.858323 0.0840722 0)
(0.876618 0.0908145 0)
(0.894781 0.0975632 0)
(0.912746 0.104302 0)
(0.930447 0.111012 0)
(0.947815 0.117675 0)
(0.964783 0.12427 0)
(0.981291 0.130767 0)
(0.997301 0.13704 0)
(1.0135 0.143335 0)
(1.02828 0.149553 0)
(1.03361 0.152897 0)
(1.03788 0.156138 0)
(1.04037 0.159858 0)
(1.04386 0.161166 0)
(1.04565 0.164331 0)
(0.621273 0.00463633 -5.76637e-026)
(0.633287 0.00846076 0)
(0.646294 0.0148652 0)
(0.660223 0.0213294 0)
(0.674987 0.0277614 0)
(0.690496 0.034273 0)
(0.706655 0.0409087 0)
(0.723371 0.04766 0)
(0.740548 0.0545112 0)
(0.758099 0.0614512 0)
(0.775939 0.0684687 0)
(0.793984 0.0755511 0)
(0.81216 0.082686 0)
(0.830397 0.0898594 0)
(0.848629 0.0970569 0)
(0.866791 0.104263 0)
(0.884823 0.111463 0)
(0.902664 0.118637 0)
(0.920256 0.125768 0)
(0.937538 0.132836 0)
(0.954451 0.139819 0)
(0.97096 0.14668 0)
(0.987103 0.153281 0)
(1.00375 0.160098 0)
(1.01917 0.16641 0)
(1.02435 0.170126 0)
(1.02838 0.173484 0)
(1.0314 0.177195 0)
(1.03553 0.179254 5.44733e-026)
(0.598036 0.00492387 -1.63612e-027)
(0.609508 0.00906065 0)
(0.621987 0.0159018 0)
(0.635401 0.0228042 0)
(0.649671 0.0296736 0)
(0.664711 0.0366273 0)
(0.680431 0.0437114 0)
(0.696742 0.0509167 0)
(0.713553 0.0582267 0)
(0.730782 0.0656298 0)
(0.748347 0.0731148 0)
(0.766168 0.0806679 0)
(0.78417 0.0882751 0)
(0.802285 0.0959233 0)
(0.82045 0.103597 0)
(0.838605 0.111282 0)
(0.856693 0.118961 0)
(0.874657 0.126617 0)
(0.892445 0.134232 0)
(0.910003 0.141787 0)
(0.927281 0.149264 0)
(0.944241 0.156641 0)
(0.960876 0.163877 0)
(0.97721 0.170923 0)
(0.994665 0.178134 0)
(1.00979 0.184816 0)
(1.01621 0.189151 0)
(1.01935 0.191878 0)
(1.02351 0.196159 1.06987e-027)
(0.574595 0.00522825 6.6413e-026)
(0.585531 0.00968363 0)
(0.597485 0.0169815 0)
(0.610389 0.0243411 0)
(0.62417 0.0316666 0)
(0.638746 0.0390817 0)
(0.654033 0.0466341 0)
(0.669945 0.0543138 0)
(0.686397 0.0621039 0)
(0.703306 0.0699911 0)
(0.720595 0.0779634 0)
(0.738187 0.0860074 0)
(0.756011 0.0941086 0)
(0.774003 0.102253 0)
(0.7921 0.110426 0)
(0.810244 0.11861 0)
(0.828379 0.126789 0)
(0.846453 0.134947 0)
(0.864416 0.143066 0)
(0.882218 0.151127 0)
(0.899813 0.159112 0)
(0.917163 0.167002 0)
(0.934242 0.174779 0)
(0.951046 0.182407 0)
(0.967784 0.189878 0)
(0.985424 0.197455 0)
(1.0015 0.204638 0)
(1.00816 0.208854 0)
(1.01202 0.21132 -6.22632e-026)
(0.550998 0.00554752 0)
(0.561403 0.010327 0)
(0.572836 0.0181 0)
(0.585235 0.0259338 0)
(0.59853 0.0337323 0)
(0.612644 0.0416263 0)
(0.627499 0.0496652 0)
(0.643013 0.0578383 0)
(0.659105 0.0661282 0)
(0.675696 0.0745202 0)
(0.692712 0.083003 0)
(0.710084 0.0915623 0)
(0.727737 0.100182 0)
(0.745608 0.108846 0)
(0.763637 0.117538 0)
(0.781768 0.126242 0)
(0.799947 0.134941 0)
(0.818123 0.143617 0)
(0.836247 0.152252 0)
(0.854274 0.160828 0)
(0.872159 0.169326 0)
(0.889862 0.177726 0)
(0.907351 0.186012 0)
(0.924605 0.194163 0)
(0.941672 0.202168 0)
(0.958737 0.209968 0)
(0.976979 0.218077 0)
(0.994089 0.225393 0)
(1.00149 0.22958 0)
(0.527295 0.00588243 0)
(0.537173 0.0109914 0)
(0.548091 0.0192582 0)
(0.559988 0.0275835 0)
(0.572799 0.0358723 0)
(0.586454 0.0442635 0)
(0.600879 0.0528081 0)
(0.615996 0.0614946 0)
(0.63173 0.0703044 0)
(0.648005 0.0792229 0)
(0.664749 0.0882362 0)
(0.681895 0.0973301 0)
(0.699376 0.106487 0)
(0.717127 0.115691 0)
(0.735091 0.124925 0)
(0.753213 0.13417 0)
(0.771439 0.143408 0)
(0.789721 0.152622 0)
(0.80801 0.161791 0)
(0.82626 0.170897 0)
(0.84443 0.17992 0)
(0.862478 0.18884 0)
(0.880371 0.197639 0)
(0.89808 0.2063 0)
(0.915605 0.214809 0)
(0.933016 0.223136 0)
(0.950512 0.231354 0)
(0.969998 0.239779 0)
(0.98741 0.247397 7.31201e-026)
(0.503536 0.00623087 0)
(0.512894 0.0116738 0)
(0.523299 0.020451 0)
(0.534697 0.0292829 0)
(0.547027 0.0380771 0)
(0.560224 0.0469811 0)
(0.574219 0.056048 0)
(0.588941 0.0652653 0)
(0.604317 0.0746137 0)
(0.620277 0.084078 0)
(0.636751 0.0936427 0)
(0.653675 0.103293 0)
(0.670986 0.113012 0)
(0.688621 0.12278 0)
(0.706522 0.132579 0)
(0.724637 0.142389 0)
(0.742914 0.152191 0)
(0.761304 0.161964 0)
(0.779761 0.171687 0)
(0.798239 0.181341 0)
(0.816696 0.190905 0)
(0.835092 0.200357 0)
(0.853389 0.209678 0)
(0.871557 0.218848 0)
(0.889577 0.22785 0)
(0.907468 0.236667 0)
(0.925324 0.24531 0)
(0.943492 0.253784 0)
(0.964391 0.262866 9.46216e-028)
(0.479774 0.00659229 0)
(0.488618 0.0123733 0)
(0.498517 0.0216768 0)
(0.509419 0.0310296 0)
(0.521269 0.0403434 0)
(0.534008 0.0497758 0)
(0.547572 0.0593817 0)
(0.561896 0.0691477 0)
(0.576911 0.0790539 0)
(0.592551 0.0890843 0)
(0.608751 0.0992229 0)
(0.625449 0.109454 0)
(0.642588 0.119759 0)
(0.660107 0.130117 0)
(0.677949 0.140507 0)
(0.696063 0.150908 0)
(0.714397 0.161299 0)
(0.732905 0.171657 0)
(0.751539 0.18196 0)
(0.770256 0.192185 0)
(0.789011 0.202309 0)
(0.807766 0.21231 0)
(0.82648 0.222166 0)
(0.845121 0.231855 0)
(0.863662 0.241358 0)
(0.882096 0.250656 0)
(0.900453 0.25976 0)
(0.918786 0.268567 0)
(0.938217 0.277661 -1.65434e-025)
(0.456063 0.00696511 0)
(0.464398 0.0130882 0)
(0.473795 0.0229329 0)
(0.484204 0.0328192 0)
(0.495575 0.042666 0)
(0.507855 0.0526413 0)
(0.520986 0.0628022 0)
(0.534908 0.0731344 0)
(0.549559 0.0836174 0)
(0.564876 0.0942346 0)
(0.5808 0.10497 0)
(0.59727 0.115803 0)
(0.614232 0.126717 0)
(0.63163 0.137689 0)
(0.64941 0.148696 0)
(0.667523 0.159716 0)
(0.685919 0.170725 0)
(0.704551 0.181698 0)
(0.723373 0.19261 0)
(0.74234 0.203435 0)
(0.76141 0.214148 0)
(0.780541 0.224724 0)
(0.799693 0.235137 0)
(0.81883 0.245365 0)
(0.837918 0.255384 0)
(0.856936 0.265175 0)
(0.87588 0.274728 0)
(0.894761 0.284039 0)
(0.913764 0.292963 -6.56341e-028)
(0.432454 0.00734693 0)
(0.44029 0.0138162 0)
(0.44919 0.0242147 0)
(0.459109 0.0346451 0)
(0.470001 0.0450356 0)
(0.481819 0.0555661 0)
(0.494513 0.0662955 0)
(0.508027 0.0772089 0)
(0.522306 0.0882853 0)
(0.537292 0.0995078 0)
(0.55293 0.11086 0)
(0.569166 0.122321 0)
(0.585947 0.133872 0)
(0.603222 0.145489 0)
(0.620939 0.157147 0)
(0.639048 0.168819 0)
(0.657506 0.180481 0)
(0.676265 0.192103 0)
(0.695281 0.203658 0)
(0.714511 0.215117 0)
(0.73391 0.226451 0)
(0.753438 0.237632 0)
(0.773051 0.248632 0)
(0.792711 0.259423 0)
(0.81238 0.269978 0)
(0.832026 0.280275 0)
(0.851625 0.290294 0)
(0.871166 0.300039 0)
(0.890684 0.30936 9.299e-026)
(0.409001 0.00773545 0)
(0.416347 0.0145555 0)
(0.424758 0.025519 0)
(0.434188 0.0365021 0)
(0.4446 0.0474461 0)
(0.455954 0.0585434 0)
(0.468204 0.0698547 0)
(0.481303 0.0813647 0)
(0.4952 0.0930524 0)
(0.509844 0.104901 0)
(0.525184 0.116893 0)
(0.541169 0.129007 0)
(0.557754 0.141222 0)
(0.574892 0.153514 0)
(0.592537 0.165855 0)
(0.610641 0.178215 0)
(0.62916 0.190566 0)
(0.648051 0.202877 0)
(0.667269 0.215115 0)
(0.686773 0.227249 0)
(0.706519 0.239245 0)
(0.726464 0.25107 0)
(0.746566 0.262692 0)
(0.766783 0.274078 0)
(0.787071 0.285198 0)
(0.807393 0.296024 0)
(0.827712 0.306532 0)
(0.848002 0.316707 0)
(0.868244 0.326513 9.88035e-026)
(0.385758 0.00812752 0)
(0.392624 0.0153036 0)
(0.400551 0.026841 0)
(0.409496 0.0383831 0)
(0.419426 0.0498881 0)
(0.43031 0.0615616 0)
(0.442109 0.0734663 0)
(0.454782 0.0855867 0)
(0.468284 0.0979019 0)
(0.482571 0.110395 0)
(0.497597 0.123049 0)
(0.51332 0.135842 0)
(0.529695 0.148749 0)
(0.546683 0.161746 0)
(0.56424 0.174802 0)
(0.582324 0.187886 0)
(0.600896 0.200968 0)
(0.619914 0.214012 0)
(0.639336 0.22698 0)
(0.659122 0.239836 0)
(0.679229 0.252542 0)
(0.699614 0.265059 0)
(0.720233 0.277349 0)
(0.741041 0.289373 0)
(0.761994 0.301096 0)
(0.783045 0.312483 0)
(0.80415 0.323503 0)
(0.825267 0.334131 0)
(0.846358 0.344355 -1.04249e-025)
(0.362776 0.00851957 0)
(0.369174 0.0160577 0)
(0.376626 0.0281751 0)
(0.385087 0.0402795 0)
(0.394534 0.0523506 0)
(0.404942 0.0646073 0)
(0.41628 0.0771144 0)
(0.428513 0.0898561 0)
(0.441604 0.102812 0)
(0.455515 0.115967 0)
(0.470209 0.129303 0)
(0.485646 0.142798 0)
(0.501792 0.156427 0)
(0.518609 0.170163 0)
(0.536062 0.183975 0)
(0.554111 0.197829 0)
(0.57272 0.211687 0)
(0.591855 0.225512 0)
(0.611477 0.239262 0)
(0.631547 0.252895 0)
(0.652025 0.266365 0)
(0.672869 0.279629 0)
(0.694033 0.292639 0)
(0.715471 0.305353 0)
(0.737134 0.317724 0)
(0.758972 0.329712 0)
(0.780933 0.341277 0)
(0.802963 0.352385 0)
(0.825011 0.363014 1.09706e-025)
(0.340109 0.00890787 0)
(0.346052 0.0168145 0)
(0.353036 0.0295151 0)
(0.361016 0.0421825 0)
(0.369977 0.0548222 0)
(0.379902 0.0676674 0)
(0.390768 0.0807842 0)
(0.402546 0.0941574 0)
(0.415208 0.107768 0)
(0.428722 0.121601 0)
(0.443057 0.13564 0)
(0.458183 0.149863 0)
(0.474069 0.164243 0)
(0.490687 0.178754 0)
(0.508007 0.193362 0)
(0.525997 0.208029 0)
(0.544627 0.222714 0)
(0.563865 0.237375 0)
(0.583678 0.251964 0)
(0.604032 0.266434 0)
(0.624888 0.280732 0)
(0.646205 0.294806 0)
(0.667941 0.308601 0)
(0.690047 0.322064 0)
(0.712471 0.33514 0)
(0.735158 0.347778 0)
(0.758048 0.359931 0)
(0.781079 0.371553 0)
(0.804189 0.382608 -2.30999e-025)
(0.317809 0.00928843 0)
(0.323311 0.0175697 0)
(0.329835 0.0308536 0)
(0.337336 0.0440813 0)
(0.345807 0.0572897 0)
(0.355241 0.0707261 0)
(0.365621 0.0844579 0)
(0.376928 0.0984707 0)
(0.389138 0.112747 0)
(0.40223 0.127275 0)
(0.41618 0.142037 0)
(0.430964 0.157012 0)
(0.446559 0.172175 0)
(0.462944 0.187494 0)
(0.480098 0.202935 0)
(0.497998 0.21846 0)
(0.51662 0.234024 0)
(0.535938 0.24958 0)
(0.555925 0.265074 0)
(0.576553 0.280451 0)
(0.597787 0.295651 0)
(0.619591 0.310611 0)
(0.641922 0.325266 0)
(0.664733 0.339551 0)
(0.687969 0.353401 0)
(0.71157 0.366751 0)
(0.73547 0.379543 0)
(0.759596 0.391719 0)
(0.783874 0.403233 1.01836e-027)
(0.295927 0.00965722 0)
(0.301002 0.0183174 0)
(0.307074 0.0321809 0)
(0.314098 0.0459627 0)
(0.322076 0.0597366 0)
(0.331009 0.0737639 0)
(0.340889 0.0881129 0)
(0.351705 0.10277 0)
(0.363441 0.117722 0)
(0.376082 0.132956 0)
(0.389614 0.148457 0)
(0.404021 0.164207 0)
(0.41929 0.180179 0)
(0.435406 0.196342 0)
(0.452358 0.212661 0)
(0.470128 0.229094 0)
(0.488702 0.245595 0)
(0.508066 0.26211 0)
(0.5282 0.278582 0)
(0.549083 0.294945 0)
(0.570688 0.31113 0)
(0.592983 0.327064 0)
(0.61593 0.342669 0)
(0.639482 0.357864 0)
(0.663584 0.37257 0)
(0.688169 0.386707 0)
(0.713165 0.400201 0)
(0.738488 0.412981 0)
(0.76405 0.424986 1.44433e-027)
(0.274517 0.0100104 0)
(0.279178 0.01905 0)
(0.284807 0.0334853 0)
(0.291354 0.0478106 0)
(0.298833 0.062143 0)
(0.307255 0.0767574 0)
(0.31662 0.0917224 0)
(0.326924 0.107026 0)
(0.33816 0.122657 0)
(0.350321 0.138608 0)
(0.363401 0.154864 0)
(0.377392 0.171409 0)
(0.392291 0.188217 0)
(0.408091 0.205258 0)
(0.42479 0.222499 0)
(0.442386 0.239895 0)
(0.46087 0.257394 0)
(0.480237 0.27494 0)
(0.500481 0.292468 0)
(0.521591 0.309906 0)
(0.54355 0.327173 0)
(0.566334 0.344183 0)
(0.58991 0.360843 0)
(0.614237 0.377054 0)
(0.639257 0.392718 0)
(0.664903 0.407734 0)
(0.691091 0.422008 0)
(0.717725 0.435451 0)
(0.7447 0.447985 1.32917e-025)
(0.253633 0.0103447 0)
(0.257891 0.0197581 0)
(0.263082 0.0347528 0)
(0.269154 0.0496059 0)
(0.276129 0.0644851 0)
(0.284029 0.0796782 0)
(0.292863 0.0952532 0)
(0.302634 0.111201 0)
(0.313343 0.127513 0)
(0.324992 0.144185 0)
(0.337582 0.161208 0)
(0.351116 0.178564 0)
(0.365596 0.196233 0)
(0.381029 0.214186 0)
(0.39742 0.232388 0)
(0.414782 0.250794 0)
(0.433118 0.269355 0)
(0.452437 0.288007 0)
(0.472743 0.30668 0)
(0.49404 0.325294 0)
(0.516323 0.343757 0)
(0.539582 0.361966 0)
(0.563794 0.37981 0)
(0.588924 0.397169 0)
(0.614919 0.413918 0)
(0.641706 0.42993 0)
(0.669194 0.445084 0)
(0.697271 0.459266 0)
(0.725809 0.472374 -1.35777e-025)
(0.233331 0.0106582 0)
(0.237192 0.0204302 0)
(0.241952 0.0359668 0)
(0.247547 0.0513262 0)
(0.254012 0.0667344 0)
(0.26138 0.0824911 0)
(0.269666 0.0986633 0)
(0.278883 0.115244 0)
(0.289038 0.132231 0)
(0.300142 0.149623 0)
(0.312204 0.167413 0)
(0.325234 0.185591 0)
(0.339246 0.204136 0)
(0.354256 0.223024 0)
(0.37028 0.242221 0)
(0.387343 0.261686 0)
(0.405462 0.281369 0)
(0.42466 0.301204 0)
(0.444962 0.321118 0)
(0.466386 0.341023 0)
(0.488947 0.360812 0)
(0.512652 0.380367 0)
(0.537494 0.399555 0)
(0.563449 0.418226 0)
(0.590472 0.436225 0)
(0.618489 0.453389 0)
(0.647401 0.469558 0)
(0.677075 0.484582 0)
(0.707357 0.498327 1.43238e-025)
(0.213665 0.0109505 0)
(0.217134 0.0210535 0)
(0.221466 0.0371095 0)
(0.226584 0.0529459 0)
(0.232534 0.0688569 0)
(0.23936 0.0851532 0)
(0.247085 0.1019 0)
(0.255726 0.119094 0)
(0.265301 0.136737 0)
(0.275827 0.154833 0)
(0.287321 0.173381 0)
(0.299802 0.192373 0)
(0.313292 0.211796 0)
(0.327815 0.23163 0)
(0.343401 0.251845 0)
(0.360086 0.272408 0)
(0.377909 0.293269 0)
(0.396904 0.314363 0)
(0.417115 0.335614 0)
(0.438585 0.356929 0)
(0.461355 0.37819 0)
(0.485454 0.399262 0)
(0.5109 0.419984 0)
(0.537688 0.440176 0)
(0.565786 0.459639 0)
(0.595127 0.478162 0)
(0.625602 0.495533 0)
(0.657058 0.511549 0)
(0.689303 0.52603 0)
(0.194691 0.0112239 0)
(0.197768 0.021615 0)
(0.201677 0.0381619 0)
(0.206318 0.0544363 0)
(0.211751 0.0708129 0)
(0.218027 0.0876122 0)
(0.225177 0.104897 0)
(0.233226 0.122667 0)
(0.242197 0.140932 0)
(0.252115 0.159699 0)
(0.263004 0.178975 0)
(0.274889 0.198757 0)
(0.287801 0.219039 0)
(0.301773 0.239809 0)
(0.316844 0.261047 0)
(0.333063 0.282722 0)
(0.350489 0.304794 0)
(0.369176 0.32721 0)
(0.38919 0.349887 0)
(0.410601 0.372732 0)
(0.43348 0.395619 0)
(0.457891 0.418396 0)
(0.483885 0.440876 0)
(0.511487 0.462838 0)
(0.540693 0.484035 0)
(0.571447 0.504191 0)
(0.60364 0.523023 0)
(0.637094 0.540251 0)
(0.671569 0.555623 1.46936e-025)
(0.17646 0.0114821 0)
(0.179143 0.0221018 0)
(0.182636 0.0391038 0)
(0.186806 0.0557644 0)
(0.191722 0.072555 0)
(0.197446 0.0898046 0)
(0.204013 0.107573 0)
(0.211456 0.125864 0)
(0.219805 0.144692 0)
(0.229089 0.164074 0)
(0.239338 0.184021 0)
(0.250584 0.20454 0)
(0.262862 0.225634 0)
(0.276214 0.2473 0)
(0.290691 0.269531 0)
(0.306349 0.292306 0)
(0.323265 0.315602 0)
(0.341521 0.33937 0)
(0.361205 0.36354 0)
(0.382419 0.38802 0)
(0.405273 0.41268 0)
(0.429873 0.437355 0)
(0.456317 0.461833 0)
(0.484678 0.485853 0)
(0.51499 0.509106 0)
(0.54723 0.53124 0)
(0.581298 0.551873 0)
(0.616995 0.570619 0)
(0.654024 0.587117 -5.52376e-027)
(0.159016 0.0117293 0)
(0.161308 0.0225018 0)
(0.164399 0.0399129 0)
(0.168107 0.0568919 0)
(0.172514 0.0740276 0)
(0.177687 0.0916553 0)
(0.183671 0.10983 0)
(0.190502 0.128561 0)
(0.198216 0.14787 0)
(0.206847 0.16778 0)
(0.216429 0.188312 0)
(0.226996 0.209482 0)
(0.238588 0.231305 0)
(0.251253 0.253794 0)
(0.265049 0.276955 0)
(0.280046 0.300785 0)
(0.296332 0.325275 0)
(0.314016 0.350394 0)
(0.333213 0.376091 0)
(0.354063 0.402278 0)
(0.376718 0.428831 0)
(0.401339 0.45558 0)
(0.428085 0.482292 0)
(0.457094 0.508669 0)
(0.488464 0.534338 0)