/*--------------------------------*- C++ -*----------------------------------*\
| =========                 |                                                 |
| \\      /  F ield         | OpenFOAM: The Open Source CFD Toolbox           |
|  \\    /   O peration     | Version:  5.x                                   |
|   \\  /    A nd           | Web:      www.OpenFOAM.org                      |
|    \\/     M anipulation  |                                                 |
\*---------------------------------------------------------------------------*/
/*   Windows 32 and 64 bit porting by blueCAPE: http://www.bluecape.com.pt   *\
|  Based on Windows porting (2.0.x v4) by Symscape: http://www.symscape.com   |
\*---------------------------------------------------------------------------*/
FoamFile
{
    version     2.0;
    format      ascii;
    class       volScalarField;
    location    "70";
    object      epsilon;
}
// * * * * * * * * * * * * * * * * * * * * * * * * * * * * * * * * * * * * * //

dimensions      [0 2 -3 0 0 0 0];

internalField   nonuniform List<scalar> 
43900
(
0.00155841
0.0015197
0.00151975
0.00151966
0.00151967
0.00151967
0.00151967
0.00151967
0.00151967
0.00151967
0.00151967
0.00151967
0.00151968
0.00151968
0.00151968
0.00151968
0.00151968
0.00151968
0.00151968
0.00151968
0.00151968
0.00151968
0.00151968
0.00151968
0.00151968
0.00151968
0.00151968
0.00151968
0.00151969
6.76387e-005
3.18979e-005
3.15076e-005
3.27058e-005
3.28e-005
3.27951e-005
3.27921e-005
3.27966e-005
3.27976e-005
3.27991e-005
3.28005e-005
3.28017e-005
3.28028e-005
3.28039e-005
3.2805e-005
3.2806e-005
3.2807e-005
3.28079e-005
3.28088e-005
3.28096e-005
3.28104e-005
3.28111e-005
3.28118e-005
3.28125e-005
3.28132e-005
3.28138e-005
3.28144e-005
3.2815e-005
3.28153e-005
0.0290306
0.00165804
3.13028e-005
1.80687e-006
1.32439e-006
1.38124e-006
1.39217e-006
1.39221e-006
1.39267e-006
1.39302e-006
1.39332e-006
1.3936e-006
1.39386e-006
1.39409e-006
1.39431e-006
1.39451e-006
1.39469e-006
1.39485e-006
1.39501e-006
1.39515e-006
1.39529e-006
1.39541e-006
1.39553e-006
1.39563e-006
1.39574e-006
1.39583e-006
1.39593e-006
1.39602e-006
1.3961e-006
0.107524
0.0221968
0.00252347
9.49725e-005
1.85199e-006
1.80827e-007
1.45819e-007
1.46137e-007
1.46196e-007
1.46228e-007
1.46258e-007
1.46285e-007
1.46312e-007
1.46337e-007
1.4636e-007
1.46381e-007
1.464e-007
1.46417e-007
1.46431e-007
1.46445e-007
1.46455e-007
1.46468e-007
1.46478e-007
1.46488e-007
1.46493e-007
1.46504e-007
1.4651e-007
1.46515e-007
1.46519e-007
0.167166
0.0608634
0.0180047
0.00299319
0.00016058
2.35731e-006
1.35414e-007
1.08833e-007
1.08617e-007
1.08624e-007
1.08645e-007
1.08668e-007
1.08688e-007
1.08707e-007
1.08723e-007
1.08736e-007
1.08746e-007
1.08755e-007
1.08766e-007
1.08773e-007
1.0879e-007
1.08781e-007
1.08782e-007
1.08774e-007
1.08774e-007
1.0874e-007
1.08725e-007
1.08709e-007
1.08701e-007
0.188171
0.0789088
0.030981
0.00979486
0.00143909
4.73866e-005
6.02573e-007
2.36478e-007
2.34275e-007
2.34279e-007
2.34322e-007
2.34386e-007
2.34445e-007
2.34496e-007
2.34539e-007
2.34576e-007
2.34624e-007
2.34726e-007
2.34733e-007
2.34739e-007
2.34751e-007
2.34781e-007
2.34647e-007
2.34619e-007
2.34597e-007
2.34545e-007
2.34502e-007
2.34502e-007
2.34505e-007
0.196329
0.086853
0.0369953
0.0138926
0.00338472
0.000237078
3.0994e-006
8.03251e-007
7.9275e-007
7.9275e-007
7.92808e-007
7.9297e-007
7.93107e-007
7.93381e-007
7.9348e-007
7.93622e-007
7.93947e-007
7.93988e-007
7.93994e-007
7.93999e-007
7.94021e-007
7.94193e-007
7.93519e-007
7.9337e-007
7.93255e-007
7.93104e-007
7.92887e-007
7.92653e-007
7.92618e-007
0.19565
0.0878874
0.0383722
0.0151316
0.00421695
0.000404746
7.1464e-006
1.62581e-006
1.60044e-006
1.60042e-006
1.60042e-006
1.60048e-006
1.60077e-006
1.6007e-006
1.6007e-006
1.60072e-006
1.60101e-006
1.60042e-006
1.60034e-006
1.60034e-006
1.60035e-006
1.60041e-006
1.59978e-006
1.59953e-006
1.59931e-006
1.5992e-006
1.5992e-006
1.59913e-006
1.59925e-006
0.192742
0.0872067
0.0383549
0.0153195
0.00443308
0.000465788
9.2217e-006
2.08143e-006
2.04784e-006
2.04777e-006
2.04777e-006
2.04782e-006
2.04764e-006
2.04764e-006
2.04765e-006
2.04771e-006
2.04728e-006
2.04696e-006
2.04688e-006
2.04689e-006
2.04689e-006
2.04693e-006
2.04651e-006
2.04651e-006
2.04651e-006
2.04653e-006
2.04639e-006
2.04645e-006
2.04566e-006
0.188856
0.0857235
0.0379007
0.0152063
0.00442431
0.000468065
9.48528e-006
2.28912e-006
2.25553e-006
2.25545e-006
2.25546e-006
2.25553e-006
2.25527e-006
2.25527e-006
2.25528e-006
2.25535e-006
2.25499e-006
2.25499e-006
2.25485e-006
2.25486e-006
2.25477e-006
2.25481e-006
2.2546e-006
2.25461e-006
2.25444e-006
2.25444e-006
2.2545e-006
2.25398e-006
2.25398e-006
0.184482
0.0836358
0.0369368
0.0148362
0.00432654
0.000456967
9.39231e-006
2.37611e-006
2.34177e-006
2.34166e-006
2.34153e-006
2.34154e-006
2.34153e-006
2.34157e-006
2.34148e-006
2.34148e-006
2.34149e-006
2.34135e-006
2.34135e-006
2.34133e-006
2.34139e-006
2.34111e-006
2.34111e-006
2.34113e-006
2.341e-006
2.341e-006
2.34075e-006
2.34075e-006
2.34077e-006
0.179798
0.0814121
0.0358765
0.0143425
0.00412547
0.000425217
8.99214e-006
2.41099e-006
2.37474e-006
2.3746e-006
2.37444e-006
2.37444e-006
2.37445e-006
2.37453e-006
2.37433e-006
2.37433e-006
2.37434e-006
2.37442e-006
2.37436e-006
2.37436e-006
2.37407e-006
2.37407e-006
2.37408e-006
2.37423e-006
2.37418e-006
2.37418e-006
2.37397e-006
2.37397e-006
2.37402e-006
0.174727
0.0790209
0.034757
0.0138398
0.00392466
0.000392201
8.5524e-006
2.42549e-006
2.3866e-006
2.38642e-006
2.38624e-006
2.38624e-006
2.38626e-006
2.38644e-006
2.3861e-006
2.38611e-006
2.38612e-006
2.38617e-006
2.3862e-006
2.38627e-006
2.386e-006
2.386e-006
2.38602e-006
2.38616e-006
2.38614e-006
2.38615e-006
2.38594e-006
2.38594e-006
2.38608e-006
0.16933
0.0764819
0.0335732
0.0133131
0.00372034
0.000361182
8.18582e-006
2.43287e-006
2.39078e-006
2.39055e-006
2.39035e-006
2.39035e-006
2.39035e-006
2.39038e-006
2.39049e-006
2.39039e-006
2.39039e-006
2.39052e-006
2.39038e-006
2.39038e-006
2.39029e-006
2.39029e-006
2.3903e-006
2.39034e-006
2.39025e-006
2.39025e-006
2.39009e-006
2.3901e-006
2.39006e-006
0.163622
0.0738062
0.0323312
0.0127646
0.0035119
0.000331344
7.87606e-006
2.43838e-006
2.39233e-006
2.39199e-006
2.39197e-006
2.39197e-006
2.39197e-006
2.39199e-006
2.39192e-006
2.39193e-006
2.39175e-006
2.39175e-006
2.39176e-006
2.39189e-006
2.39185e-006
2.39186e-006
2.39164e-006
2.39164e-006
2.39167e-006
2.39183e-006
2.3917e-006
2.3918e-006
2.39145e-006
0.157582
0.0709874
0.03103
0.0121946
0.00329993
0.000302753
7.62181e-006
2.44418e-006
2.39321e-006
2.39286e-006
2.39286e-006
2.39288e-006
2.39278e-006
2.39278e-006
2.39255e-006
2.39256e-006
2.39238e-006
2.39238e-006
2.39241e-006
2.39265e-006
2.39258e-006
2.39258e-006
2.39251e-006
2.39252e-006
2.39239e-006
2.39239e-006
2.39242e-006
2.39208e-006
2.39209e-006
0.151201
0.0680216
0.0296682
0.0116026
0.00308455
0.000275387
7.41188e-006
2.45091e-006
2.39405e-006
2.39349e-006
2.39338e-006
2.39338e-006
2.39339e-006
2.39351e-006
2.39335e-006
2.39335e-006
2.39323e-006
2.39324e-006
2.39316e-006
2.3932e-006
2.39317e-006
2.3932e-006
2.39308e-006
2.39309e-006
2.39283e-006
2.39283e-006
2.39293e-006
2.39262e-006
2.39262e-006
0.144483
0.064912
0.0282475
0.0109894
0.00286644
0.000249296
7.23734e-006
2.45882e-006
2.39493e-006
2.39418e-006
2.39418e-006
2.39436e-006
2.3942e-006
2.3942e-006
2.39401e-006
2.39402e-006
2.39398e-006
2.39408e-006
2.39399e-006
2.394e-006
2.39396e-006
2.39397e-006
2.39382e-006
2.39397e-006
2.39349e-006
2.39349e-006
2.39362e-006
2.39319e-006
2.39319e-006
0.137444
0.0616663
0.0267718
0.0103569
0.00264678
0.000224602
7.09298e-006
2.46837e-006
2.39629e-006
2.39543e-006
2.39544e-006
2.39531e-006
2.39532e-006
2.39543e-006
2.39518e-006
2.39518e-006
2.39519e-006
2.39523e-006
2.39515e-006
2.39515e-006
2.39485e-006
2.39486e-006
2.39497e-006
2.39453e-006
2.39448e-006
2.39448e-006
2.39457e-006
2.39397e-006
2.39397e-006
0.130107
0.0582958
0.0252467
0.0097077
0.00242706
0.000201425
6.97524e-006
2.4797e-006
2.39813e-006
2.39696e-006
2.39696e-006
2.39659e-006
2.39659e-006
2.39646e-006
2.39646e-006
2.3965e-006
2.39635e-006
2.39635e-006
2.39622e-006
2.39622e-006
2.39646e-006
2.3958e-006
2.39579e-006
2.3958e-006
2.39544e-006
2.39545e-006
2.39573e-006
2.39528e-006
2.39544e-006
0.122504
0.0548159
0.0236795
0.00904501
0.00220892
0.000179856
6.87872e-006
2.4931e-006
2.40048e-006
2.39904e-006
2.39906e-006
2.39883e-006
2.39883e-006
2.39856e-006
2.39856e-006
2.39862e-006
2.39847e-006
2.39848e-006
2.3982e-006
2.3982e-006
2.39754e-006
2.39747e-006
2.39748e-006
2.39756e-006
2.39722e-006
2.39724e-006
2.39703e-006
2.39713e-006
2.39645e-006
0.114677
0.0512456
0.0220788
0.00837261
0.00199412
0.000159947
6.79866e-006
2.5089e-006
2.40343e-006
2.40102e-006
2.40102e-006
2.40085e-006
2.40084e-006
2.4006e-006
2.4006e-006
2.40086e-006
2.4003e-006
2.40031e-006
2.40031e-006
2.40037e-006
2.39981e-006
2.39997e-006
2.39945e-006
2.39966e-006
2.3992e-006
2.3992e-006
2.39953e-006
2.39855e-006
2.39853e-006
0.106677
0.047608
0.0204552
0.00769485
0.00178451
0.000141712
6.73227e-006
2.52742e-006
2.40746e-006
2.40417e-006
2.40415e-006
2.40417e-006
2.40444e-006
2.40416e-006
2.40416e-006
2.40369e-006
2.40369e-006
2.40403e-006
2.40339e-006
2.40342e-006
2.40278e-006
2.40279e-006
2.40311e-006
2.40227e-006
2.40224e-006
2.40161e-006
2.40147e-006
2.40148e-006
2.40083e-006
0.0985617
0.0439297
0.0188203
0.00701654
0.00158191
0.000125126
6.67296e-006
2.54871e-006
2.41279e-006
2.40788e-006
2.40775e-006
2.40776e-006
2.40748e-006
2.40749e-006
2.40751e-006
2.40781e-006
2.40713e-006
2.40713e-006
2.40748e-006
2.40687e-006
2.40688e-006
2.40645e-006
2.40644e-006
2.40588e-006
2.40583e-006
2.40464e-006
2.40517e-006
2.40458e-006
2.40347e-006
0.0903998
0.0402403
0.0171868
0.00634292
0.00138814
0.000110128
6.61508e-006
2.57346e-006
2.41966e-006
2.41316e-006
2.41315e-006
2.41319e-006
2.41369e-006
2.41281e-006
2.41294e-006
2.41222e-006
2.41222e-006
2.41312e-006
2.41231e-006
2.41231e-006
2.41138e-006
2.41054e-006
2.41041e-006
2.4112e-006
2.4096e-006
2.40946e-006
2.40944e-006
2.40794e-006
2.4089e-006
0.0822643
0.0365718
0.0155684
0.00567953
0.00120488
9.66292e-005
6.55587e-006
2.60082e-006
2.4282e-006
2.42056e-006
2.42056e-006
2.41938e-006
2.41916e-006
2.42e-006
2.41953e-006
2.41954e-006
2.41911e-006
2.41934e-006
2.41859e-006
2.41791e-006
2.41743e-006
2.41571e-006
2.41743e-006
2.41529e-006
2.41458e-006
2.41662e-006
2.41383e-006
2.41478e-006
2.41382e-006
0.0742327
0.0329578
0.0139792
0.00503215
0.00103363
8.4517e-005
6.49012e-006
2.63335e-006
2.43883e-006
2.42948e-006
2.42849e-006
2.42846e-006
2.42993e-006
2.4288e-006
2.42881e-006
2.42746e-006
2.42703e-006
2.42558e-006
2.42658e-006
2.42571e-006
2.42309e-006
2.42645e-006
2.42362e-006
2.42184e-006
2.42466e-006
2.42152e-006
2.42224e-006
2.4215e-006
2.4188e-006
0.0663846
0.0294325
0.0124333
0.00440665
0.000875691
7.36769e-005
6.41459e-006
2.66547e-006
2.45285e-006
2.44009e-006
2.44022e-006
2.4393e-006
2.43813e-006
2.43934e-006
2.4376e-006
2.43688e-006
2.43465e-006
2.43813e-006
2.43672e-006
2.43256e-006
2.43666e-006
2.43388e-006
2.43144e-006
2.4356e-006
2.4309e-006
2.43085e-006
2.43171e-006
2.42743e-006
2.42903e-006
0.0587984
0.0260293
0.0109443
0.00380898
0.000732022
6.39807e-005
6.32344e-006
2.70727e-006
2.46824e-006
2.45395e-006
2.45198e-006
2.45112e-006
2.454e-006
2.45076e-006
2.45077e-006
2.45032e-006
2.45301e-006
2.44839e-006
2.44514e-006
2.45068e-006
2.44587e-006
2.44321e-006
2.44841e-006
2.44311e-006
2.44338e-006
2.44368e-006
2.43838e-006
2.44051e-006
2.43776e-006
0.0515486
0.0227804
0.00952539
0.00324484
0.000603371
5.5329e-005
6.21696e-006
2.74288e-006
2.48882e-006
2.47028e-006
2.46764e-006
2.46774e-006
2.46577e-006
2.46885e-006
2.46647e-006
2.46288e-006
2.46266e-006
2.46402e-006
2.4682e-006
2.46069e-006
2.45885e-006
2.4644e-006
2.45785e-006
2.4588e-006
2.45596e-006
2.45119e-006
2.45562e-006
2.45107e-006
2.448e-006
0.044703
0.0197146
0.00818809
0.00271983
0.000489996
4.76158e-005
6.0875e-006
2.79058e-006
2.51409e-006
2.48786e-006
2.48649e-006
2.48713e-006
2.4892e-006
2.48315e-006
2.48262e-006
2.48486e-006
2.48326e-006
2.47966e-006
2.47862e-006
2.48089e-006
2.48223e-006
2.47468e-006
2.47638e-006
2.47317e-006
2.47215e-006
2.47376e-006
2.4669e-006
2.46684e-006
2.46462e-006
0.0383197
0.0168572
0.00694263
0.00223892
0.00039194
4.07636e-005
5.94174e-006
2.83352e-006
2.53835e-006
2.51171e-006
2.51006e-006
2.50633e-006
2.50516e-006
2.50999e-006
2.50902e-006
2.50205e-006
2.50019e-006
2.5031e-006
2.50409e-006
2.49841e-006
2.49522e-006
2.49932e-006
2.49481e-006
2.49197e-006
2.48969e-006
2.48906e-006
2.48906e-006
2.48386e-006
2.48471e-006
0.0324446
0.0142283
0.00579747
0.00180652
0.000308691
3.47203e-005
5.77366e-006
2.88124e-006
2.57241e-006
2.54166e-006
2.53152e-006
2.53214e-006
2.53796e-006
2.53276e-006
2.53181e-006
2.52896e-006
2.53234e-006
2.52627e-006
2.52335e-006
2.52871e-006
2.52401e-006
2.51775e-006
2.51985e-006
2.51922e-006
2.52099e-006
2.50853e-006
2.50588e-006
2.50999e-006
2.50042e-006
0.0271102
0.0118427
0.00475906
0.00142608
0.00023959
2.94153e-005
5.59562e-006
2.92435e-006
2.61623e-006
2.56635e-006
2.56876e-006
2.56883e-006
2.56068e-006
2.56559e-006
2.56268e-006
2.56597e-006
2.55712e-006
2.55771e-006
2.56338e-006
2.55158e-006
2.55622e-006
2.55354e-006
2.54372e-006
2.54562e-006
2.53921e-006
2.54536e-006
2.53919e-006
2.52682e-006
2.53218e-006
0.0223344
0.00970865
0.00383216
0.00109943
0.000183328
2.48343e-005
5.40062e-006
2.98718e-006
2.64581e-006
2.61308e-006
2.60466e-006
2.59513e-006
2.60411e-006
2.59774e-006
2.60277e-006
2.59665e-006
2.60193e-006
2.5931e-006
2.58607e-006
2.59479e-006
2.58854e-006
2.58842e-006
2.58475e-006
2.57116e-006
2.57791e-006
2.57015e-006
2.57221e-006
2.57121e-006
2.55675e-006
0.018121
0.00782856
0.00301925
0.000827031
0.000138704
2.09038e-005
5.22034e-006
3.01771e-006
2.70776e-006
2.65061e-006
2.63653e-006
2.64416e-006
2.64078e-006
2.6456e-006
2.63914e-006
2.6412e-006
2.63505e-006
2.63908e-006
2.63789e-006
2.62915e-006
2.6339e-006
2.6285e-006
2.62178e-006
2.62563e-006
2.6125e-006
2.61623e-006
2.61013e-006
2.59797e-006
2.60007e-006
0.0144609
0.00619843
0.00232127
0.000606738
0.000103891
1.76081e-005
5.02041e-006
3.08927e-006
2.75033e-006
2.6948e-006
2.69882e-006
2.69101e-006
2.68407e-006
2.68882e-006
2.6893e-006
2.68765e-006
2.69607e-006
2.68453e-006
2.68337e-006
2.6898e-006
2.67217e-006
2.67726e-006
2.68201e-006
2.66595e-006
2.66764e-006
2.65698e-006
2.65953e-006
2.65351e-006
2.63459e-006
0.0113331
0.00480967
0.00173684
0.000434857
7.74506e-005
1.48619e-005
4.8667e-006
3.12279e-006
2.82206e-006
2.76705e-006
2.7362e-006
2.73933e-006
2.75526e-006
2.73807e-006
2.74573e-006
2.74888e-006
2.7377e-006
2.74883e-006
2.7494e-006
2.73155e-006
2.74485e-006
2.73095e-006
2.72961e-006
2.73749e-006
2.72116e-006
2.72103e-006
2.70296e-006
2.70596e-006
2.70334e-006
0.00870692
0.00364872
0.00126227
0.00030544
5.76418e-005
1.26486e-005
4.69327e-006
3.20129e-006
2.87528e-006
2.80535e-006
2.81625e-006
2.80489e-006
2.79287e-006
2.8137e-006
2.80567e-006
2.80051e-006
2.81822e-006
2.80909e-006
2.8003e-006
2.81375e-006
2.80665e-006
2.81038e-006
2.80086e-006
2.78564e-006
2.79637e-006
2.78164e-006
2.78483e-006
2.76695e-006
2.75984e-006
0.00654379
0.00269937
0.000890542
0.000211393
4.31253e-005
1.08377e-005
4.59126e-006
3.2362e-006
2.94828e-006
2.90862e-006
2.86158e-006
2.86088e-006
2.8817e-006
2.87217e-006
2.87345e-006
2.889e-006
2.87167e-006
2.88252e-006
2.90257e-006
2.87912e-006
2.88252e-006
2.88041e-006
2.88948e-006
2.88393e-006
2.85833e-006
2.86956e-006
2.85802e-006
2.86052e-006
2.84483e-006
0.00479919
0.00194263
0.000610813
0.000145292
3.25429e-005
9.46922e-006
4.46152e-006
3.32241e-006
3.03385e-006
2.94601e-006
2.95282e-006
2.94811e-006
2.93645e-006
2.94891e-006
2.94981e-006
2.95098e-006
2.97221e-006
2.96376e-006
2.95413e-006
2.98291e-006
2.97698e-006
2.98239e-006
2.96817e-006
2.97934e-006
2.98084e-006
2.95486e-006
2.9577e-006
2.93275e-006
2.94489e-006
0.00342577
0.00135749
0.00040929
9.98512e-005
2.50126e-005
8.31346e-006
4.40545e-006
3.37072e-006
3.08586e-006
3.05154e-006
3.00706e-006
3.02484e-006
3.03657e-006
3.01625e-006
3.03049e-006
3.03665e-006
3.05007e-006
3.07948e-006
3.07158e-006
3.05748e-006
3.08446e-006
3.08012e-006
3.09859e-006
3.07884e-006
3.07632e-006
3.08107e-006
3.06152e-006
3.06654e-006
3.03921e-006
0.00237362
0.000921013
0.000269652
6.93393e-005
1.94956e-005
7.51326e-006
4.33363e-006
3.44292e-006
3.20915e-006
3.10489e-006
3.11842e-006
3.09605e-006
3.09045e-006
3.13072e-006
3.1399e-006
3.14935e-006
3.14313e-006
3.14266e-006
3.17271e-006
3.20891e-006
3.18649e-006
3.20393e-006
3.19408e-006
3.22396e-006
3.2228e-006
3.21343e-006
3.21373e-006
3.18604e-006
3.18533e-006
0.00159316
0.00060773
0.000176448
4.875e-005
1.56608e-005
6.79763e-006
4.2957e-006
3.53153e-006
3.25792e-006
3.21047e-006
3.17028e-006
3.18892e-006
3.222e-006
3.21859e-006
3.21862e-006
3.2235e-006
3.24679e-006
3.28423e-006
3.2918e-006
3.2998e-006
3.34592e-006
3.34584e-006
3.37378e-006
3.35363e-006
3.37165e-006
3.36962e-006
3.36521e-006
3.36631e-006
3.33232e-006
0.00103478
0.000391954
0.0001155
3.5106e-005
1.2719e-005
6.31464e-006
4.266e-006
3.57892e-006
3.35545e-006
3.28525e-006
3.30218e-006
3.27543e-006
3.28289e-006
3.31155e-006
3.32196e-006
3.34404e-006
3.3762e-006
3.38954e-006
3.43428e-006
3.45689e-006
3.45363e-006
3.49262e-006
3.50228e-006
3.57548e-006
3.55334e-006
3.57781e-006
3.55432e-006
3.55315e-006
3.54487e-006
0.000651102
0.000248543
7.63973e-005
2.56886e-005
1.06999e-005
5.85728e-006
4.24318e-006
3.67053e-006
3.44811e-006
3.39233e-006
3.3437e-006
3.40128e-006
3.39542e-006
3.3858e-006
3.42178e-006
3.46931e-006
3.49194e-006
3.524e-006
3.53316e-006
3.55941e-006
3.64822e-006
3.6669e-006
3.71288e-006
3.72293e-006
3.80164e-006
3.79278e-006
3.82742e-006
3.81091e-006
3.80368e-006
0.000398184
0.000156253
5.1184e-005
1.93788e-005
9.02287e-006
5.54966e-006
4.22634e-006
3.71181e-006
3.54316e-006
3.45334e-006
3.48172e-006
3.45815e-006
3.48555e-006
3.54563e-006
3.5371e-006
3.55374e-006
3.57514e-006
3.64232e-006
3.71335e-006
3.7315e-006
3.77035e-006
3.88201e-006
3.92491e-006
4.01237e-006
4.00575e-006
4.07485e-006
4.05841e-006
4.098e-006
4.06945e-006
0.00023802
9.80239e-005
3.49829e-005
1.48151e-005
7.88507e-006
5.21564e-006
4.2066e-006
3.80603e-006
3.58782e-006
3.57169e-006
3.53405e-006
3.58591e-006
3.57852e-006
3.59757e-006
3.67219e-006
3.69131e-006
3.73568e-006
3.75529e-006
3.80648e-006
3.93826e-006
3.98029e-006
4.02912e-006
4.12379e-006
4.18577e-006
4.35974e-006
4.36353e-006
4.46467e-006
4.44377e-006
4.48044e-006
0.000140121
6.18146e-005
2.43456e-005
1.16863e-005
6.86187e-006
5.00491e-006
4.17727e-006
3.83978e-006
3.70432e-006
3.62525e-006
3.65252e-006
3.63731e-006
3.69964e-006
3.71185e-006
3.73854e-006
3.79843e-006
3.85406e-006
3.91844e-006
3.98223e-006
4.036e-006
4.17527e-006
4.23375e-006
4.38451e-006
4.43883e-006
4.5408e-006
4.7964e-006
4.81872e-006
4.95266e-006
4.92882e-006
8.19406e-005
3.93643e-005
1.73537e-005
9.34513e-006
6.15394e-006
4.7438e-006
4.1633e-006
3.86467e-006
3.74205e-006
3.73707e-006
3.71608e-006
3.74541e-006
3.75752e-006
3.81143e-006
3.86289e-006
3.8927e-006
3.97068e-006
4.01727e-006
4.12688e-006
4.22398e-006
4.30465e-006
4.46849e-006
4.56826e-006
4.79238e-006
4.91411e-006
5.08063e-006
5.45679e-006
5.49019e-006
5.62817e-006
4.8079e-005
2.54811e-005
1.2669e-005
7.68122e-006
5.5374e-006
4.57342e-006
4.10696e-006
3.92643e-006
3.80793e-006
3.78055e-006
3.80057e-006
3.81034e-006
3.85822e-006
3.87953e-006
3.92771e-006
4.00898e-006
4.09045e-006
4.18047e-006
4.27002e-006
4.33262e-006
4.51337e-006
4.61528e-006
4.84924e-006
5.00591e-006
5.39408e-006
5.55071e-006
5.8738e-006
6.29704e-006
6.31213e-006
2.86101e-005
1.68789e-005
9.5183e-006
6.45943e-006
5.04116e-006
4.40722e-006
4.08455e-006
3.90909e-006
3.86843e-006
3.87728e-006
3.85734e-006
3.88287e-006
3.91615e-006
3.99118e-006
4.01125e-006
4.10975e-006
4.1587e-006
4.31165e-006
4.38077e-006
4.5535e-006
4.65486e-006
4.89443e-006
5.03442e-006
5.36253e-006
5.60618e-006
6.18843e-006
6.47378e-006
7.1047e-006
7.62925e-006
1.74913e-005
1.15374e-005
7.403e-006
5.53847e-006
4.72028e-006
4.20926e-006
4.06446e-006
3.91232e-006
3.90192e-006
3.89342e-006
3.91478e-006
3.95804e-006
3.98204e-006
4.00923e-006
4.1119e-006
4.16662e-006
4.27983e-006
4.34948e-006
4.5016e-006
4.61042e-006
4.84042e-006
4.99212e-006
5.3176e-006
5.55883e-006
5.97057e-006
6.37995e-006
7.14336e-006
7.66915e-006
8.78017e-006
1.11242e-005
8.20465e-006
5.95748e-006
4.89972e-006
4.40112e-006
4.07296e-006
4.03367e-006
3.92047e-006
3.94013e-006
3.93086e-006
3.97609e-006
3.99768e-006
4.04952e-006
4.08177e-006
4.1926e-006
4.24506e-006
4.36688e-006
4.42691e-006
4.57338e-006
4.69572e-006
4.9612e-006
5.15348e-006
5.56554e-006
5.95325e-006
6.73137e-006
7.38415e-006
8.84827e-006
9.68242e-006
1.14226e-005
7.49498e-006
6.14073e-006
5.00456e-006
4.42661e-006
4.22804e-006
3.96204e-006
4.00085e-006
3.91644e-006
3.98646e-006
3.96241e-006
4.00594e-006
4.01625e-006
4.0836e-006
4.12003e-006
4.25826e-006
4.35633e-006
4.63388e-006
5.12845e-006
6.55704e-006
9.63022e-006
1.69642e-005
3.28662e-005
5.67106e-005
0.000110038
0.000157307
0.00026103
0.000319908
0.000410895
0.000378862
5.3959e-006
4.85675e-006
4.367e-006
4.1232e-006
3.98321e-006
3.91832e-006
3.97248e-006
3.9278e-006
4.02466e-006
4.03187e-006
4.16373e-006
4.38924e-006
5.14887e-006
7.22132e-006
1.50861e-005
3.14036e-005
7.53813e-005
0.000150314
0.000325204
0.000566234
0.00104413
0.0017029
0.00259553
0.00403378
0.00535723
0.00799133
0.00960538
0.0136449
0.0136082
4.25788e-006
4.11077e-006
3.94044e-006
3.93087e-006
3.90669e-006
3.95682e-006
4.18756e-006
4.70441e-006
7.45582e-006
1.17924e-005
2.80257e-005
5.94248e-005
0.000139627
0.000297903
0.000683029
0.00117445
0.00217507
0.00337635
0.00548426
0.00798238
0.011844
0.0164886
0.0229358
0.0314032
0.0415103
0.0575389
0.0723274
0.105825
0.123238
3.60413e-006
3.72294e-006
3.96934e-006
4.54548e-006
6.06919e-006
9.80704e-006
3.04008e-005
6.42591e-005
0.000196208
0.000345881
0.000774756
0.00132745
0.00244184
0.00397193
0.00656737
0.00966531
0.0142825
0.019867
0.0278471
0.0374477
0.0509073
0.0670727
0.0898168
0.117857
0.157323
0.210062
0.280807
0.401447
0.522247
3.60761e-006
5.27044e-006
1.09779e-005
2.81655e-005
7.16941e-005
0.000165979
0.000474979
0.00089565
0.00201479
0.00311942
0.0055796
0.00836502
0.0128868
0.018546
0.0267613
0.0364738
0.0499487
0.0660385
0.0880124
0.114192
0.150383
0.193164
0.255002
0.328111
0.441198
0.577129
0.809267
1.10263
1.56
0.00151969
0.00151969
0.00151969
0.00151969
0.00151969
0.00151969
0.00151969
0.00151969
0.00151969
0.00151969
0.00151969
0.00151969
0.00151969
0.00151969
0.00151969
0.00151969
0.00151969
0.00151969
0.00151969
0.00151969
0.00151969
0.00151969
0.00151969
0.00151969
0.00151969
0.0015197
0.0015197
0.0015197
0.0015197
0.0015197
0.0015197
0.0015197
0.0015197
0.0015197
0.0015197
0.0015197
0.0015197
0.0015197
0.0015197
0.0015197
0.0015197
0.0015197
0.0015197
0.0015197
0.0015197
0.0015197
0.0015197
0.0015197
0.0015197
0.0015197
0.0015197
0.0015197
0.0015197
0.0015197
0.0015197
0.0015197
0.0015197
0.0015197
0.0015197
0.0015197
0.0015197
0.0015197
0.0015197
0.00151971
0.00151971
0.00151971
0.00151971
0.00151971
0.00151971
0.00151971
0.00151971
0.00151971
0.00151971
0.00151971
0.00151971
0.00151971
0.00151971
0.00151971
0.00151971
0.00151971
0.00151971
0.00151971
0.00151971
0.00151971
0.00151971
0.00151971
0.00151971
0.00151971
0.00151971
0.00151971
0.00151971
0.00151971
0.00151971
0.00151971
0.00151971
0.00151971
0.00151971
0.00151971
0.00151971
0.00151971
0.00151971
0.00151971
0.00151971
0.00151971
0.00151971
0.00151971
0.00151971
0.00151971
0.00151971
0.00151971
0.00151971
0.00151971
0.00151971
0.00151971
0.00151971
0.00151971
0.00151971
0.00151971
0.00151971
0.00151971
0.00151971
0.00151971
0.00151971
0.00151971
0.00151971
0.00151971
0.00151971
0.00151971
0.00151971
0.00151971
0.00151971
0.00151971
0.00151971
0.00151971
0.00151971
0.00151971
0.00151972
0.00151977
0.001542
3.28159e-005
3.28168e-005
3.28174e-005
3.2818e-005
3.28186e-005
3.28191e-005
3.28196e-005
3.28201e-005
3.28206e-005
3.28211e-005
3.28215e-005
3.2822e-005
3.28224e-005
3.28228e-005
3.28233e-005
3.28237e-005
3.28241e-005
3.28245e-005
3.28249e-005
3.28252e-005
3.28256e-005
3.2826e-005
3.28264e-005
3.28267e-005
3.28271e-005
3.28275e-005
3.28278e-005
3.28282e-005
3.28286e-005
3.28289e-005
3.28293e-005
3.28297e-005
3.283e-005
3.28304e-005
3.28307e-005
3.28311e-005
3.28314e-005
3.28318e-005
3.28321e-005
3.28325e-005
3.28328e-005
3.28331e-005
3.28335e-005
3.28338e-005
3.28342e-005
3.28345e-005
3.28348e-005
3.28352e-005
3.28355e-005
3.28358e-005
3.28361e-005
3.28365e-005
3.28368e-005
3.28371e-005
3.28374e-005
3.28377e-005
3.2838e-005
3.28383e-005
3.28386e-005
3.28389e-005
3.28391e-005
3.28394e-005
3.28396e-005
3.28399e-005
3.28402e-005
3.28404e-005
3.28406e-005
3.28409e-005
3.28411e-005
3.28413e-005
3.28416e-005
3.28418e-005
3.2842e-005
3.28422e-005
3.28424e-005
3.28426e-005
3.28427e-005
3.28429e-005
3.28431e-005
3.28433e-005
3.28434e-005
3.28436e-005
3.28437e-005
3.28438e-005
3.2844e-005
3.28441e-005
3.28442e-005
3.28443e-005
3.28444e-005
3.28445e-005
3.28446e-005
3.28447e-005
3.28448e-005
3.28448e-005
3.28449e-005
3.28449e-005
3.2845e-005
3.2845e-005
3.2845e-005
3.2845e-005
3.2845e-005
3.2845e-005
3.2845e-005
3.2845e-005
3.2845e-005
3.28449e-005
3.28449e-005
3.28448e-005
3.28447e-005
3.28446e-005
3.28445e-005
3.28443e-005
3.28442e-005
3.28439e-005
3.28436e-005
3.28433e-005
3.28429e-005
3.28424e-005
3.28421e-005
3.28419e-005
3.2842e-005
3.28422e-005
3.28425e-005
3.2843e-005
3.28437e-005
3.28444e-005
3.28451e-005
3.28456e-005
3.2846e-005
3.28464e-005
3.28467e-005
3.28474e-005
3.28477e-005
3.28489e-005
3.28493e-005
3.28511e-005
3.28597e-005
3.22191e-005
3.375e-005
1.39619e-006
1.3963e-006
1.3964e-006
1.39649e-006
1.39658e-006
1.39666e-006
1.39674e-006
1.39682e-006
1.3969e-006
1.39697e-006
1.39705e-006
1.39712e-006
1.39719e-006
1.39726e-006
1.39733e-006
1.39739e-006
1.39746e-006
1.39753e-006
1.3976e-006
1.39766e-006
1.39773e-006
1.3978e-006
1.39786e-006
1.39793e-006
1.398e-006
1.39807e-006
1.39813e-006
1.3982e-006
1.39827e-006
1.39834e-006
1.3984e-006
1.39847e-006
1.39854e-006
1.39861e-006
1.39868e-006
1.39875e-006
1.39882e-006
1.39889e-006
1.39896e-006
1.39902e-006
1.39909e-006
1.39916e-006
1.39923e-006
1.3993e-006
1.39937e-006
1.39944e-006
1.3995e-006
1.39957e-006
1.39964e-006
1.39971e-006
1.39977e-006
1.39984e-006
1.3999e-006
1.39997e-006
1.40003e-006
1.40009e-006
1.40016e-006
1.40022e-006
1.40028e-006
1.40035e-006
1.40041e-006
1.40047e-006
1.40053e-006
1.40059e-006
1.40066e-006
1.40072e-006
1.40078e-006
1.40084e-006
1.40089e-006
1.40095e-006
1.40101e-006
1.40107e-006
1.40112e-006
1.40118e-006
1.40123e-006
1.40129e-006
1.40134e-006
1.40139e-006
1.40144e-006
1.40149e-006
1.40155e-006
1.40159e-006
1.40164e-006
1.40169e-006
1.40174e-006
1.40179e-006
1.40183e-006
1.40188e-006
1.40192e-006
1.40196e-006
1.40201e-006
1.40205e-006
1.40209e-006
1.40213e-006
1.40217e-006
1.4022e-006
1.40224e-006
1.40228e-006
1.40231e-006
1.40234e-006
1.40237e-006
1.4024e-006
1.40243e-006
1.40246e-006
1.40249e-006
1.40251e-006
1.40253e-006
1.40255e-006
1.40257e-006
1.40258e-006
1.4026e-006
1.40261e-006
1.40262e-006
1.40262e-006
1.40262e-006
1.4026e-006
1.40258e-006
1.40253e-006
1.40249e-006
1.40245e-006
1.40241e-006
1.40237e-006
1.40233e-006
1.4023e-006
1.40228e-006
1.40227e-006
1.40224e-006
1.4022e-006
1.40214e-006
1.40211e-006
1.40199e-006
1.40197e-006
1.40185e-006
1.40179e-006
1.40183e-006
1.40044e-006
1.33837e-006
3.78598e-006
0.000399346
1.46523e-007
1.46527e-007
1.46531e-007
1.46535e-007
1.46539e-007
1.4654e-007
1.46543e-007
1.46542e-007
1.46542e-007
1.46542e-007
1.46542e-007
1.46541e-007
1.4654e-007
1.46538e-007
1.46537e-007
1.46535e-007
1.46533e-007
1.46531e-007
1.46529e-007
1.46526e-007
1.46523e-007
1.46521e-007
1.46518e-007
1.46515e-007
1.46512e-007
1.46508e-007
1.46505e-007
1.46502e-007
1.46499e-007
1.46496e-007
1.46492e-007
1.46489e-007
1.46486e-007
1.46482e-007
1.46479e-007
1.46476e-007
1.46472e-007
1.46467e-007
1.46464e-007
1.4646e-007
1.46457e-007
1.46453e-007
1.4645e-007
1.46447e-007
1.46444e-007
1.4644e-007
1.46437e-007
1.46433e-007
1.4643e-007
1.46427e-007
1.46424e-007
1.46421e-007
1.46418e-007
1.46416e-007
1.46413e-007
1.4641e-007
1.46408e-007
1.46405e-007
1.46403e-007
1.46401e-007
1.46398e-007
1.46396e-007
1.46394e-007
1.46393e-007
1.4639e-007
1.46389e-007
1.46387e-007
1.46385e-007
1.46383e-007
1.46381e-007
1.46379e-007
1.46376e-007
1.46374e-007
1.46372e-007
1.4637e-007
1.46368e-007
1.46367e-007
1.46365e-007
1.46364e-007
1.46363e-007
1.46361e-007
1.4636e-007
1.46359e-007
1.46357e-007
1.46356e-007
1.46355e-007
1.46354e-007
1.46353e-007
1.46352e-007
1.46351e-007
1.46349e-007
1.46348e-007
1.46347e-007
1.46346e-007
1.46345e-007
1.46344e-007
1.46343e-007
1.46342e-007
1.4634e-007
1.46339e-007
1.46338e-007
1.46337e-007
1.46335e-007
1.46334e-007
1.46332e-007
1.46331e-007
1.46329e-007
1.46327e-007
1.46325e-007
1.46322e-007
1.46319e-007
1.46316e-007
1.46313e-007
1.46309e-007
1.46304e-007
1.46298e-007
1.4629e-007
1.46281e-007
1.46271e-007
1.46261e-007
1.46251e-007
1.46241e-007
1.46231e-007
1.46221e-007
1.46212e-007
1.46203e-007
1.46192e-007
1.46181e-007
1.46167e-007
1.46153e-007
1.46138e-007
1.46117e-007
1.46116e-007
1.46062e-007
1.4608e-007
1.47871e-007
7.27109e-007
0.00010018
0.00586514
1.08686e-007
1.08661e-007
1.08638e-007
1.08613e-007
1.08587e-007
1.08558e-007
1.08529e-007
1.08498e-007
1.08465e-007
1.08428e-007
1.08392e-007
1.08354e-007
1.08314e-007
1.08274e-007
1.08231e-007
1.08188e-007
1.08143e-007
1.08097e-007
1.0805e-007
1.08001e-007
1.07953e-007
1.07903e-007
1.07852e-007
1.07801e-007
1.07749e-007
1.07698e-007
1.07645e-007
1.07592e-007
1.07537e-007
1.07482e-007
1.07428e-007
1.07374e-007
1.07318e-007
1.07263e-007
1.07208e-007
1.07151e-007
1.07097e-007
1.0704e-007
1.06985e-007
1.06929e-007
1.06873e-007
1.06819e-007
1.06764e-007
1.06709e-007
1.06654e-007
1.066e-007
1.06546e-007
1.06492e-007
1.06439e-007
1.06387e-007
1.06334e-007
1.06283e-007
1.06232e-007
1.06181e-007
1.06132e-007
1.06082e-007
1.06033e-007
1.05985e-007
1.05937e-007
1.0589e-007