/*--------------------------------*- C++ -*----------------------------------*\
| =========                 |                                                 |
| \\      /  F ield         | OpenFOAM: The Open Source CFD Toolbox           |
|  \\    /   O peration     | Version:  5.x                                   |
|   \\  /    A nd           | Web:      www.OpenFOAM.org                      |
|    \\/     M anipulation  |                                                 |
\*---------------------------------------------------------------------------*/
/*   Windows 32 and 64 bit porting by blueCAPE: http://www.bluecape.com.pt   *\
|  Based on Windows porting (2.0.x v4) by Symscape: http://www.symscape.com   |
\*---------------------------------------------------------------------------*/
FoamFile
{
    version     2.0;
    format      ascii;
    class       volScalarField;
    location    "70";
    object      k;
}
// * * * * * * * * * * * * * * * * * * * * * * * * * * * * * * * * * * * * * //

dimensions      [0 2 -2 0 0 0 0];

internalField   nonuniform List<scalar> 
43900
(
0.00102032
0.000990164
0.00099021
0.000990111
0.000990117
0.00099012
0.000990117
0.000990121
0.000990121
0.000990122
0.000990123
0.000990124
0.000990125
0.000990126
0.000990127
0.000990127
0.000990128
0.000990129
0.000990129
0.00099013
0.000990131
0.000990131
0.000990132
0.000990132
0.000990133
0.000990133
0.000990134
0.000990134
0.000990134
0.000137971
3.95957e-005
3.8608e-005
4.07737e-005
4.09783e-005
4.09657e-005
4.0962e-005
4.09671e-005
4.09685e-005
4.09705e-005
4.09723e-005
4.09739e-005
4.09754e-005
4.09769e-005
4.09783e-005
4.09796e-005
4.09809e-005
4.09821e-005
4.09833e-005
4.09844e-005
4.09854e-005
4.09864e-005
4.09873e-005
4.09882e-005
4.0989e-005
4.09898e-005
4.09906e-005
4.09913e-005
4.09917e-005
0.16724
0.0153916
0.000300917
5.62344e-006
3.06488e-006
3.22176e-006
3.26922e-006
3.26986e-006
3.27092e-006
3.27172e-006
3.27242e-006
3.27306e-006
3.27366e-006
3.2742e-006
3.2747e-006
3.27516e-006
3.27559e-006
3.27598e-006
3.27634e-006
3.27668e-006
3.277e-006
3.27729e-006
3.27757e-006
3.27783e-006
3.27808e-006
3.27831e-006
3.27854e-006
3.27875e-006
3.27895e-006
0.629954
0.195259
0.033315
0.00171445
2.82705e-005
1.22958e-006
7.92087e-007
7.84311e-007
7.84402e-007
7.84516e-007
7.84615e-007
7.84702e-007
7.84782e-007
7.84854e-007
7.84916e-007
7.84968e-007
7.85013e-007
7.8505e-007
7.85074e-007
7.85094e-007
7.85097e-007
7.85111e-007
7.85113e-007
7.85113e-007
7.85083e-007
7.85082e-007
7.85058e-007
7.85023e-007
7.84979e-007
1.04903
0.528897
0.217443
0.0505816
0.00364126
5.87655e-005
2.26247e-006
1.6934e-006
1.68899e-006
1.6895e-006
1.68999e-006
1.69043e-006
1.69083e-006
1.69121e-006
1.69151e-006
1.69177e-006
1.69195e-006
1.69205e-006
1.69196e-006
1.69206e-006
1.692e-006
1.69207e-006
1.69196e-006
1.69181e-006
1.69153e-006
1.69133e-006
1.69096e-006
1.69055e-006
1.69017e-006
1.23326
0.697037
0.366072
0.156704
0.0316667
0.00134281
2.10537e-005
1.00888e-005
1.00248e-005
1.00288e-005
1.00333e-005
1.00372e-005
1.00407e-005
1.00441e-005
1.00467e-005
1.00491e-005
1.00506e-005
1.00509e-005
1.00519e-005
1.00526e-005
1.00526e-005
1.00524e-005
1.00531e-005
1.00523e-005
1.00508e-005
1.00489e-005
1.00464e-005
1.00434e-005
1.00409e-005
1.31651
0.775685
0.435941
0.216295
0.0716947
0.00676789
0.000122452
4.70641e-005
4.67352e-005
4.67513e-005
4.67694e-005
4.67837e-005
4.67968e-005
4.68054e-005
4.68144e-005
4.68212e-005
4.68249e-005
4.68284e-005
4.68316e-005
4.68323e-005
4.68303e-005
4.68279e-005
4.68304e-005
4.68261e-005
4.68192e-005
4.68101e-005
4.67997e-005
4.67884e-005
4.6778e-005
1.32682
0.791722
0.454429
0.235156
0.0883674
0.0115598
0.00029353
0.00010249
0.000101601
0.000101605
0.000101615
0.000101621
0.000101625
0.000101631
0.000101633
0.000101634
0.000101631
0.000101633
0.000101632
0.000101627
0.000101621
0.000101616
0.000101613
0.000101605
0.000101596
0.000101586
0.000101573
0.000101557
0.000101538
1.31976
0.791061
0.456828
0.23918
0.0932059
0.0134029
0.000386396
0.000133671
0.000132445
0.00013244
0.000132443
0.000132444
0.000132445
0.000132445
0.000132444
0.00013244
0.00013244
0.00013244
0.000132436
0.000132431
0.000132423
0.000132418
0.000132413
0.000132405
0.000132394
0.000132383
0.000132372
0.000132358
0.000132352
1.30503
0.78444
0.454242
0.238411
0.0932952
0.0135596
0.000406088
0.000148132
0.000146884
0.000146876
0.000146876
0.000146874
0.000146875
0.000146873
0.00014687
0.000146867
0.000146867
0.000146864
0.000146861
0.000146857
0.000146853
0.000146847
0.000146844
0.000146838
0.000146832
0.000146825
0.000146815
0.000146812
0.000146806
1.28311
0.770608
0.44628
0.234461
0.0917806
0.0132754
0.00040511
0.000154197
0.000152918
0.00015291
0.00015291
0.000152908
0.000152907
0.000152905
0.000152903
0.000152902
0.0001529
0.000152898
0.000152895
0.000152893
0.000152888
0.000152887
0.000152884
0.000152881
0.000152879
0.000152874
0.000152871
0.000152868
0.000152863
1.25918
0.755378
0.436491
0.228334
0.0882657
0.0124209
0.000390323
0.000156574
0.000155242
0.000155234
0.000155233
0.000155232
0.00015523
0.00015523
0.000155229
0.000155227
0.000155227
0.000155225
0.000155223
0.000155222
0.000155222
0.000155221
0.000155218
0.000155214
0.000155213
0.000155211
0.00015521
0.000155207
0.000155204
1.23324
0.739045
0.426286
0.222139
0.0846671
0.0115179
0.000372825
0.000157495
0.000156088
0.00015608
0.00015608
0.000156079
0.000156078
0.000156077
0.000156079
0.000156076
0.000156076
0.000156074
0.000156072
0.000156071
0.000156072
0.000156071
0.000156069
0.000156066
0.000156065
0.000156064
0.000156065
0.000156063
0.000156059
1.20544
0.72159
0.41544
0.215625
0.0810104
0.0106705
0.000358229
0.000157892
0.000156394
0.000156383
0.000156384
0.000156383
0.000156381
0.000156381
0.000156381
0.000156378
0.000156377
0.000156376
0.000156376
0.000156376
0.000156376
0.000156375
0.000156374
0.000156372
0.00015637
0.000156371
0.000156371
0.000156371
0.000156368
1.1758
0.703037
0.40396
0.20878
0.0772389
0.00984848
0.000345632
0.00015813
0.000156517
0.000156502
0.000156502
0.000156501
0.000156499
0.0001565
0.0001565
0.000156497
0.000156495
0.000156496
0.000156496
0.000156494
0.000156491
0.000156491
0.000156491
0.00015649
0.000156488
0.000156487
0.000156488
0.000156485
0.000156486
1.14416
0.683311
0.391817
0.201595
0.0733526
0.00905243
0.000334978
0.00015834
0.000156583
0.000156563
0.000156563
0.000156561
0.000156561
0.000156562
0.000156565
0.000156563
0.000156559
0.000156559
0.000156558
0.000156556
0.000156554
0.000156553
0.000156553
0.000156552
0.000156547
0.000156546
0.000156546
0.000156547
0.000156547
1.11039
0.662342
0.378972
0.194047
0.0693473
0.00828236
0.000325924
0.00015857
0.000156639
0.000156615
0.000156615
0.000156616
0.000156613
0.00015661
0.000156611
0.000156609
0.000156607
0.000156608
0.000156609
0.000156608
0.000156605
0.000156603
0.000156603
0.000156603
0.000156602
0.0001566
0.000156597
0.000156597
0.000156596
1.07445
0.640098
0.365408
0.186129
0.065228
0.00754037
0.000318208
0.00015884
0.000156709
0.000156677
0.000156676
0.000156672
0.000156673
0.000156673
0.000156673
0.000156671
0.000156667
0.000156664
0.000156665
0.000156664
0.000156659
0.000156656
0.000156655
0.000156651
0.000156652
0.000156651
0.000156649
0.000156649
0.000156646
1.0363
0.616574
0.351127
0.177845
0.0610094
0.00683053
0.00031166
0.000159157
0.000156789
0.000156747
0.000156745
0.000156743
0.000156743
0.00015674
0.000156739
0.000156736
0.000156731
0.000156729
0.000156726
0.000156723
0.000156725
0.000156722
0.000156722
0.000156722
0.000156719
0.000156718
0.000156709
0.000156712
0.000156714
0.995965
0.591787
0.336145
0.169208
0.0567132
0.00615723
0.000306118
0.000159531
0.000156889
0.000156836
0.000156832
0.000156834
0.000156831
0.00015683
0.000156826
0.000156823
0.000156825
0.00015682
0.000156822
0.000156819
0.000156806
0.00015681
0.0001568
0.000156799
0.000156803
0.000156793
0.000156794
0.000156795
0.000156782
0.9535
0.565777
0.320492
0.160236
0.0523651
0.00552421
0.000301426
0.000159971
0.00015702
0.00015695
0.000156943
0.000156942
0.000156941
0.000156937
0.000156937
0.000156934
0.000156926
0.000156929
0.000156919
0.000156916
0.000156922
0.000156907
0.000156915
0.00015691
0.000156893
0.000156908
0.000156889
0.000156876
0.000156889
0.909
0.538608
0.30421
0.150955
0.047995
0.00493428
0.000297418
0.000160488
0.000157187
0.000157097
0.000157093
0.000157094
0.000157088
0.000157091
0.000157084
0.00015707
0.000157076
0.000157053
0.000157059
0.000157056
0.000157032
0.000157057
0.000157036
0.00015702
0.000157044
0.000157002
0.00015701
0.000157019
0.000156979
0.86261
0.510372
0.287357
0.141399
0.0436366
0.00438926
0.000293938
0.000161094
0.000157393
0.000157285
0.000157276
0.000157264
0.000157265
0.000157248
0.000157245
0.000157253
0.00015722
0.000157243
0.000157225
0.000157205
0.000157239
0.000157187
0.000157198
0.000157213
0.000157156
0.000157188
0.000157164
0.000157122
0.000157166
0.814525
0.481187
0.270006
0.131609
0.0393268
0.00388986
0.000290837
0.000161784
0.000157659
0.000157507
0.000157498
0.000157507
0.000157481
0.000157494
0.000157486
0.000157443
0.000157483
0.00015743
0.000157431
0.000157454
0.000157392
0.000157418
0.000157408
0.000157347
0.00015739
0.000157352
0.000157319
0.000157369
0.000157305
0.764987
0.4512
0.252245
0.121632
0.0351046
0.00343557
0.000287954
0.000162604
0.000157955
0.000157794
0.000157785
0.000157747
0.000157778
0.000157747
0.000157728
0.000157765
0.0001577
0.000157714
0.000157714
0.000157643
0.000157661
0.00015767
0.000157596
0.00015764
0.000157607
0.000157566
0.000157627
0.00015754
0.000157556
0.71429
0.420585
0.234174
0.111525
0.0310105
0.00302499
0.000285198
0.000163477
0.000158408
0.000158136
0.000158105
0.000158148
0.000158077
0.00015809
0.000158106
0.000158028
0.000158025
0.000158035
0.000157964
0.000157974
0.00015803
0.000157909
0.000157976
0.000157938
0.000157849
0.000157951
0.000157832
0.000157829
0.000157845
0.662774
0.38954
0.215908
0.101352
0.0270847
0.00265572
0.000282327
0.000164598
0.000158803
0.000158568
0.000158557
0.000158465
0.000158526
0.000158497
0.000158411
0.000158428
0.000158522
0.000158378
0.000158391
0.000158458
0.000158291
0.000158403
0.000158346
0.000158205
0.000158359
0.000158205
0.000158188
0.00015824
0.000158106
0.610821
0.358286
0.197573
0.0911862
0.0233674
0.00232501
0.000279398
0.000165599
0.000159529
0.000159069
0.000158996
0.000159071
0.000158959
0.000158974
0.000159013
0.000159026
0.000158855
0.000158962
0.000158977
0.000158762
0.000158913
0.000158829
0.000158665
0.000158851
0.000158667
0.000158653
0.000158743
0.000158536
0.000158597
0.558845
0.327063
0.179301
0.0811112
0.0198946
0.00202947
0.000275976
0.000167097
0.000160103
0.000159682
0.000159695
0.000159587
0.000159686
0.000159564
0.0001595
0.000159488
0.000159655
0.000159511
0.000159336
0.000159565
0.000159421
0.000159254
0.000159474
0.000159236
0.000159252
0.000159347
0.000159082
0.000159146
0.000159047
0.507289
0.296127
0.161234
0.0712199
0.0167003
0.00176621
0.000272472
0.000168249
0.000161051
0.000160525
0.000160366
0.000160407
0.000160273
0.000160412
0.000160401
0.000160318
0.000160146
0.000160224
0.000160398
0.000160076
0.000159996
0.000160276
0.00015996
0.000160005
0.000159967
0.0001597
0.000159873
0.000159751
0.000159609
0.456606
0.265739
0.143515
0.061619
0.0138101
0.00153209
0.000268173
0.000169957
0.000162139
0.000161271
0.000161234
0.000161278
0.000161379
0.00016113
0.000161072
0.000161221
0.000161222
0.000161114
0.000160911
0.000161016
0.000161158
0.000160788
0.000160843
0.000160759
0.00016068
0.000160732
0.000160449
0.000160442
0.000160398
0.407252
0.236166
0.126288
0.0524238
0.0112451
0.00132458
0.000263772
0.000171489
0.000163172
0.000162458
0.000162489
0.00016234
0.000162136
0.000162309
0.000162344
0.0001622
0.000162008
0.000162106
0.000162157
0.000161989
0.000161762
0.000161931
0.000161832
0.000161645
0.000161545
0.000161525
0.000161519
0.000161296
0.000161383
0.359666
0.207669
0.109698
0.0437608
0.00901351
0.00114193
0.000258712
0.000173257
0.00016462
0.000163883
0.000163401
0.000163477
0.000163695
0.000163514
0.000163467
0.000163286
0.000163483
0.000163373
0.000163087
0.000163336
0.000163193
0.000162834
0.000162863
0.000162893
0.000163086
0.000162602
0.000162318
0.000162511
0.000162116
0.314262
0.1805
0.0938859
0.0357618
0.00711774
0.000981835
0.000253582
0.000174827
0.000166533
0.000164975
0.000165061
0.000165202
0.000164784
0.000164972
0.000164872
0.000165045
0.000164676
0.000164716
0.000164962
0.00016441
0.000164646
0.00016458
0.000164151
0.00016423
0.000163936
0.000164231
0.000164032
0.000163373
0.000163574
0.271408
0.154887
0.0789954
0.0285479
0.00554154
0.000843701
0.000248007
0.0001774
0.000167779
0.00016699
0.000166867
0.000166435
0.000166783
0.000166442
0.000166686
0.000166464
0.000166728
0.000166465
0.000166031
0.000166411
0.000166163
0.000166158
0.000166117
0.000165524
0.000165713
0.00016535
0.000165438
0.000165451
0.000164813
0.231426
0.131036
0.0651666
0.0222304
0.00426721
0.000725278
0.000243142
0.00017862
0.000170417
0.00016893
0.000168398
0.000168695
0.000168521
0.000168673
0.000168394
0.000168512
0.000168257
0.000168477
0.000168447
0.00016809
0.000168274
0.000168101
0.000167772
0.000168009
0.000167388
0.000167526
0.000167387
0.000166775
0.000166851
0.194578
0.109113
0.0525499
0.0168712
0.00325651
0.000626055
0.000237736
0.000181515
0.000172305
0.000170675
0.00017105
0.000170814
0.000170478
0.000170775
0.000170731
0.00017063
0.000171007
0.000170559
0.000170497
0.000170833
0.000170039
0.00017031
0.000170509
0.000169823
0.000169903
0.00016945
0.000169613
0.000169402
0.000168516
0.161069
0.0892547
0.0412921
0.012496
0.0024775
0.000543476
0.000233972
0.000182991
0.000175288
0.000174188
0.00017278
0.00017302
0.000173736
0.000172949
0.000173295
0.000173414
0.000172918
0.000173409
0.000173531
0.000172783
0.000173371
0.00017279
0.000172679
0.000173086
0.000172525
0.000172472
0.000171591
0.000171728
0.00017168
0.131037
0.0715505
0.0315345
0.00906057
0.00188659
0.000477245
0.000229634
0.000186447
0.000177585
0.00017576
0.000176352
0.000176033
0.000175431
0.000176335
0.000176045
0.000175811
0.000176595
0.000176257
0.00017583
0.000176467
0.000176154
0.000176316
0.000176053
0.000175288
0.00017578
0.00017517
0.000175263
0.000174563
0.000174253
0.104558
0.0560626
0.0233739
0.00646891
0.00144882
0.000423186
0.000227782
0.000188095
0.000180633
0.00018007
0.000178504
0.000178547
0.000179451
0.000179001
0.000179094
0.000179754
0.000179002
0.000179522
0.000180415
0.000179406
0.00017956
0.000179484
0.000179919
0.000179733
0.000178613
0.00017908
0.000178621
0.000178758
0.000178164
0.0816354
0.0428161
0.0168298
0.00458635
0.00112692
0.00038302
0.000225121
0.000191991
0.000184283
0.00018183
0.000182498
0.000182353
0.000181905
0.000182581
0.000182751
0.000182728
0.000183559
0.000183334
0.000182796
0.000184061
0.00018381
0.000184024
0.000183401
0.000183903
0.000184018
0.000182883
0.000182977
0.000181932
0.000182507
0.062212
0.0317995
0.011823
0.00325586
0.000896356
0.000349275
0.000224861
0.000194332
0.000186587
0.000186249
0.000185092
0.000186045
0.000186432
0.00018554
0.000186254
0.00018659
0.000187144
0.000188321
0.000188085
0.000187441
0.000188554
0.000188345
0.000189113
0.000188322
0.000188256
0.000188478
0.000187684
0.000187843
0.000186642
0.0461543
0.0229518
0.00815784
0.00234037
0.000726517
0.000326954
0.000224267
0.000197763
0.000191931
0.000188697
0.000189799
0.000189091
0.000188843
0.000190636
0.000191015
0.000191311
0.000191056
0.000191081
0.000192606
0.000194153
0.000193162
0.00019389
0.00019348
0.000194695
0.000194723
0.000194287
0.000194236
0.000193224
0.000193199
0.0332666
0.0161182
0.00558786
0.00170995
0.000608403
0.000307443
0.000225119
0.000202222
0.000194196
0.000193352
0.000192117
0.000193119
0.000194615
0.000194485
0.000194471
0.000194787
0.000196054
0.000197445
0.000197782
0.000198072
0.000199976
0.000199972
0.000201092
0.000200229
0.000200949
0.000200939
0.000200819
0.000200904
0.000199514
0.0232688
0.0110652
0.00383228
0.00128386
0.000517558
0.000295156
0.00022614
0.00020473
0.000198645
0.000196796
0.000197862
0.000196859
0.000197248
0.000198691
0.000199201
0.000200268
0.000201696
0.000202156
0.000203896
0.000204929
0.00020472
0.00020636
0.000206715
0.000209635
0.000208777
0.000209754
0.000208891
0.000208785
0.000208443
0.0158075
0.00747116
0.00266027
0.000984492
0.000455633
0.000283756
0.0002283
0.000209775
0.000202918
0.000201564
0.00019977
0.000202289
0.000202186
0.000201886
0.000203585
0.000205816
0.000206757
0.00020808
0.000208357
0.000209382
0.000213135
0.00021399
0.000215967
0.000216142
0.000218982
0.000218715
0.000220114
0.000219603
0.000219271
0.0104616
0.00500455
0.00187597
0.000780067
0.000403679
0.000276578
0.00022952
0.000212227
0.000207403
0.00020449
0.000205794
0.000204873
0.000206218
0.000208749
0.000208476
0.000209347
0.00021033
0.00021331
0.000216426
0.00021712
0.000218611
0.000222955
0.000224678
0.000228263
0.000227755
0.000230126
0.000229515
0.000231178
0.000230304
0.00678163
0.00334905
0.00135309
0.00062895
0.000368787
0.000268679
0.000231855
0.000217611
0.000209827
0.000209566
0.000208286
0.00021049
0.00021024
0.000211082
0.000214341
0.0002152
0.000217176
0.000218103
0.000220346
0.000225924
0.000227665
0.000229538
0.000233015
0.000235396
0.000242395
0.000242474
0.000245847
0.000244976
0.000246265
0.00433778
0.0022559
0.000996713
0.000523026
0.000336339
0.000263821
0.000232269
0.000219969
0.000215585
0.000212326
0.000213519
0.000212868
0.000215552
0.000216135
0.000217303
0.000219834
0.000222206
0.000224962
0.000227842
0.000230044
0.000235735
0.000238047
0.000243954
0.000246174
0.000250027
0.000259936
0.00026075
0.000265103
0.000264194
0.00276118
0.00153677
0.000753201
0.000441289
0.000313531
0.000256964
0.000233974
0.000221951
0.000217462
0.000217328
0.000216457
0.000217761
0.000218258
0.000220497
0.000222842
0.000224072
0.000227194
0.000229119
0.000233588
0.000237793
0.000241082
0.000247733
0.000251675
0.000260315
0.00026535
0.000271304
0.000284728
0.00028581
0.000289565
0.00176611
0.00106515
0.000583242
0.000381172
0.000292643
0.000252304
0.000232757
0.000225841
0.000220867
0.000219435
0.000220349
0.000220794
0.000222911
0.000223774
0.000225717
0.00022917
0.000232603
0.000236067
0.000239663
0.000242212
0.00024944
0.000253517
0.000262804
0.000268788
0.000283474
0.000289243
0.000301222
0.000315577
0.000316875
0.00114645
0.000755335
0.000463865
0.000335163
0.000274572
0.000247165
0.000232692
0.000225401
0.000223456
0.000223706
0.00022282
0.000223907
0.000225359
0.000228697
0.000229537
0.000233541
0.000235535
0.000241722
0.00024449
0.000251295
0.000255259
0.000264559
0.000269895
0.000282366
0.000291222
0.000312026
0.000321252
0.00034375
0.00035658
0.000763874
0.000551577
0.000379948
0.000298705
0.000262254
0.000239654
0.00023268
0.000225829
0.000225206
0.000224556
0.000225455
0.000227352
0.00022839
0.000229538
0.000233818
0.000236058
0.000240573
0.000243389
0.000249526
0.000253857
0.000262926
0.000268881
0.000281724
0.000290296
0.000308275
0.000321172
0.000349973
0.00036628
0.000405194
0.000527779
0.000417187
0.000319828
0.000272038
0.000248964
0.000234092
0.000231892
0.000226132
0.000226727
0.000226297
0.000228157
0.000229089
0.000231346
0.000232699
0.000237296
0.000239606
0.000244787
0.000246979
0.000252523
0.000257154
0.000267203
0.000273861
0.000288414
0.000299525
0.000323248
0.000340881
0.000380952
0.000405693
0.000456813
0.000383483
0.000329428
0.000278181
0.000251133
0.000241374
0.000228923
0.00022994
0.000225969
0.000228561
0.000227521
0.000229346
0.000229781
0.000232627
0.000234031
0.000239397
0.000242208
0.000250807
0.000260731
0.000287125
0.000336899
0.000443691
0.000669698
0.000954028
0.00157036
0.00203356
0.00293986
0.00347678
0.00375658
0.0033757
0.000294749
0.000272291
0.00024918
0.00023719
0.00023024
0.000226337
0.000228152
0.000226204
0.000229907
0.000229739
0.00023413
0.000238939
0.000254612
0.000291711
0.000428257
0.000672995
0.00131235
0.00226296
0.00434717
0.00705711
0.0116189
0.0175723
0.0244674
0.0348035
0.0428117
0.0574881
0.0641099
0.079215
0.0737523
0.000243939
0.00023746
0.000228794
0.000227708
0.000225868
0.000227428
0.00023455
0.00024702
0.000309473
0.000386774
0.000672901
0.0011443
0.00230488
0.00424955
0.00877471
0.0136865
0.0228251
0.0328113
0.0480676
0.0650304
0.0875614
0.113537
0.143647
0.18291
0.21989
0.280722
0.321836
0.42419
0.429939
0.00021392
0.000219241
0.000229388
0.000250389
0.000294488
0.000378284
0.000840231
0.00138131
0.00339374
0.00518056
0.0100071
0.0154136
0.0249988
0.037026
0.0547337
0.0741628
0.0995575
0.128375
0.164652
0.206275
0.2569
0.316365
0.386502
0.474488
0.5719
0.712782
0.846397
1.11711
1.2485
0.000213244
0.00027659
0.000453359
0.000895551
0.00177281
0.00309794
0.00734049
0.0114368
0.0216006
0.0295016
0.0458751
0.0629578
0.0859626
0.114014
0.149594
0.189624
0.238441
0.294005
0.361327
0.438767
0.532388
0.641367
0.774607
0.935069
1.1329
1.38962
1.70615
2.17563
2.59375
0.000990135
0.000990135
0.000990136
0.000990136
0.000990137
0.000990137
0.000990138
0.000990138
0.000990138
0.000990139
0.000990139
0.000990139
0.00099014
0.00099014
0.00099014
0.000990141
0.000990141
0.000990141
0.000990142
0.000990142
0.000990142
0.000990143
0.000990143
0.000990143
0.000990143
0.000990144
0.000990144
0.000990144
0.000990145
0.000990145
0.000990145
0.000990145
0.000990146
0.000990146
0.000990146
0.000990146
0.000990147
0.000990147
0.000990147
0.000990148
0.000990148
0.000990148
0.000990148
0.000990149
0.000990149
0.000990149
0.000990149
0.00099015
0.00099015
0.00099015
0.00099015
0.000990151
0.000990151
0.000990151
0.000990151
0.000990152
0.000990152
0.000990152
0.000990152
0.000990152
0.000990153
0.000990153
0.000990153
0.000990153
0.000990153
0.000990154
0.000990154
0.000990154
0.000990154
0.000990154
0.000990154
0.000990155
0.000990155
0.000990155
0.000990155
0.000990155
0.000990155
0.000990155
0.000990156
0.000990156
0.000990156
0.000990156
0.000990156
0.000990156
0.000990156
0.000990156
0.000990156
0.000990156
0.000990156
0.000990156
0.000990157
0.000990157
0.000990157
0.000990157
0.000990157
0.000990157
0.000990157
0.000990157
0.000990157
0.000990157
0.000990157
0.000990157
0.000990157
0.000990157
0.000990156
0.000990156
0.000990156
0.000990156
0.000990156
0.000990156
0.000990156
0.000990156
0.000990156
0.000990155
0.000990155
0.000990155
0.000990154
0.000990154
0.000990154
0.000990154
0.000990154
0.000990154
0.000990154
0.000990155
0.000990156
0.000990156
0.000990157
0.000990157
0.000990158
0.000990158
0.000990158
0.000990159
0.000990159
0.000990161
0.000990161
0.000990162
0.000990163
0.00099023
0.0010082
4.09926e-005
4.09937e-005
4.09945e-005
4.09953e-005
4.0996e-005
4.09967e-005
4.09974e-005
4.0998e-005
4.09986e-005
4.09992e-005
4.09998e-005
4.10004e-005
4.1001e-005
4.10015e-005
4.1002e-005
4.10026e-005
4.10031e-005
4.10036e-005
4.10041e-005
4.10046e-005
4.10051e-005
4.10056e-005
4.1006e-005
4.10065e-005
4.1007e-005
4.10075e-005
4.10079e-005
4.10084e-005
4.10089e-005
4.10093e-005
4.10098e-005
4.10103e-005
4.10107e-005
4.10112e-005
4.10116e-005
4.10121e-005
4.10125e-005
4.1013e-005
4.10134e-005
4.10139e-005
4.10143e-005
4.10147e-005
4.10152e-005
4.10156e-005
4.10161e-005
4.10165e-005
4.10169e-005
4.10173e-005
4.10178e-005
4.10182e-005
4.10186e-005
4.1019e-005
4.10194e-005
4.10198e-005
4.10202e-005
4.10206e-005
4.1021e-005
4.10214e-005
4.10218e-005
4.10221e-005
4.10225e-005
4.10228e-005
4.10232e-005
4.10235e-005
4.10238e-005
4.10242e-005
4.10245e-005
4.10248e-005
4.10251e-005
4.10254e-005
4.10257e-005
4.1026e-005
4.10262e-005
4.10265e-005
4.10268e-005
4.1027e-005
4.10273e-005
4.10275e-005
4.10277e-005
4.1028e-005
4.10282e-005
4.10284e-005
4.10286e-005
4.10288e-005
4.1029e-005
4.10291e-005
4.10293e-005
4.10295e-005
4.10296e-005
4.10298e-005
4.10299e-005
4.103e-005
4.10301e-005
4.10302e-005
4.10303e-005
4.10304e-005
4.10305e-005
4.10305e-005
4.10306e-005
4.10306e-005
4.10306e-005
4.10307e-005
4.10307e-005
4.10307e-005
4.10307e-005
4.10306e-005
4.10306e-005
4.10305e-005
4.10304e-005
4.10303e-005
4.10302e-005
4.10301e-005
4.10299e-005
4.10296e-005
4.10293e-005
4.10289e-005
4.10283e-005
4.10277e-005
4.10273e-005
4.1027e-005
4.1027e-005
4.10272e-005
4.10275e-005
4.10281e-005
4.1029e-005
4.10299e-005
4.10306e-005
4.10312e-005
4.10316e-005
4.10322e-005
4.10325e-005
4.10333e-005
4.10335e-005
4.1035e-005
4.10356e-005
4.10377e-005
4.10559e-005
3.95539e-005
4.21189e-005
3.27919e-006
3.27945e-006
3.27969e-006
3.27992e-006
3.28014e-006
3.28035e-006
3.28056e-006
3.28076e-006
3.28095e-006
3.28114e-006
3.28133e-006
3.28152e-006
3.2817e-006
3.28188e-006
3.28206e-006
3.28224e-006
3.28242e-006
3.2826e-006
3.28277e-006
3.28295e-006
3.28313e-006
3.28331e-006
3.28349e-006
3.28367e-006
3.28385e-006
3.28403e-006
3.28421e-006
3.2844e-006
3.28458e-006
3.28476e-006
3.28495e-006
3.28513e-006
3.28531e-006
3.2855e-006
3.28569e-006
3.28587e-006
3.28606e-006
3.28625e-006
3.28644e-006
3.28663e-006
3.28681e-006
3.287e-006
3.28719e-006
3.28737e-006
3.28756e-006
3.28774e-006
3.28793e-006
3.28811e-006
3.28829e-006
3.28848e-006
3.28866e-006
3.28883e-006
3.28901e-006
3.28919e-006
3.28936e-006
3.28953e-006
3.28971e-006
3.28988e-006
3.29005e-006
3.29022e-006
3.29039e-006
3.29056e-006
3.29073e-006
3.29089e-006
3.29106e-006
3.29122e-006
3.29139e-006
3.29155e-006
3.2917e-006
3.29186e-006
3.29201e-006
3.29217e-006
3.29233e-006
3.29248e-006
3.29263e-006
3.29277e-006
3.29291e-006
3.29306e-006
3.2932e-006
3.29333e-006
3.29347e-006
3.29361e-006
3.29374e-006
3.29387e-006
3.294e-006
3.29412e-006
3.29425e-006
3.29437e-006
3.29449e-006
3.29461e-006
3.29472e-006
3.29483e-006
3.29495e-006
3.29505e-006
3.29516e-006
3.29526e-006
3.29536e-006
3.29546e-006
3.29555e-006
3.29564e-006
3.29573e-006
3.29581e-006
3.29589e-006
3.29596e-006
3.29604e-006
3.2961e-006
3.29617e-006
3.29623e-006
3.29628e-006
3.29633e-006
3.29637e-006
3.29641e-006
3.29644e-006
3.29646e-006
3.29647e-006
3.29645e-006
3.29639e-006
3.29629e-006
3.29619e-006
3.29608e-006
3.29599e-006
3.29589e-006
3.29581e-006
3.29574e-006
3.29571e-006
3.29566e-006
3.29559e-006
3.29551e-006
3.29536e-006
3.29527e-006
3.29502e-006
3.29493e-006
3.29468e-006
3.29448e-006
3.2946e-006
3.28868e-006
3.04734e-006
2.00152e-005
0.0029707
7.84914e-007
7.8487e-007
7.84814e-007
7.84757e-007
7.84691e-007
7.84625e-007
7.84552e-007
7.84478e-007
7.84394e-007
7.84311e-007
7.84222e-007
7.84128e-007
7.8403e-007
7.8393e-007
7.83825e-007
7.83717e-007
7.83607e-007
7.83491e-007
7.83376e-007
7.83256e-007
7.83136e-007
7.83012e-007
7.82885e-007
7.82759e-007
7.82629e-007
7.82499e-007
7.82368e-007
7.82234e-007
7.82104e-007
7.81968e-007
7.81832e-007
7.81696e-007
7.8156e-007
7.81421e-007
7.81284e-007
7.81145e-007
7.81009e-007
7.80851e-007
7.8071e-007
7.80571e-007
7.8043e-007
7.8029e-007
7.80151e-007
7.80013e-007
7.7988e-007
7.79742e-007
7.79604e-007
7.79467e-007
7.79332e-007
7.792e-007
7.79068e-007
7.78938e-007
7.78807e-007
7.78679e-007
7.78551e-007
7.78426e-007
7.78303e-007
7.78179e-007
7.78056e-007
7.77938e-007
7.77819e-007
7.77703e-007
7.77591e-007
7.77479e-007
7.77366e-007
7.77257e-007
7.77147e-007
7.7704e-007
7.76934e-007
7.76832e-007
7.76731e-007
7.76611e-007
7.76508e-007
7.76409e-007
7.76311e-007
7.76216e-007
7.76122e-007
7.76032e-007
7.75942e-007
7.75853e-007
7.75766e-007
7.75681e-007
7.75597e-007
7.75514e-007
7.75433e-007
7.75356e-007
7.7528e-007
7.75206e-007
7.75132e-007
7.75059e-007
7.74987e-007
7.74917e-007
7.7485e-007
7.74782e-007
7.74718e-007
7.74655e-007
7.74592e-007
7.7453e-007
7.7447e-007
7.74413e-007
7.74357e-007
7.74303e-007
7.74247e-007
7.74196e-007
7.74143e-007
7.74094e-007
7.74042e-007
7.73994e-007
7.73945e-007
7.73897e-007
7.73849e-007
7.73803e-007
7.73753e-007
7.73704e-007
7.73654e-007
7.73603e-007
7.73548e-007
7.73491e-007
7.73435e-007
7.73379e-007
7.73327e-007
7.73276e-007
7.73226e-007
7.7318e-007
7.73135e-007
7.73092e-007
7.73044e-007
7.72999e-007
7.72944e-007
7.72906e-007
7.72828e-007
7.7282e-007
7.72707e-007
7.72724e-007
7.72852e-007
8.1042e-007
7.54518e-006
0.0012081
0.0454536
1.68963e-006
1.689e-006
1.68839e-006
1.68774e-006
1.68707e-006
1.68634e-006
1.68557e-006
1.68478e-006
1.68394e-006
1.68305e-006
1.68212e-006
1.68117e-006
1.68017e-006
1.67914e-006
1.67807e-006
1.67697e-006
1.67584e-006
1.67469e-006
1.6735e-006
1.67227e-006
1.67105e-006
1.66981e-006
1.66852e-006
1.66724e-006
1.66593e-006
1.66463e-006
1.66329e-006
1.66196e-006
1.66061e-006
1.65925e-006
1.65788e-006
1.65652e-006
1.65513e-006
1.65374e-006
1.65236e-006
1.65095e-006
1.64958e-006
1.64816e-006
1.64679e-006
1.64538e-006
1.64398e-006
1.64263e-006
1.64125e-006
1.63988e-006
1.63852e-006
1.63717e-006
1.63582e-006
1.63449e-006
1.63315e-006
1.63185e-006
1.63055e-006
1.62925e-006
1.62799e-006
1.62672e-006
1.62548e-006
1.62425e-006
1.62302e-006
1.62181e-006
1.62062e-006
1.61945e-006
1.61827e-006
1.61711e-006
1.61601e-006
1.61488e-006
1.61376e-006
1.61268e-006
1.61159e-006
1.61052e-006
1.60948e-006
1.60845e-006
1.60744e-006
1.60641e-006
1.60541e-006
1.60445e-006
1.60349e-006
1.60255e-006
1.60162e-006
1.60073e-006
1.59984e-006
1.59895e-006
1.59809e-006
1.59724e-006
1.59641e-006
1.59559e-006
1.59479e-006
1.59402e-006
1.59327e-006
1.59251e-006
1.59179e-006
1.59107e-006
1.59036e-006
1.58969e-006
1.58901e-006
1.58834e-006
1.58771e-006
1.58708e-006
1.58647e-006
1.58586e-006
1.58528e-006
1.58472e-006
1.58417e-006
1.58363e-006
1.58312e-006
1.58261e-006
1.58211e-006
1.58163e-006
1.58115e-006
1.58069e-006
1.58027e-006
1.57985e-006
1.57944e-006
1.57905e-006
1.57867e-006
1.5783e-006
1.57794e-006
1.57757e-006
1.57721e-006
1.57682e-006
1.57644e-006
1.57605e-006
1.57568e-006
1.57533e-006
1.57497e-006
1.57464e-006
1.57432e-006
1.574e-006
1.57369e-006
1.57349e-006
1.57294e-006
1.57313e-006
1.57206e-006
1.57294e-006
1.57104e-006
1.57316e-006
1.58824e-006
5.80252e-006
0.00062112
0.0258792
0.229443
1.00375e-005
1.00329e-005
1.00283e-005
1.00235e-005
1.00184e-005
1.00128e-005
1.0007e-005
1.00008e-005
9.99418e-006
9.98713e-006
9.9798e-006
9.97214e-006
9.96397e-006
9.95575e-006
9.94704e-006
9.93809e-006
9.92869e-006
9.91936e-006
9.90953e-006
9.89945e-006
9.88935e-006
9.87916e-006
9.86856e-006
9.85784e-006
9.84708e-006
9.83627e-006
9.82525e-006
9.81428e-006
9.80307e-006