/*--------------------------------*- C++ -*----------------------------------*\
| =========                 |                                                 |
| \\      /  F ield         | OpenFOAM: The Open Source CFD Toolbox           |
|  \\    /   O peration     | Version:  5.x                                   |
|   \\  /    A nd           | Web:      www.OpenFOAM.org                      |
|    \\/     M anipulation  |                                                 |
\*---------------------------------------------------------------------------*/
/*   Windows 32 and 64 bit porting by blueCAPE: http://www.bluecape.com.pt   *\
|  Based on Windows porting (2.0.x v4) by Symscape: http://www.symscape.com   |
\*---------------------------------------------------------------------------*/
FoamFile
{
    version     2.0;
    format      ascii;
    class       volScalarField;
    location    "70";
    object      nut;
}
// * * * * * * * * * * * * * * * * * * * * * * * * * * * * * * * * * * * * * //

dimensions      [0 2 -1 0 0 0 0];

internalField   nonuniform List<scalar> 
43900
(
6.01223e-005
5.80627e-005
5.80666e-005
5.80583e-005
5.80587e-005
5.80589e-005
5.80587e-005
5.8059e-005
5.8059e-005
5.80591e-005
5.80592e-005
5.80592e-005
5.80593e-005
5.80594e-005
5.80594e-005
5.80595e-005
5.80595e-005
5.80596e-005
5.80596e-005
5.80597e-005
5.80597e-005
5.80598e-005
5.80598e-005
5.80598e-005
5.80599e-005
5.80599e-005
5.806e-005
5.806e-005
5.806e-005
2.53294e-005
4.4236e-006
4.25778e-006
4.57487e-006
4.60761e-006
4.60548e-006
4.60505e-006
4.60558e-006
4.60576e-006
4.60599e-006
4.6062e-006
4.60639e-006
4.60658e-006
4.60675e-006
4.60692e-006
4.60708e-006
4.60723e-006
4.60737e-006
4.60751e-006
4.60764e-006
4.60776e-006
4.60787e-006
4.60798e-006
4.60808e-006
4.60818e-006
4.60828e-006
4.60837e-006
4.60845e-006
4.6085e-006
0.0867098
0.0128592
0.000260348
1.57514e-006
6.38342e-007
6.76332e-007
6.9094e-007
6.91188e-007
6.91408e-007
6.91572e-007
6.91716e-007
6.9185e-007
6.91975e-007
6.92088e-007
6.92193e-007
6.9229e-007
6.92379e-007
6.92461e-007
6.92539e-007
6.9261e-007
6.92679e-007
6.92742e-007
6.92801e-007
6.92856e-007
6.92911e-007
6.92961e-007
6.9301e-007
6.93058e-007
6.93102e-007
0.332165
0.154587
0.0395843
0.00278546
3.88392e-005
7.52478e-007
3.87235e-007
3.78844e-007
3.78778e-007
3.78805e-007
3.78823e-007
3.78837e-007
3.78843e-007
3.78848e-007
3.78849e-007
3.78846e-007
3.7884e-007
3.78833e-007
3.78819e-007
3.78803e-007
3.78778e-007
3.78758e-007
3.78734e-007
3.78709e-007
3.78665e-007
3.78638e-007
3.78599e-007
3.78552e-007
3.78498e-007
0.592481
0.413645
0.236346
0.0769296
0.00743113
0.000131847
3.4021e-006
2.37138e-006
2.36373e-006
2.36502e-006
2.36593e-006
2.36666e-006
2.36733e-006
2.36799e-006
2.36849e-006
2.36892e-006
2.36921e-006
2.3693e-006
2.3688e-006
2.36892e-006
2.36838e-006
2.36877e-006
2.36847e-006
2.36822e-006
2.36741e-006
2.36762e-006
2.36691e-006
2.36609e-006
2.36521e-006
0.727442
0.554151
0.389296
0.225634
0.0627134
0.00342467
6.6205e-005
3.87377e-005
3.86074e-005
3.86375e-005
3.86649e-005
3.86841e-005
3.8702e-005
3.87196e-005
3.87325e-005
3.87447e-005
3.87481e-005
3.87338e-005
3.87403e-005
3.87452e-005
3.87427e-005
3.87367e-005
3.87636e-005
3.87627e-005
3.87545e-005
3.87484e-005
3.8736e-005
3.87132e-005
3.86937e-005
0.794523
0.623488
0.462329
0.303078
0.136677
0.0173883
0.000435407
0.000248182
0.000247967
0.000248138
0.000248312
0.000248414
0.000248509
0.000248515
0.00024858
0.000248607
0.000248545
0.000248569
0.000248602
0.000248607
0.000248579
0.000248499
0.000248737
0.000248739
0.000248702
0.000248652
0.000248609
0.000248563
0.000248463
0.809821
0.641892
0.484348
0.328904
0.166659
0.029714
0.00108507
0.000581484
0.000580491
0.000580554
0.000580658
0.000580713
0.000580643
0.00058074
0.000580766
0.000580774
0.000580627
0.000580873
0.000580884
0.00058083
0.000580762
0.000580677
0.000580874
0.000580866
0.000580853
0.000580773
0.00058062
0.000580469
0.000580204
0.813308
0.645822
0.489696
0.336085
0.17637
0.03471
0.00145712
0.000772607
0.000770934
0.000770904
0.000770935
0.000770927
0.000771015
0.000771007
0.000770992
0.000770923
0.000771085
0.000771207
0.000771193
0.000771131
0.000771041
0.000770968
0.000771067
0.000770966
0.000770839
0.000770706
0.000770637
0.00077044
0.000770667
0.811621
0.646044
0.489969
0.336412
0.177058
0.0353533
0.00156471
0.000862717
0.000860876
0.000860816
0.000860808
0.000860766
0.000860876
0.000860847
0.000860817
0.000860756
0.000860891
0.000860851
0.000860873
0.000860824
0.000860804
0.000860723
0.000860764
0.000860695
0.000860694
0.000860601
0.000860458
0.000860624
0.000860557
0.803184
0.639025
0.485287
0.333473
0.175228
0.0347099
0.00157259
0.000900589
0.000898703
0.000898652
0.000898694
0.000898679
0.000898665
0.000898626
0.000898633
0.000898624
0.000898597
0.000898632
0.000898591
0.000898571
0.000898496
0.000898595
0.000898557
0.00089851
0.000898537
0.000898481
0.000898542
0.000898508
0.000898439
0.793657
0.630786
0.477951
0.327158
0.169963
0.0326543
0.00152485
0.000915137
0.000913366
0.000913325
0.000913379
0.000913367
0.00091334
0.000913304
0.000913369
0.000913353
0.00091334
0.000913285
0.000913292
0.000913273
0.000913389
0.000913381
0.00091334
0.000913234
0.000913243
0.000913213
0.000913287
0.00091325
0.000913202
0.783384
0.622074
0.470546
0.320894
0.164388
0.0304427
0.00146273
0.000920397
0.000918764
0.000918729
0.000918805
0.000918796
0.000918772
0.000918688
0.00091885
0.000918803
0.000918801
0.000918756
0.000918728
0.000918683
0.000918805
0.000918795
0.000918757
0.00091867
0.00091866
0.000918649
0.000918741
0.000918714
0.000918613
0.772324
0.612724
0.462664
0.314311
0.15876
0.028372
0.00141092
0.000922246
0.000920756
0.000920712
0.0009208
0.000920788
0.000920765
0.000920759
0.000920709
0.000920717
0.0009207
0.000920635
0.0009207
0.000920699
0.000920725
0.000920713
0.000920698
0.000920663
0.00092068
0.000920679
0.000920748
0.000920741
0.000920729
0.760443
0.602707
0.454253
0.307337
0.152888
0.0263452
0.00136509
0.000922931
0.000921605
0.000921562
0.00092157
0.000921559
0.00092153
0.000921532
0.000921556
0.000921529
0.000921567
0.000921575
0.000921572
0.0009215
0.000921487
0.000921481
0.000921564
0.000921556
0.000921515
0.00092145
0.000921505
0.000921437
0.000921577
0.747666
0.591968
0.445275
0.29994
0.146747
0.0243604
0.001325
0.000923183
0.000922042
0.000921943
0.000921936
0.000921916
0.00092195
0.000921956
0.000922081
0.000922064
0.000922084
0.000922079
0.00092206
0.000921941
0.000921946
0.000921935
0.00092196
0.00092194
0.000921933
0.000921918
0.000921905
0.000922048
0.000922045
0.73391
0.580443
0.435678
0.292081
0.140317
0.0224186
0.00128988
0.000923325
0.00092238
0.000922312
0.000922358
0.000922363
0.000922322
0.000922246
0.000922315
0.000922294
0.000922315
0.000922328
0.000922363
0.000922338
0.000922314
0.000922287
0.000922329
0.000922323
0.000922409
0.000922393
0.00092232
0.000922439
0.000922423
0.719111
0.568081
0.42542
0.283725
0.133588
0.0205264
0.00125918
0.000923498
0.000922864
0.000922776
0.00092277
0.00092265
0.000922719
0.000922718
0.000922793
0.000922769
0.00092273
0.000922658
0.000922708
0.000922693
0.000922649
0.000922611
0.000922655
0.000922549
0.00092275
0.000922738
0.000922657
0.000922827
0.000922796
0.703214
0.554837
0.414471
0.274851
0.126566
0.0186956
0.00123246
0.000923602
0.000923281
0.00092312
0.000923091
0.000923122
0.00092312
0.00092304
0.000923119
0.000923081
0.000923029
0.000922985
0.000922975
0.000922948
0.000923088
0.000923041
0.000923008
0.000923171
0.000923154
0.000923143
0.000923
0.000923266
0.000923295
0.686168
0.540675
0.402803
0.26544
0.11927
0.0169395
0.0012091
0.0009237
0.000923746
0.000923575
0.000923536
0.000923694
0.000923662
0.000923696
0.000923656
0.000923606
0.00092368
0.000923624
0.000923696
0.000923659
0.00092342
0.000923716
0.00092361
0.000923587
0.000923771
0.000923653
0.000923558
0.000923747
0.000923527
0.667932
0.525566
0.390396
0.255477
0.111724
0.0152707
0.00118877
0.000923815
0.000924381
0.000924118
0.000924025
0.000924105
0.000924092
0.000924155
0.000924153
0.000924094
0.00092405
0.000924086
0.000924078
0.000924039
0.000924365
0.000924219
0.000924304
0.000924216
0.000924149
0.000924313
0.000924172
0.000923983
0.000924395
0.648474
0.509486
0.377236
0.24495
0.103964
0.0136998
0.00117099
0.000923939
0.000925211
0.000925094
0.00092504
0.000925122
0.000925049
0.00092518
0.000925096
0.000924826
0.000925121
0.000924842
0.000924912
0.000924849
0.000924786
0.000925022
0.000924971
0.000924701
0.000925168
0.000924675
0.000924634
0.00092512
0.000924655
0.627773
0.492421
0.363314
0.233849
0.0960343
0.0122354
0.00115502
0.000924108
0.000926093
0.000926087
0.000925988
0.000925838
0.000925754
0.000925658
0.000925615
0.000925892
0.000925512
0.000925648
0.000925682
0.000925432
0.000926081
0.000925466
0.000925469
0.000925974
0.000925314
0.000925933
0.000925707
0.00092521
0.000925969
0.605819
0.474365
0.348629
0.222172
0.0879908
0.0108833
0.00114084
0.000924254
0.000927175
0.000927271
0.000927213
0.000927312
0.000927123
0.000927269
0.000927171
0.000926545
0.00092728
0.000926659
0.000926535
0.000927038
0.0009263
0.000926779
0.000926662
0.000926155
0.000926684
0.000926702
0.000926106
0.000926923
0.000926595
0.582617
0.455324
0.33319
0.209918
0.079898
0.00964591
0.00112811
0.000924666
0.000928019
0.000928615
0.000928513
0.00092805
0.00092823
0.000928203
0.000927929
0.000928637
0.000927869
0.00092769
0.000927998
0.000927165
0.000927741
0.000928171
0.000927344
0.000927562
0.000927789
0.000927362
0.000928082
0.000927644
0.000927463
0.558188
0.435315
0.317012
0.197095
0.0718314
0.00852281
0.00111662
0.000924795
0.000930065
0.000929797
0.000929436
0.000930391
0.000929641
0.000929467
0.000929842
0.000928912
0.000929043
0.000929083
0.000928529
0.000928912
0.000929752
0.000928988
0.000929114
0.000929488
0.000928719
0.000929131
0.000928809
0.00092841
0.000928971
0.532572
0.41437
0.300123
0.183719
0.0638744
0.00751041
0.00110533
0.000925937
0.000930636
0.000931451
0.000931699
0.000930638
0.000930787
0.000930877
0.00092986
0.000930577
0.000931849
0.00093072
0.000930486
0.000931605
0.000930652
0.000930671
0.000931086
0.000930112
0.000930845
0.000930239
0.000929767
0.000930655
0.000930123
0.505828
0.392532
0.28256
0.169821
0.0561196
0.00660329
0.00109527
0.000925939
0.000933795
0.000933265
0.000932364
0.000933596
0.000932732
0.000932447
0.000933572
0.000933991
0.000932838
0.000932764
0.000933481
0.000932554
0.000932756
0.000932825
0.000931837
0.000932432
0.000932077
0.000931924
0.000932655
0.000931869
0.000931966
0.478036
0.369865
0.264374
0.155452
0.0486617
0.00579372
0.00108401
0.000928214
0.000934663
0.00093517
0.00093607
0.000935134
0.000935199
0.000934996
0.000934246
0.000934273
0.000935214
0.000935289
0.000934477
0.00093504
0.000935194
0.000934251
0.000934844
0.00093407
0.000934163
0.00093516
0.000934074
0.000934017
0.000933904
0.4493
0.346447
0.245625
0.140686
0.0416012
0.00507429
0.00107475
0.00092884
0.000937938
0.000938817
0.000937959
0.0009384
0.000937589
0.000938039
0.000938813
0.000939217
0.000937278
0.000937684
0.000938119
0.000937208
0.000936973
0.000938142
0.000936932
0.0009371
0.000937739
0.000936428
0.000936761
0.000937075
0.000936579
0.419748
0.322377
0.226388
0.125641
0.0350301
0.00443668
0.00106325
0.000931591
0.000941103
0.000940875
0.00094095
0.000941222
0.000941621
0.000941012
0.000940526
0.000941421
0.000942038
0.000942148
0.000940171
0.000940536
0.000941687
0.000940226
0.000940222
0.000940452
0.000939921
0.000939919
0.000939215
0.00093916
0.000939485
0.389535
0.297777
0.206749
0.110475
0.029037
0.00387371
0.00105387
0.000934089
0.000944021
0.000945708
0.000946692
0.000946356
0.000944426
0.000944621
0.00094539
0.000946344
0.000944805
0.000944851
0.00094507
0.00094526
0.000943815
0.00094423
0.000944785
0.000943675
0.000943378
0.000943386
0.000943304
0.000942679
0.00094337
0.358839
0.272793
0.186811
0.0954048
0.0236868
0.00338016
0.00104334
0.000937655
0.000948128
0.000951031
0.000949229
0.000949884
0.000950226
0.000950072
0.000949889
0.000948851
0.000949879
0.000950876
0.000948641
0.000949523
0.000949632
0.000947812
0.000947356
0.000947944
0.000949521
0.000948587
0.000946272
0.000946972
0.000945981
0.327863
0.247597
0.166695
0.0807119
0.0190308
0.00294949
0.00103426
0.000940656
0.000954043
0.00095447
0.000954567
0.000956176
0.000954373
0.000954725
0.00095465
0.000955419
0.000954445
0.000954689
0.000955432
0.000953432
0.000954436
0.000954675
0.000953365
0.000953576
0.00095256
0.000953682
0.000953678
0.000950664
0.000950996
0.296834
0.222389
0.146556
0.0667147
0.0150756
0.00257969
0.001025
0.000948174
0.000957542
0.000960437
0.000962121
0.000960666
0.000961362
0.000959777
0.000960743
0.000960439
0.000961537
0.000961762
0.000959358
0.00096052
0.000959972
0.000959952
0.000960847
0.000959034
0.000958716
0.000957399
0.000957654
0.000958167
0.000956174
0.266001
0.197398
0.126588
0.0537791
0.0118152
0.00226477
0.00101921
0.000951538
0.000965291
0.000968967
0.000968023
0.000968633
0.000967869
0.000967853
0.000967019
0.000967617
0.000966938
0.000967986
0.000968085
0.000967192
0.000967559
0.000967549
0.000966238
0.00096755
0.000965239
0.000965448
0.000966098
0.000963537
0.000963635
0.235632
0.172867
0.107068
0.0422216
0.0091869
0.00200334
0.0010132
0.000959869
0.000971525
0.00097287
0.000975696
0.000975836
0.000974508
0.000976183
0.000975501
0.00097495
0.000976199
0.00097526
0.000974978
0.000976482
0.000973812
0.000975064
0.000975612
0.000973602
0.000973901
0.000972608
0.000973548
0.000973331
0.000970093
0.206023
0.14907
0.0883521
0.0323178
0.00713257
0.00178867
0.00101236
0.000965072
0.000979901
0.00098687
0.000981933
0.000983533
0.000985958
0.00098318
0.000984364
0.000984594
0.000982958
0.000984545
0.000985736
0.000983639
0.00098554
0.000983932
0.000983153
0.000984948
0.000984453
0.000983889
0.000980368
0.000980856
0.000981253
0.177487
0.126278
0.0709024
0.0241895
0.00555726
0.00162062
0.00101121
0.000977299
0.000987132
0.000991053
0.000993882
0.000994296
0.000991749
0.00099458
0.000994151
0.000993335
0.000995918
0.000995332
0.000993622
0.000996059
0.000995036
0.000995549
0.000995949
0.000992708
0.000994457
0.000992798
0.000992713
0.000991161
0.000990188
0.150359
0.104792
0.0552142
0.0178162
0.00438067
0.0014872
0.00101707
0.000983926
0.000996021
0.00100331
0.00100215
0.00100288
0.00100573
0.00100403
0.00100462
0.00100659
0.00100421
0.00100624
0.00100926
0.00100614
0.00100667
0.00100656
0.00100827
0.00100812
0.00100451
0.00100582
0.00100472
0.00100537
0.00100421
0.124977
0.0849308
0.0417343
0.0130297
0.00351214
0.00139435
0.00102233
0.000998508
0.00100744
0.00101004
0.00101514
0.00101513
0.00101417
0.0010174
0.00101899
0.00101832
0.00102027
0.00102067
0.001018
0.00102217
0.00102143
0.00102194
0.0010199
0.00102164
0.0010224
0.00101871
0.00101879
0.00101574
0.00101796
0.101679
0.067042
0.0307371
0.00955478
0.00289098
0.00132067
0.00103295
0.00100834
0.00101538
0.00102308
0.00102536
0.00102985
0.00103015
0.00102719
0.00103025
0.00103186
0.00103344
0.00103649
0.00103654
0.00103421
0.00103738
0.00103653
0.00103878
0.00103671
0.00103684
0.00103767
0.00103552
0.00103558
0.00103157
0.0807712
0.0514767
0.0222121
0.00710937
0.00243667
0.00128052
0.00104453
0.00102237
0.0010331
0.00103212
0.00103967
0.00103939
0.00103854
0.00104475
0.00104583
0.00104592
0.0010452
0.00104564
0.00105233
0.00105724
0.00105384
0.00105601
0.0010548
0.00105818
0.00105888
0.00105721
0.00105655
0.00105467
0.00105463
0.0625172
0.0384736
0.0159263
0.00539803
0.00212721
0.00125145
0.00106178
0.00104216
0.0010418
0.00104803
0.00104779
0.00105257
0.00105796
0.00105767
0.00105751
0.00105934
0.00106546
0.00106832
0.0010695
0.00107004
0.00107568
0.00107566
0.00107874
0.00107592
0.00107788
0.00107843
0.00107855
0.00107911
0.00107508
0.0470912
0.0281141
0.011444
0.00422568
0.00189543
0.00124165
0.00107889
0.00105404
0.0010584
0.00106097
0.001067
0.00106484
0.00106663
0.00107292
0.00107506
0.00107943
0.00108445
0.00108511
0.00108949
0.00109336
0.00109216
0.00109735
0.00109808
0.00110621
0.001104
0.00110675
0.00110491
0.00110415
0.00110311
0.0345397
0.0202123
0.00833712
0.00339568
0.0017462
0.00123719
0.00110551
0.001079
0.00107474
0.00107788
0.00107417
0.00108279
0.00108356
0.00108341
0.00109014
0.0010989
0.00110179
0.00110578
0.00110584
0.00110852
0.00112065
0.0011239
0.00113059
0.00112937
0.00113524
0.00113512
0.00113928
0.00113891
0.00113763
0.0247373
0.0144259
0.00618811
0.00282605
0.00162543
0.00124054
0.00112181
0.00109209
0.00109265
0.00108981
0.00109475
0.00109236
0.00109805
0.00110611
0.00110588
0.00110991
0.00111366
0.00112431
0.00113527
0.00113699
0.00114079
0.00115244
0.00115753
0.00116873
0.00116546
0.00116966
0.00116818
0.00117372
0.00117303
0.0173899
0.010298
0.00471019
0.00240309
0.00155234
0.00124566
0.00115012
0.00111978
0.00110442
0.00110665
0.00110482
0.001112
0.00111166
0.00111464
0.00112597
0.00112914
0.00113631
0.00114005
0.00114797
0.00116644
0.00117198
0.00117691
0.00118499
0.00119142
0.00121291
0.00121265
0.00121838
0.00121545
0.00121822
0.0120857
0.00740953
0.0036725
0.00210674
0.00148373
0.0012516
0.00116234
0.00113412
0.00112921
0.00111921
0.00112337
0.0011212
0.00113029
0.00113267
0.00113676
0.00114506
0.00115302
0.00116238
0.00117323
0.00118008
0.00119786
0.0012046
0.00122163
0.00122873
0.00123903
0.00126783
0.00126987
0.00127712
0.00127451
0.00837401
0.00539957
0.00294221
0.00187544
0.00143764
0.00125274
0.00118342
0.00114721
0.00113736
0.00113747
0.00113476
0.00113947
0.00114099
0.00114805
0.00115697
0.00116082
0.00116997
0.00117607
0.00118993
0.00120481
0.00121517
0.00123609
0.00124787
0.00127259
0.00128955
0.00130388
0.00133711
0.00133909
0.00134081
0.0058388
0.00400725
0.00241657
0.00170237
0.00139192
0.0012527
0.00118721
0.00116909
0.00115297
0.0011463
0.00114979
0.00115147
0.0011591
0.00116167
0.00116743
0.00117903
0.00119043
0.00119974
0.00121064
0.00121866
0.00124072
0.00125331
0.00128184
0.00129891
0.00134076
0.0013565
0.00139026
0.00142337
0.00143167
0.00413462
0.00304213
0.00203454
0.00156517
0.00134593
0.00124754
0.00119306
0.00116972
0.00116169
0.00116164
0.00115842
0.00116205
0.00116716
0.0011794
0.00118213
0.00119442
0.0012006
0.00121964
0.00122805
0.00124814
0.00125979
0.00128702
0.00130221
0.00133812
0.00136152
0.00141593
0.00143475
0.00149686
0.00149995
0.00300236
0.00237327
0.00175503
0.0014499
0.00131135
0.00122803
0.00119883
0.00117319
0.00116983
0.00116563
0.00116857
0.00117533
0.00117894
0.00118275
0.00119662
0.00120364
0.00121705
0.00122576
0.00124482
0.001258
0.00128537
0.0013034
0.0013433
0.0013644
0.00143253
0.00145512
0.00154315
0.00157443
0.00168293
0.00225361
0.00190917
0.0015453
0.00135935
0.00126752
0.0012109
0.00119982
0.00117389
0.00117419
0.0011725
0.00117829
0.00118152
0.0011895
0.00119394
0.00120876
0.00121718
0.00123494
0.00124011
0.0012549
0.00126744
0.0012952
0.00130979
0.00134514
0.0013563
0.00139705
0.00141627
0.00147613
0.00152987
0.0016442
0.0017659
0.00159053
0.00139166
0.00128226
0.00124018
0.00119043
0.00118938
0.0011734
0.00117939
0.00117578
0.00118173
0.00118317
0.00119267
0.00119643
0.00121129
0.00121199
0.00122174
0.00119301
0.00113156
0.00106073
0.00104441
0.00122815
0.00144444
0.00201696
0.00236597
0.00297993
0.00340074
0.00309098
0.00270701
0.00144905
0.00137392
0.00127964
0.00122801
0.00119776
0.00117667
0.00117931
0.00117245
0.001182
0.00117817
0.00118488
0.00117065
0.00113315
0.00106055
0.00109415
0.00129804
0.00205628
0.00306618
0.00522997
0.00791591
0.0116364
0.0163197
0.0207584
0.0270257
0.0307912
0.0372203
0.0385105
0.0413891
0.0359743
0.0012578
0.00123453
0.0011956
0.00118716
0.00117529
0.00117648
0.00118237
0.00116735
0.00115609
0.00114171
0.00145408
0.00198316
0.00342428
0.00545575
0.0101454
0.0143547
0.0215572
0.0286973
0.0379166
0.0476807
0.0582596
0.0703613
0.08097
0.0958835
0.104833
0.123263
0.128887
0.15303
0.134994
0.00114273
0.00116198
0.00119307
0.00124135
0.00128602
0.00131323
0.00209004
0.00267231
0.00528303
0.00698343
0.011633
0.0161077
0.0230336
0.0310638
0.0410545
0.0512152
0.0624576
0.0746575
0.087618
0.102261
0.116679
0.1343
0.149688
0.171924
0.187107
0.217675
0.229605
0.279775
0.268625
0.00113443
0.00130638
0.00168503
0.00256275
0.00394535
0.00520396
0.0102098
0.0131435
0.0208422
0.0251107
0.0339464
0.0426456
0.0516077
0.0630826
0.0752596
0.0887259
0.102443
0.117802
0.133506
0.151731
0.16963
0.19166
0.211769
0.239833
0.261815
0.301136
0.323732
0.386352
0.388127
5.806e-005
5.80601e-005
5.80601e-005
5.80602e-005
5.80602e-005
5.80602e-005
5.80603e-005
5.80603e-005
5.80603e-005
5.80604e-005
5.80604e-005
5.80604e-005
5.80604e-005
5.80605e-005
5.80605e-005
5.80605e-005
5.80605e-005
5.80606e-005
5.80606e-005
5.80606e-005
5.80606e-005
5.80606e-005
5.80607e-005
5.80607e-005
5.80607e-005
5.80607e-005
5.80608e-005
5.80608e-005
5.80608e-005
5.80608e-005
5.80608e-005
5.80609e-005
5.80609e-005
5.80609e-005
5.80609e-005
5.80609e-005
5.8061e-005
5.8061e-005
5.8061e-005
5.8061e-005
5.80611e-005
5.80611e-005
5.80611e-005
5.80611e-005
5.80611e-005
5.80612e-005
5.80612e-005
5.80612e-005
5.80612e-005
5.80612e-005
5.80612e-005
5.80613e-005
5.80613e-005
5.80613e-005
5.80613e-005
5.80613e-005
5.80614e-005
5.80614e-005
5.80614e-005
5.80614e-005
5.80614e-005
5.80614e-005
5.80615e-005
5.80615e-005
5.80615e-005
5.80615e-005
5.80615e-005
5.80615e-005
5.80615e-005
5.80615e-005
5.80616e-005
5.80616e-005
5.80616e-005
5.80616e-005
5.80616e-005
5.80616e-005
5.80616e-005
5.80616e-005
5.80616e-005
5.80617e-005
5.80617e-005
5.80617e-005
5.80617e-005
5.80617e-005
5.80617e-005
5.80617e-005
5.80617e-005
5.80617e-005
5.80617e-005
5.80617e-005
5.80617e-005
5.80617e-005
5.80617e-005
5.80617e-005
5.80617e-005
5.80617e-005
5.80617e-005
5.80617e-005
5.80617e-005
5.80617e-005
5.80617e-005
5.80617e-005
5.80617e-005
5.80617e-005
5.80617e-005
5.80617e-005
5.80617e-005
5.80617e-005
5.80617e-005
5.80617e-005
5.80617e-005
5.80617e-005
5.80617e-005
5.80616e-005
5.80616e-005
5.80616e-005
5.80616e-005
5.80615e-005
5.80615e-005
5.80615e-005
5.80615e-005
5.80615e-005
5.80616e-005
5.80616e-005
5.80616e-005
5.80617e-005
5.80617e-005
5.80618e-005
5.80618e-005
5.80618e-005
5.80619e-005
5.80619e-005
5.80619e-005
5.8062e-005
5.80621e-005
5.80622e-005
5.80622e-005
5.80679e-005
5.9327e-005
4.6086e-006
4.60872e-006
4.60882e-006
4.60891e-006
4.60899e-006
4.60907e-006
4.60915e-006
4.60923e-006
4.6093e-006
4.60937e-006
4.60944e-006
4.6095e-006
4.60957e-006
4.60963e-006
4.60969e-006
4.60975e-006
4.60981e-006
4.60987e-006
4.60993e-006
4.60998e-006
4.61004e-006
4.6101e-006
4.61015e-006
4.61021e-006
4.61026e-006
4.61032e-006
4.61037e-006
4.61043e-006
4.61048e-006
4.61053e-006
4.61059e-006
4.61064e-006
4.61069e-006
4.61074e-006
4.6108e-006
4.61085e-006
4.6109e-006
4.61095e-006
4.611e-006
4.61106e-006
4.61111e-006
4.61116e-006
4.61121e-006
4.61126e-006
4.61131e-006
4.61136e-006
4.61141e-006
4.61146e-006
4.61151e-006
4.61156e-006
4.61161e-006
4.61165e-006
4.6117e-006
4.61175e-006
4.61179e-006
4.61184e-006
4.61189e-006
4.61193e-006
4.61197e-006
4.61202e-006
4.61206e-006
4.6121e-006
4.61214e-006
4.61218e-006
4.61222e-006
4.61226e-006
4.61229e-006
4.61233e-006
4.61237e-006
4.6124e-006
4.61244e-006
4.61247e-006
4.6125e-006
4.61254e-006
4.61257e-006
4.6126e-006
4.61263e-006
4.61266e-006
4.61268e-006
4.61271e-006
4.61274e-006
4.61276e-006
4.61279e-006
4.61281e-006
4.61283e-006
4.61286e-006
4.61288e-006
4.6129e-006
4.61292e-006
4.61293e-006
4.61295e-006
4.61297e-006
4.61298e-006
4.613e-006
4.61301e-006
4.61302e-006
4.61303e-006
4.61304e-006
4.61305e-006
4.61306e-006
4.61306e-006
4.61307e-006
4.61307e-006
4.61307e-006
4.61307e-006
4.61307e-006
4.61307e-006
4.61307e-006
4.61306e-006
4.61305e-006
4.61304e-006
4.61303e-006
4.61301e-006
4.61299e-006
4.61296e-006
4.61291e-006
4.61285e-006
4.61278e-006
4.61272e-006
4.61269e-006
4.61268e-006
4.61269e-006
4.61272e-006
4.61278e-006
4.61288e-006
4.61297e-006
4.61305e-006
4.61311e-006
4.61315e-006
4.61321e-006
4.61324e-006
4.61332e-006
4.61335e-006
4.6135e-006
4.61356e-006
4.6138e-006
4.61669e-006
4.37025e-006
4.73066e-006
6.93154e-007
6.93212e-007
6.93266e-007
6.93316e-007
6.93366e-007
6.93414e-007
6.9346e-007
6.93505e-007
6.9355e-007
6.93594e-007
6.93636e-007
6.9368e-007
6.93722e-007
6.93764e-007
6.93806e-007
6.93848e-007
6.93889e-007
6.93932e-007
6.93974e-007
6.94016e-007
6.94058e-007
6.941e-007
6.94143e-007
6.94186e-007
6.94229e-007
6.94272e-007
6.94315e-007
6.94359e-007
6.94402e-007
6.94446e-007
6.9449e-007
6.94534e-007
6.94578e-007
6.94622e-007
6.94667e-007
6.94711e-007
6.94756e-007
6.94803e-007
6.94848e-007
6.94893e-007
6.94938e-007
6.94983e-007
6.95028e-007
6.95072e-007
6.95116e-007
6.95161e-007
6.95205e-007
6.95249e-007
6.95293e-007
6.95336e-007
6.95379e-007
6.95422e-007
6.95465e-007
6.95507e-007
6.95549e-007
6.95591e-007
6.95632e-007
6.95673e-007
6.95715e-007
6.95756e-007
6.95797e-007
6.95838e-007
6.95878e-007
6.95917e-007
6.95957e-007
6.95996e-007
6.96035e-007
6.96074e-007
6.96111e-007
6.96148e-007
6.96185e-007
6.96224e-007
6.96261e-007
6.96297e-007
6.96333e-007
6.96368e-007
6.96402e-007
6.96436e-007
6.96469e-007
6.96503e-007
6.96535e-007
6.96568e-007
6.966e-007
6.96631e-007
6.96662e-007
6.96692e-007
6.96721e-007
6.9675e-007
6.96779e-007
6.96807e-007
6.96835e-007
6.96862e-007
6.96889e-007
6.96915e-007
6.9694e-007
6.96965e-007
6.96989e-007
6.97013e-007
6.97035e-007
6.97057e-007
6.97078e-007
6.97098e-007
6.97117e-007
6.97136e-007
6.97154e-007
6.9717e-007
6.97186e-007
6.97201e-007
6.97215e-007
6.97227e-007
6.97239e-007
6.97248e-007
6.97257e-007
6.97264e-007
6.97268e-007
6.97267e-007
6.97257e-007
6.97237e-007
6.97214e-007
6.97192e-007
6.97171e-007
6.97151e-007
6.97132e-007
6.97119e-007
6.97113e-007
6.97104e-007
6.97089e-007
6.97071e-007
6.97039e-007
6.97019e-007
6.96967e-007
6.96945e-007
6.96895e-007
6.9684e-007
6.96873e-007
6.95056e-007
6.24465e-007
9.52326e-006
0.00198888
3.78427e-007
3.78372e-007
3.78308e-007
3.78244e-007
3.7817e-007
3.78103e-007
3.78026e-007
3.77957e-007
3.77875e-007
3.77796e-007
3.77711e-007
3.77622e-007
3.77531e-007
3.77438e-007
3.77341e-007
3.77242e-007
3.77141e-007
3.77035e-007
3.7693e-007
3.76821e-007
3.76712e-007
3.766e-007
3.76486e-007
3.76372e-007
3.76255e-007
3.76138e-007
3.7602e-007
3.75901e-007
3.75783e-007
3.75661e-007
3.75539e-007
3.75417e-007
3.75295e-007
3.7517e-007
3.75047e-007
3.74922e-007
3.74799e-007
3.74661e-007
3.74535e-007
3.7441e-007
3.74284e-007
3.74158e-007
3.74034e-007
3.7391e-007
3.7379e-007
3.73666e-007
3.73543e-007
3.73421e-007
3.73299e-007
3.7318e-007
3.73061e-007
3.72944e-007
3.72827e-007
3.72711e-007
3.72596e-007
3.72483e-007
3.72371e-007
3.72259e-007
3.72148e-007
3.7204e-007
3.71931e-007
3.71826e-007
3.71724e-007
3.71622e-007
3.71519e-007
3.7142e-007
3.7132e-007
3.71222e-007
3.71125e-007
3.71032e-007
3.7094e-007
3.70835e-007
3.70742e-007
3.70652e-007
3.70563e-007
3.70476e-007
3.7039e-007
3.70308e-007
3.70226e-007
3.70145e-007
3.70065e-007
3.69987e-007
3.6991e-007
3.69834e-007
3.6976e-007
3.6969e-007
3.6962e-007
3.69552e-007
3.69484e-007
3.69418e-007
3.69352e-007
3.69288e-007
3.69227e-007
3.69165e-007
3.69106e-007
3.69049e-007
3.68992e-007
3.68936e-007
3.68882e-007
3.68831e-007
3.68781e-007
3.68732e-007
3.68683e-007
3.68637e-007
3.68591e-007
3.68548e-007
3.68504e-007
3.68463e-007
3.68422e-007
3.68382e-007
3.68343e-007
3.68307e-007
3.68269e-007
3.68232e-007
3.68197e-007
3.68164e-007
3.68131e-007
3.68099e-007
3.68071e-007
3.68043e-007
3.68019e-007
3.67996e-007
3.67974e-007
3.67954e-007
3.67933e-007
3.67916e-007
3.67899e-007
3.67883e-007
3.67866e-007
3.67864e-007
3.67828e-007
3.67873e-007
3.67768e-007
3.6792e-007
3.67996e-007
3.99743e-007
7.04665e-006
0.00131121
0.0317031
2.36401e-006
2.36281e-006
2.36161e-006
2.36034e-006
2.35901e-006
2.35759e-006
2.3561e-006
2.35455e-006
2.35291e-006
2.35122e-006
2.34943e-006
2.34757e-006
2.34564e-006
2.34366e-006
2.34158e-006
2.33946e-006
2.33726e-006
2.33505e-006
2.33276e-006
2.33039e-006
2.32803e-006
2.32563e-006
2.32315e-006
2.32067e-006
2.31814e-006
2.31564e-006
2.31307e-006
2.31049e-006
2.30793e-006
2.30531e-006
2.30267e-006
2.30007e-006
2.29739e-006
2.29471e-006
2.29206e-006
2.28936e-006
2.28671e-006
2.28399e-006
2.28138e-006
2.27867e-006
2.27598e-006
2.27338e-006
2.27073e-006
2.2681e-006
2.26554e-006
2.26294e-006
2.26037e-006
2.25782e-006
2.25526e-006
2.25277e-006
2.25027e-006
2.2478e-006
2.24538e-006
2.24296e-006
2.24058e-006
2.23822e-006
2.23587e-006
2.23356e-006
2.23129e-006
2.22905e-006
2.22679e-006
2.22459e-006
2.22251e-006
2.22034e-006
2.21821e-006
2.21615e-006
2.21408e-006
2.21204e-006
2.21004e-006
2.20809e-006
2.20615e-006
2.20419e-006
2.20229e-006
2.20045e-006
2.19863e-006
2.19682e-006
2.19507e-006
2.19335e-006
2.19167e-006
2.18996e-006
2.18832e-006
2.1867e-006
2.18512e-006
2.18355e-006
2.18201e-006
2.18057e-006
2.17914e-006
2.17771e-006
2.17631e-006
2.17495e-006
2.17359e-006
2.17231e-006
2.17101e-006
2.16973e-006
2.16853e-006
2.16733e-006
2.16617e-006
2.165e-006
2.1639e-006
2.16284e-006
2.16179e-006
2.16075e-006
2.15978e-006
2.1588e-006
2.15786e-006
2.15694e-006
2.15602e-006
2.15516e-006
2.15435e-006
2.15356e-006
2.15279e-006
2.15206e-006
2.15134e-006
2.15066e-006
2.14999e-006
2.1493e-006
2.14864e-006
2.14796e-006
2.14726e-006
2.14658e-006
2.14592e-006
2.1453e-006
2.14465e-006
2.14407e-006
2.14352e-006
2.14297e-006
2.14241e-006
2.14212e-006
2.14109e-006
2.14159e-006
2.13944e-006
2.14144e-006
2.13762e-006
2.14229e-006
2.16205e-006
9.29624e-006
0.000971167
0.0287626
0.161123
3.86855e-005
3.86638e-005
3.86423e-005
3.86195e-005
3.85951e-005
3.85683e-005
3.85403e-005
3.85106e-005
3.8479e-005
3.84452e-005
3.84099e-005
3.8373e-005
3.83335e-005
3.82939e-005
3.82518e-005
3.82085e-005
3.8163e-005
3.81179e-005
3.80702e-005
3.80213e-005
3.79723e-005
3.7923e-005
3.78716e-005
3.78195e-005
3.77673e-005
3.77148e-005
3.76613e-005
3.76081e-005
3.75537e-005
3.7499e-005
3.74434e-005
3.73893e-005
3.73338e-005
3.7278e-005
3.72222e-005
3.71656e-005
3.71097e-005
3.70533e-005
3.69981e-005
3.69417e-005
3.68849e-005
3.683e-005
3.67748e-005
3.67196e-005
3.66654e-005
3.66105e-005
3.65563e-005
3.65027e-005
3.6449e-005
3.63965e-005
3.63437e-005
3.62914e-005
3.62402e-005
3.61891e-005
3.61384e-005
3.60883e-005
3.60384e-005
3.59896e-005
3.59411e-005