/*--------------------------------*- C++ -*----------------------------------*\
| =========                 |                                                 |
| \\      /  F ield         | OpenFOAM: The Open Source CFD Toolbox           |
|  \\    /   O peration     | Version:  5.x                                   |
|   \\  /    A nd           | Web:      www.OpenFOAM.org                      |
|    \\/     M anipulation  |                                                 |
\*---------------------------------------------------------------------------*/
/*   Windows 32 and 64 bit porting by blueCAPE: http://www.bluecape.com.pt   *\
|  Based on Windows porting (2.0.x v4) by Symscape: http://www.symscape.com   |
\*---------------------------------------------------------------------------*/
FoamFile
{
    version     2.0;
    format      ascii;
    class       volScalarField;
    location    "70";
    object      p;
}
// * * * * * * * * * * * * * * * * * * * * * * * * * * * * * * * * * * * * * //

dimensions      [0 2 -2 0 0 0 0];

internalField   nonuniform List<scalar> 
43900
(
0.464239
0.463853
0.463955
0.463704
0.463664
0.463402
0.463277
0.463046
0.462825
0.462587
0.462329
0.462055
0.46177
0.461476
0.461175
0.460866
0.460551
0.460228
0.4599
0.459565
0.459225
0.458879
0.458528
0.458172
0.457811
0.457445
0.457074
0.456699
0.45632
0.463467
0.46798
0.464826
0.466208
0.465139
0.465256
0.464918
0.464611
0.464302
0.463955
0.463626
0.463299
0.46297
0.462634
0.462294
0.461948
0.461597
0.461241
0.460881
0.460516
0.460148
0.459775
0.459398
0.459017
0.458633
0.458244
0.457853
0.457457
0.457059
0.459423
0.475074
0.464865
0.471243
0.466073
0.468389
0.466319
0.466448
0.465705
0.465265
0.464798
0.464333
0.463875
0.463425
0.46298
0.462539
0.462102
0.461668
0.461235
0.460803
0.460372
0.459941
0.459509
0.459077
0.458643
0.458208
0.457772
0.457334
0.456893
0.452357
0.475482
0.468438
0.470158
0.468099
0.468688
0.467118
0.467306
0.466494
0.46613
0.465649
0.465173
0.464702
0.464235
0.463771
0.463311
0.462854
0.4624
0.461947
0.461496
0.461045
0.460595
0.460145
0.459694
0.459243
0.458791
0.458337
0.457882
0.457426
0.454708
0.474048
0.470254
0.469326
0.469394
0.469148
0.46854
0.468456
0.467932
0.467688
0.467344
0.467012
0.46668
0.466344
0.466001
0.465649
0.465288
0.464919
0.464541
0.464155
0.463763
0.463364
0.462958
0.462546
0.462127
0.461703
0.461273
0.460836
0.460394
0.46228
0.472482
0.470474
0.470237
0.470539
0.470141
0.470031
0.470081
0.469855
0.469777
0.469584
0.469387
0.46917
0.468932
0.468674
0.468401
0.468114
0.467812
0.467496
0.467167
0.466825
0.46647
0.466103
0.465724
0.465333
0.46493
0.464517
0.464092
0.463658
0.469032
0.473335
0.472522
0.472339
0.472359
0.472
0.471898
0.471807
0.47162
0.471479
0.471291
0.471093
0.470879
0.470648
0.470401
0.470139
0.469862
0.46957
0.469262
0.468939
0.468601
0.468248
0.46788
0.467498
0.467102
0.466692
0.466269
0.465832
0.465383
0.475229
0.476461
0.476148
0.475871
0.475644
0.475348
0.475166
0.475014
0.474823
0.474633
0.474416
0.474186
0.473937
0.473671
0.473389
0.47309
0.472775
0.472444
0.472098
0.471737
0.47136
0.470969
0.470562
0.470141
0.469705
0.469255
0.468791
0.468312
0.46782
0.482117
0.48255
0.482299
0.481995
0.481699
0.481418
0.481228
0.48107
0.480889
0.480691
0.480468
0.480223
0.479957
0.479669
0.47936
0.479031
0.47868
0.47831
0.477921
0.477512
0.477085
0.476639
0.476175
0.475693
0.475194
0.474678
0.474144
0.473594
0.473028
0.489955
0.489814
0.489548
0.489262
0.48897
0.488709
0.488533
0.488385
0.488214
0.488018
0.487793
0.48754
0.487261
0.486956
0.486626
0.486269
0.485888
0.485482
0.485051
0.484596
0.484117
0.483616
0.483091
0.482544
0.481975
0.481385
0.480774
0.480143
0.479491
0.49828
0.497777
0.497448
0.497132
0.496791
0.496486
0.496268
0.49608
0.495871
0.495633
0.495364
0.495066
0.494738
0.49438
0.493994
0.493578
0.493135
0.492663
0.492163
0.491636
0.491082
0.490502
0.489896
0.489264
0.488607
0.487926
0.48722
0.486492
0.48574
0.507528
0.506932
0.506546
0.506165
0.505747
0.505373
0.505097
0.504853
0.504586
0.504285
0.503951
0.503583
0.503182
0.502748
0.502281
0.501781
0.50125
0.500686
0.500091
0.499465
0.498808
0.498122
0.497405
0.49666
0.495887
0.495085
0.494256
0.493401
0.49252
0.518076
0.517406
0.516963
0.516526
0.516045
0.515616
0.515295
0.515005
0.514686
0.514327
0.513928
0.513488
0.51301
0.512492
0.511935
0.51134
0.510707
0.510038
0.509331
0.508589
0.507811
0.506998
0.506151
0.50527
0.504357
0.503411
0.502434
0.501427
0.50039
0.529855
0.529101
0.528597
0.528097
0.52755
0.527063
0.526694
0.526356
0.525982
0.52556
0.52509
0.524572
0.524007
0.523396
0.522739
0.522037
0.52129
0.5205
0.519666
0.51879
0.517873
0.516915
0.515917
0.51488
0.513805
0.512693
0.511545
0.510361
0.509144
0.542822
0.541975
0.541398
0.540822
0.540193
0.539632
0.539201
0.538802
0.538358
0.537858
0.537301
0.536688
0.53602
0.535297
0.534521
0.533691
0.53281
0.531877
0.530894
0.529861
0.528781
0.527652
0.526478
0.525259
0.523995
0.522689
0.521341
0.519953
0.518526
0.55701
0.556057
0.555395
0.554731
0.554005
0.553357
0.552853
0.552378
0.551851
0.551256
0.550595
0.549869
0.549077
0.548222
0.547304
0.546324
0.545283
0.544183
0.543023
0.541807
0.540534
0.539206
0.537825
0.536392
0.534909
0.533376
0.531796
0.53017
0.5285
0.572437
0.571365
0.570609
0.569843
0.569008
0.568263
0.567676
0.567115
0.56649
0.565787
0.565005
0.564146
0.563211
0.562202
0.561119
0.559963
0.558736
0.55744
0.556076
0.554645
0.553149
0.551589
0.549968
0.548288
0.546549
0.544754
0.542904
0.541003
0.539051
0.589101
0.587897
0.587034
0.586156
0.585199
0.584345
0.583663
0.583003
0.582266
0.581437
0.580515
0.579504
0.578403
0.577216
0.575942
0.574583
0.573142
0.571621
0.57002
0.568341
0.566588
0.564762
0.562865
0.5609
0.558868
0.556772
0.554615
0.552398
0.550125
0.606986
0.605636
0.604655
0.60365
0.602557
0.601582
0.600793
0.600019
0.599153
0.598178
0.597096
0.595909
0.594618
0.593225
0.591732
0.590141
0.588454
0.586673
0.5848
0.582838
0.580791
0.578658
0.576445
0.574154
0.571786
0.569346
0.566836
0.56426
0.561619
0.626066
0.624556
0.623445
0.622299
0.621055
0.619946
0.619037
0.618133
0.617119
0.615978
0.614713
0.613325
0.611816
0.610188
0.608445
0.606587
0.604619
0.602542
0.600359
0.598074
0.595689
0.593209
0.590636
0.587973
0.585224
0.582393
0.579483
0.576498
0.573443
0.6463
0.644615
0.643361
0.642061
0.640652
0.639397
0.638353
0.637302
0.636121
0.634792
0.633318
0.631702
0.629946
0.628053
0.626024
0.623866
0.621577
0.619165
0.616632
0.613979
0.611216
0.608339
0.60536
0.602277
0.599099
0.595827
0.592466
0.589024
0.585499
0.667628
0.665754
0.664346
0.662877
0.66129
0.659876
0.658684
0.65747
0.6561
0.65456
0.652852
0.650979
0.648945
0.646751
0.644406
0.641902
0.639259
0.636466
0.633536
0.630474
0.627275
0.623961
0.620517
0.616965
0.613301
0.609528
0.605666
0.601697
0.59765
0.68997
0.687892
0.68632
0.684669
0.682892
0.681309
0.679955
0.678558
0.676981
0.675204
0.673236
0.671077
0.668731
0.666207
0.663495
0.660623
0.657565
0.654357
0.650985
0.647452
0.64379
0.639957
0.636019
0.63193
0.627718
0.623413
0.618958
0.614443
0.60981
0.713224
0.710928
0.709183
0.70734
0.705361
0.703603
0.702072
0.700478
0.698667
0.696636
0.694374
0.691903
0.689216
0.686311
0.683221
0.679903
0.676424
0.672729
0.668867
0.664839
0.6606
0.656268
0.651714
0.647054
0.64228
0.637287
0.632285
0.627101
0.621785
0.737265
0.734739
0.732814
0.730769
0.728585
0.72664
0.724929
0.723111
0.72106
0.718731
0.71617
0.713343
0.710279
0.706986
0.703431
0.699687
0.695667
0.691487
0.687079
0.682447
0.677711
0.67265
0.667537
0.662265
0.656673
0.651162
0.645378
0.639427
0.633503
0.761948
0.75918
0.757071
0.754819
0.752423
0.7503
0.748381
0.746348
0.744004
0.741399
0.738466
0.735285
0.731813
0.728059
0.72406
0.719758
0.715277
0.710475
0.705471
0.700322
0.694736
0.689174
0.683375
0.677154
0.67114
0.664715
0.658083
0.651598
0.64476
0.787104
0.784084
0.781792
0.77933
0.776729
0.774411
0.77231
0.770007
0.767413
0.764431
0.761178
0.757561
0.753641
0.749458
0.744946
0.740154
0.734943
0.729583
0.724021
0.717936
0.711953
0.705582
0.698714
0.692193
0.685078
0.677715
0.670669
0.663005
0.655357
0.812546
0.809268
0.806798
0.804129
0.801323
0.798849
0.796509
0.793991
0.791043
0.78778
0.784102
0.780082
0.775743
0.770975
0.765945
0.760425
0.75473
0.748745
0.742189
0.73583
0.728852
0.721358
0.714333
0.706499
0.698417
0.690777
0.682227
0.673789
0.665433
0.838073
0.834532
0.831893
0.829025
0.826038
0.823373
0.82087
0.818042
0.814837
0.811208
0.807154
0.802652
0.797719
0.792525
0.786792
0.780758
0.774408
0.767498
0.760692
0.753146
0.745081
0.737554
0.728998
0.72022
0.711898
0.702485
0.693306
0.684176
0.674341
0.863472
0.859667
0.856874
0.853822
0.850664
0.84788
0.845128
0.842078
0.838544
0.834526
0.830006
0.825071
0.819841
0.813901
0.807557
0.800933
0.793674
0.786351
0.778414
0.76989
0.761768
0.752531
0.743088
0.734023
0.72375
0.713839
0.703843
0.692894
0.682522
0.888524
0.88446
0.881533
0.87832
0.875029
0.872093
0.86918
0.865843
0.861969
0.857646
0.852818
0.847317
0.841321
0.834979
0.828097
0.820591
0.812891
0.804571
0.795659
0.786837
0.776986
0.76707
0.757207
0.746054
0.735451
0.724478
0.712461
0.701267
0.689648
0.913015
0.908699
0.905664
0.902313
0.898932
0.895899
0.892778
0.889193
0.885115
0.880425
0.874912
0.869021
0.862629
0.855632
0.848004
0.840008
0.831395
0.822179
0.812805
0.802448
0.791996
0.781235
0.769396
0.758076
0.745983
0.733105
0.721009
0.708156
0.694674
0.93674
0.932187
0.929072
0.925628
0.922179
0.919069
0.915779
0.911942
0.907505
0.902271
0.896593
0.890372
0.883321
0.875568
0.867441
0.858571
0.849037
0.839284
0.828674
0.817643
0.806098
0.793827
0.781503
0.768427
0.754917
0.741701
0.727664
0.713065
0.69902
0.959509
0.95474
0.95158
0.948067
0.944645
0.94146
0.937989
0.933964
0.929132
0.923769
0.917605
0.910671
0.903193
0.895028
0.88619
0.876681
0.866442
0.855394
0.843846
0.831838
0.819219
0.805915
0.792149
0.777961
0.763439
0.748221
0.732622
0.717366
0.701483
0.981154
0.976199
0.973027
0.969532
0.966115
0.962914
0.959353
0.955047
0.950103
0.944255
0.937567
0.930443
0.922341
0.913654
0.904183
0.893631
0.882692
0.870915
0.858513
0.84534
0.831333
0.81689
0.801936
0.786292
0.770045
0.753491
0.736766
0.719488
0.701737
1.00153
0.996427
0.993291
0.989824
0.986538
0.983289
0.979504
0.975083
0.969777
0.963606
0.956944
0.948973
0.94056
0.9313
0.92085
0.910008
0.898066
0.885302
0.871935
0.857488
0.842514
0.826771
0.810305
0.793136
0.775383
0.757548
0.738848
0.719654
0.700697
1.02052
1.01532
1.01226
1.00894
1.00572
1.00247
0.998656
0.993892
0.98838
0.982222
0.974621
0.966761
0.957845
0.947702
0.937067
0.925122
0.912222
0.898915
0.884251
0.868739
0.85246
0.83541
0.817275
0.798713
0.779819
0.759519
0.739023
0.718548
0.697513
1.03804
1.03279
1.02987
1.0267
1.02365
1.0204
1.01641
1.01163
1.00597
0.999049
0.99186
0.983299
0.973468
0.963397
0.951859
0.939216
0.925991
0.911149
0.895383
0.879171
0.861588
0.842678
0.823359
0.803223
0.781813
0.760028
0.737988
0.715029
0.691641
1.05402
1.0488
1.04607
1.04312
1.0402
1.0369
1.03291
1.02795
1.02189
1.01534
1.00729
0.998307
0.988938
0.977682
0.965452
0.952547
0.938006
0.922518
0.906246
0.888148
0.868958
0.849327
0.828209
0.805683
0.782799
0.759048
0.734648
0.709426
0.683799
1.06845
1.06332
1.06086
1.05815
1.05529
1.05209
1.04791
1.0428
1.03693
1.02962
1.02168
1.01285
1.00227
0.990772
0.978384
0.964359
0.949226
0.933133
0.915034
0.895937
0.876094
0.854134
0.831137
0.807193
0.782129
0.756296
0.728924
0.701498
0.673953
1.08133
1.07637
1.07426
1.07171
1.06907
1.06571
1.06156
1.05647
1.0501
1.04316
1.03486
1.02528
1.01486
1.00299
0.989693
0.975208
0.959562
0.941954
0.923309
0.903362
0.881185
0.858056
0.8333
0.807246
0.779745
0.751023
0.721845
0.691841
0.661043
1.09269
1.08802
1.08625
1.08396
1.08125
1.07806
1.07382
1.06847
1.06239
1.05497
1.04649
1.03709
1.02609
1.01374
1.00014
0.985172
0.968378
0.950219
0.930591
0.908916
0.885673
0.860757
0.834218
0.805782
0.775943
0.744902
0.712333
0.67915
0.645039
1.10261
1.09831
1.09697
1.0947
1.09224
1.08889
1.08461
1.07946
1.07303
1.06565
1.05703
1.0472
1.03604
1.02348
1.00952
0.993722
0.976555
0.957667
0.936418
0.913577
0.889192
0.862555
0.833651
0.803279
0.770591
0.736075
0.70083
0.663989
0.626759
1.11118
1.10737
1.10631
1.10428
1.10171
1.09847
1.09428
1.0889
1.08251
1.07495
1.06631
1.05629
1.0449
1.03214
1.01759
1.00158
0.983676
0.963664
0.942067
0.91815
0.891742
0.862867
0.832325
0.798944
0.763767
0.726318
0.686821
0.646453
0.605176
1.11852
1.11523
1.1145
1.11246
1.1101
1.10679
1.1025
1.09723
1.09079
1.0832
1.07431
1.06417
1.05284
1.03961
1.02464
1.00831
0.989781
0.969408
0.946648
0.921088
0.89322
0.862933
0.829763
0.794225
0.755419
0.714192
0.670903
0.626199
0.58006
1.12474
1.12204
1.12144
1.11963
1.11718
1.11394
1.10974
1.10441
1.09788
1.09023
1.08141
1.07119
1.05939
1.04607
1.03118
1.01409
0.995064
0.974008
0.949967
0.923693
0.894448
0.862081
0.826476
0.787574
0.74585
0.700684
0.652811
0.602919
0.551543
1.12999
1.12784
1.12737
1.12561
1.12332
1.12006
1.11581
1.1105
1.10403
1.09639
1.08734
1.07697
1.06532
1.05194
1.03638
1.01906
0.999836
0.977723
0.953145
0.925759
0.894873
0.860559
0.822396
0.780705
0.734955
0.685664
0.632486
0.576751
0.519344
1.13437
1.13275
1.1323
1.13072
1.1284
1.12522
1.12101
1.1157
1.10921
1.10145
1.09256
1.08211
1.07015
1.05655
1.04108
1.02343
1.00345
0.981223
0.955832
0.927166
0.894952
0.858522
0.818144
0.773074
0.723298
0.668778
0.610187
0.547489
0.483158
1.13801
1.13683
1.1364
1.13491
1.13269
1.12952
1.12532
1.12003
1.11352
1.1059
1.09676
1.08634
1.07436
1.06053
1.04488
1.02693
1.00685
0.983838
0.957753
0.92824
0.894767
0.856595
0.813615
0.764635
0.710705
0.650938
0.585595
0.515567
0.442081
1.141
1.14019
1.13976
1.13837
1.13619
1.13307
1.1289
1.1236
1.11719
1.10937
1.10046
1.08983
1.07769
1.06392
1.04814
1.02982
1.00943
0.98604
0.95934
0.929083
0.894302
0.854393
0.808981
0.756674
0.697921
0.632002
0.559452
0.479986
0.396505
1.14343
1.14291
1.14248
1.14116
1.13904
1.13595
1.1318
1.12658
1.12005
1.11246
1.10329
1.09272
1.08064
1.06655
1.05061
1.03233
1.0116
0.987664
0.960664
0.929349
0.893648
0.852317
0.804649
0.749401
0.685484
0.612686
0.531296
0.441444
0.344804
1.14539
1.14507
1.14465
1.14338
1.14132
1.13823
1.13417
1.12891
1.12247
1.11479
1.10564
1.09513
1.08283
1.06878
1.05254
1.03435
1.01317
0.989081
0.961458
0.929585
0.892897
0.850391
0.800523
0.742291
0.673434
0.593593
0.502059
0.399332
0.287416
1.14693
1.14676
1.14634
1.14513
1.14312
1.14002
1.13606
1.13074
1.12434
1.11669
1.10749
1.09692
1.08464
1.07042
1.05426
1.03581
1.01442
0.990208
0.962044
0.929756
0.892207
0.848341
0.796821
0.735447
0.662322
0.574954
0.472311
0.353767
0.222272
1.14812
1.14804
1.14764
1.14646
1.14452
1.14138
1.13755
1.13209
1.1259
1.11805
1.10892
1.0984
1.08599
1.07169
1.05564
1.03688
1.01548
0.99088
0.962521
0.929645
0.891471
0.846384
0.79342
0.729269
0.652188
0.557353
0.442631
0.30536
0.147919
1.14901
1.149
1.14861
1.14745
1.14555
1.14241
1.13862
1.13311
1.12703
1.11904
1.11007
1.09939
1.08698
1.07273
1.05651
1.03761
1.01612
0.991204
0.962768
0.92932
0.890648
0.844503
0.790246
0.723503
0.642809
0.540555
0.413433
0.253873
0.0640675
1.14964
1.14968
1.14929
1.14818
1.14623
1.14323
1.13926
1.13395
1.12776
1.11977
1.11089
1.10012
1.08763
1.07352
1.05693
1.0381
1.01621
0.991259
0.962178
0.92849
0.888567
0.84196
0.785332
0.717117
0.63148
0.523764
0.382452
0.197194
-0.0407002
1.15007
1.15013
1.14974
1.14867
1.14666
1.14387
1.13952
1.13465
1.12797
1.12034
1.11112
1.10048
1.08771
1.0737
1.05665
1.03787
1.0154
0.990286
0.960204
0.926149
0.884759
0.837255
0.778187
0.707856
0.617524
0.503583
0.349069
0.133884
-0.174963
1.15031
1.1504
1.14999
1.14896
1.14685
1.14438
1.13966
1.1353
1.12803
1.12073
1.11103
1.10033
1.08719
1.07287
1.05541
1.03613
1.0131
0.987373
0.956574
0.921684
0.879249
0.830345
0.769431
0.696365
0.602336
0.481485
0.317672
0.0795885
-0.306504
1.15044
1.15052
1.15009
1.14904
1.14684
1.14414
1.13909
1.13444
1.12682
1.1192
1.10883
1.0979
1.08414
1.0692
1.05121
1.03158
1.00802
0.981825
0.950217
0.914804
0.871163
0.821701
0.758661
0.685122
0.586496
0.465127
0.291814
0.06086
-0.222262
0.455868
0.455341
0.454806
0.454265
0.453717
0.453163
0.452602
0.452036
0.451465
0.450887
0.450305
0.449718
0.449126
0.44853
0.447929
0.447324
0.446715
0.446102
0.445486
0.444867
0.444244
0.443618
0.44299
0.442358
0.441725
0.441089
0.440452
0.439812
0.439171
0.438528
0.437885
0.43724
0.436595
0.435949
0.435302
0.434656
0.434009
0.433363
0.432717
0.432072
0.431428
0.430784
0.430142
0.429502
0.428863
0.428227
0.427592
0.42696
0.42633
0.425703
0.42508
0.424459
0.423842
0.423228
0.422618
0.422012
0.42141
0.420813
0.42022
0.419631
0.419048
0.41847
0.417897
0.417329
0.416767
0.416211
0.415661
0.415117
0.414579
0.414048
0.413524
0.413006
0.412495
0.411991
0.411495
0.411006
0.410525
0.410051
0.409586
0.409128
0.408678
0.408237
0.407804
0.407379
0.406964
0.406556
0.406158
0.405769
0.405388
0.405017
0.404655
0.404303
0.40396
0.403626
0.403302
0.402988
0.402684
0.40239
0.402106
0.401832
0.401568
0.401313
0.401069
0.400836
0.400612
0.400398
0.400194
0.4
0.399816
0.399642
0.399478
0.399323
0.39918
0.399052
0.39894
0.398841
0.398756
0.398682
0.398619
0.398567
0.398525
0.398492
0.398468
0.398453
0.398448
0.398449
0.398456
0.398468
0.398484
0.398504
0.39853
0.398561
0.398598
0.398639
0.398692
0.398735
0.398827
0.398839
0.39903
0.456585
0.456034
0.455478
0.454915
0.454347
0.453773
0.453194
0.45261
0.45202
0.451426
0.450826
0.450222
0.449613
0.448999
0.448381
0.447759
0.447132
0.446502
0.445867
0.44523
0.444588
0.443944
0.443296
0.442646
0.441993
0.441337
0.44068
0.44002
0.439358
0.438695
0.43803
0.437365
0.436698
0.43603
0.435362
0.434694
0.434026
0.433358
0.43269
0.432023
0.431356
0.430691
0.430027
0.429365
0.428704
0.428045
0.427389
0.426735
0.426083
0.425434
0.424789
0.424146
0.423507
0.422872
0.422241
0.421613
0.420991
0.420372
0.419759
0.41915
0.418547
0.417949
0.417356
0.41677
0.416189
0.415615
0.415047
0.414486
0.413932
0.413384
0.412844
0.412311
0.411785
0.411267
0.410757
0.410255
0.409761
0.409275
0.408798
0.408329
0.407869
0.407418
0.406976
0.406542
0.406119
0.405704
0.405299
0.404903
0.404518
0.404142
0.403777
0.403422
0.403079
0.402747
0.402426
0.402116
0.401817
0.40153
0.401253
0.400988
0.400734
0.400492
0.400261
0.400041
0.399833
0.399637
0.399452
0.399279
0.399117
0.398967
0.398829
0.398703
0.398586
0.398474
0.398368
0.398269
0.398176
0.398092
0.398016
0.397949
0.397891
0.397842
0.397802
0.397772
0.397749
0.397733
0.397727
0.39773
0.39774
0.397757
0.397778
0.397803
0.397829
0.397852
0.397879
0.397892
0.397898
0.397931
0.397826
0.456372
0.455769
0.455161
0.454548
0.453931
0.45331
0.452684
0.452053
0.451418
0.450778
0.450134
0.449486
0.448833
0.448176
0.447514
0.446849
0.44618
0.445507
0.444831
0.444151
0.443468
0.442782
0.442093
0.441401
0.440707
0.440011
0.439312
0.438612
0.43791
0.437206
0.436502
0.435796
0.43509
0.434383
0.433676
0.432969
0.432262
0.431556
0.43085
0.430145
0.429441
0.428738
0.428037
0.427338
0.426641
0.425946
0.425255
0.424566
0.42388
0.423197
0.422518
0.421843
0.421173
0.420506
0.419845
0.419188
0.418536
0.41789
0.417249
0.416614
0.415985
0.415362
0.414745
0.414135
0.413531
0.412935
0.412345
0.411763
0.411188
0.410621
0.410061
0.40951
0.408967
0.408433
0.407907
0.40739
0.406882
0.406383
0.405893
0.405413
0.404943
0.404482
0.404031
0.403591
0.40316
0.402741
0.402332
0.401933
0.401546
0.40117
0.400805
0.40045
0.400106
0.399772
0.39945
0.399139
0.398839
0.39855
0.398273
0.398007
0.397753
0.397512
0.397282
0.397064
0.396858
0.396664
0.396483
0.396313
0.396157
0.396012
0.39588
0.39576
0.395652
0.395556
0.395472
0.395399
0.395339
0.395292
0.395258
0.395238
0.395232
0.395239
0.395259
0.395291
0.395336
0.395395
0.395468
0.395544
0.395663
0.395761
0.395911
0.396024
0.396192
0.396377
0.396401
0.396906
0.396432
0.397682
0.396418
0.456885
0.456258
0.455626
0.45499
0.454347
0.4537
0.453047
0.452387
0.451722
0.451051
0.450373
0.44969
0.449001
0.448306
0.447606
0.4469
0.446189
0.445473
0.444753
0.444027
0.443298
0.442564
0.441827
0.441086
0.440342
0.439595
0.438845
0.438092
0.437337
0.436581
0.435822
0.435063
0.434302
0.433541
0.432779
0.432018
0.431256
0.430496
0.429736
0.428978
0.428221
0.427465
0.426712
0.425961
0.425212
0.424466
0.423724
0.422984
0.422248
0.421516
0.420789
0.420065
0.419346
0.418632
0.417922
0.417218
0.416519
0.415827
0.41514
0.414459
0.413784
0.413117
0.412457
0.411803
0.411157
0.410519
0.409889
0.409266
0.408651
0.408045
0.407447
0.406858
0.406278
0.405706
0.405144
0.404591
0.404047
0.403513
0.402989
0.402474
0.40197
0.401476
0.400992
0.400519
0.400057
0.399605
0.399165
0.398735
0.398317
0.39791
0.397515
0.397131
0.396759
0.396399
0.39605
0.395714
0.39539
0.395079
0.39478
0.394493
0.39422
0.39396
0.393713
0.393479
0.393259
0.393053
0.392861
0.392683
0.39252
0.392372
0.392239
0.392121
0.39202
0.391934
0.391866
0.391815
0.391782
0.391766
0.391766
0.391784
0.391818
0.39187
0.39194
0.392028
0.392136
0.392259
0.392416
0.392577
0.39278
0.392991
0.393216
0.393609
0.393554
0.394709
0.393519
0.396657
0.392991
0.399946
0.391322
0.459866
0.459248
0.45862
0.457982
0.457334
0.456676
0.456009
0.455333
0.454649
0.453955
0.453254
0.452544
0.451826
0.451101
0.450368
0.449628
0.448881
0.448127
0.447367
0.446601
0.445829
0.445052
0.444269
0.443481
0.442688
0.441891
0.44109
0.440286
0.439478
0.438667
0.437854
0.437038
0.436221
0.435402
0.434581
0.43376
0.432937
0.432114
0.431291
0.430468
0.429646
0.428825
0.428005
0.427186
0.42637
0.425556
0.424744
0.423936
0.42313
0.422328
0.42153
0.420736
0.419947
0.419162
0.418383
0.417609
0.41684
0.416078
0.415322
0.414572
0.413829
0.413094
0.412366
0.411645
0.410932
0.410227
0.40953
0.408842
0.408163
0.407493
0.406831
0.406179
0.405537
0.404905
0.404282
0.40367
0.403068
0.402477
0.401897
0.401327
0.400768
0.400221
0.399684
0.399159
0.398646
0.398144
0.397654
0.397177
0.396711
0.396258
0.395817
0.395389
0.394974
0.394572
0.394183
0.393807
0.393444
0.393095
0.39276
0.392439
0.392131
0.391838
0.39156
0.391296
0.391047
0.390814
0.390595
0.390392
0.390204
0.390033
0.389878
0.38974
0.389619
0.389515
0.38943
0.389364
0.389316
0.389289
0.389281
0.389294
0.389329
0.389387
0.389468
0.389573
0.389708
0.389876
0.390012
0.390305
0.390346
0.391037
0.390576
0.392228
0.390497
0.394137
0.389879
0.397078
0.388132
0.402277
0.37931
0.463134
0.462514
0.461878
0.461224
0.460555
0.45987
0.459171
0.458458
0.457732
0.456993
0.456242
0.455479
0.454705
0.45392
0.453126
0.452321
0.451508
0.450685
0.449855
0.449016
0.44817
0.447317
0.446458
0.445593
0.444722
0.443846
0.442965
0.442079
0.44119
0.440296
0.4394
0.438501
0.437599
0.436695
0.43579
0.434883
0.433976
0.433068
0.432161
0.431254
0.430348
0.429444
0.428542
0.427642
0.426744
0.425849
0.424958
0.42407
0.423187
0.422308
0.421434
0.420565
0.419701
0.418843
0.417991
0.417145
0.416306
0.415474
0.414649
0.413831
0.413021
0.412218
0.411424
0.410638
0.409861
0.409092
0.408333
0.407583
0.406843
0.406113
0.405393
0.404684
0.403985
0.403296
0.402619
0.401953
0.401298
0.400655
0.400023
0.399404
0.398796
0.3982
0.397617
0.397047
0.396489
0.395944
0.395412
0.394892
0.394386
0.393893
0.393413
0.392947
0.392495
0.392056
0.391631
0.39122
0.390824
0.390441
0.390074
0.38972
0.389382
0.389058
0.38875
0.388457
0.388179
0.387917
0.38767
0.38744
0.387225
0.387028
0.386847
0.386683
0.386536
0.386406
0.386294
0.386199
0.386123
0.386065
0.386027
0.386007
0.386008
0.386028
0.38607
0.386131
0.3862
0.38643
0.386293
0.38681
0.386595
0.387409
0.386661
0.388283
0.386662
0.389435
0.386636
0.390814
0.386633
0.395337
0.371938
0.46484
0.464192
0.463523
0.462832
0.462121
0.461391
0.460641
0.459873
0.459088
0.458285
0.457466
0.456631
0.455781
0.454917
0.45404
0.45315
0.452247
0.451333
0.450408
0.449472
0.448528
0.447574
0.446612
0.445642
0.444666
0.443683
0.442694
0.4417
0.440702
0.439699
0.438694
0.437686
0.436675
0.435663
0.43465
0.433637
0.432624
0.431612
0.430601
0.429592
0.428584
0.42758
0.426578
0.42558
0.424586
0.423595
0.42261
0.42163
0.420655
0.419686
0.418723
0.417767
0.416818
0.415876
0.414942
0.414015
0.413097
0.412187
0.411286
0.410393
0.40951
0.408637
0.407773
0.40692
0.406076
0.405243
0.40442
0.403609
0.402808
0.402019
0.401241
0.400474
0.399719
0.398976
0.398245
0.397526
0.39682
0.396126
0.395444
0.394775
0.39412
0.393477
0.392849
0.392233
0.391631
0.391043
0.390468
0.389907
0.389361
0.388828
0.388309
0.387804
0.387314
0.386838
0.386376
0.385929
0.385496
0.385078
0.384675
0.384287
0.383913
0.383554
0.38321
0.382882
0.382568
0.38227
0.381987
0.381719
0.381467
0.38123
0.381009
0.380803
0.380612
0.380437
0.380277
0.380133
0.380003
0.379889
0.37979
0.379707
0.379638
0.379584
0.379546
0.379523
0.379509
0.379569
0.37936
0.379874
0.379136
0.380236
0.379374
0.380466
0.379529
0.380678
0.379866
0.380391
0.380451
0.382289
0.36969
0.467224
0.466512
0.465777
0.465018
0.464236
0.463433
0.462607
0.46176
0.460892
0.460003
0.459095
0.458169
0.457224
0.456263
0.455286
0.454294
0.453288
0.452268
0.451236
0.450192
0.449136
0.44807
0.446995
0.44591
0.444818
0.443719
0.442613
0.441501
0.440385
0.439264
0.43814
0.437013
0.435884
0.434754
0.433623
0.432492
0.431361
0.430231
0.429102
0.427976
0.426852
0.425731
0.424614
0.423501
0.422393
0.42129
0.420192
0.419101
0.418016
0.416938
0.415867
0.414804
0.413749
0.412703
0.411666
0.410639
0.409621
0.408613
0.407616
0.406629
0.405653
0.404688
0.403735
0.402793
0.401863
0.400945
0.400039
0.399146
0.398265
0.397398
0.396543
0.395701
0.394873
0.394059
0.393258
0.392471
0.391698
0.390939
0.390194
0.389464
0.388749
0.388047
0.38736
0.386688
0.38603
0.385387
0.384759
0.384146
0.383547
0.382963
0.382395
0.381841
0.381303
0.380779
0.380271
0.379777
0.379299
0.378836
0.378388
0.377956
0.377538
0.377135
0.376748
0.376376
0.376019
0.375676
0.375349
0.375037
0.374739
0.374457
0.374189
0.373936
0.373697
0.373472
0.373262
0.373067
0.372885
0.372717
0.372562
0.372421
0.372293
0.372178
0.372075
0.371985
0.371906
0.371849
0.371766
0.371813
0.371582
0.371895
0.371428
0.372024
0.371345
0.372036
0.371815
0.371772
0.372142
0.372807
0.36682
0.472341
0.471522
0.470676
0.469802
0.468902
0.467977
0.467028
0.466055
0.465061
0.464045
0.463009
0.461952
0.460876
0.459782
0.45867
0.457541
0.456397
0.455238
0.454066
0.45288
0.451683
0.450474
0.449256
0.448029
0.446793
0.445549
0.4443
0.443044
0.441784
0.440519
0.439251
0.437981
0.436709
0.435437
0.434164
0.432891
0.43162
0.43035
0.429084
0.42782
0.426561
0.425306
0.424056
0.422812
0.421575
0.420345
0.419121
0.417906
0.4167
0.415502
0.414314
0.413135
0.411967
0.410809
0.409662
0.408526
0.407402
0.40629
0.40519
0.404102
0.403028
0.401966
0.400918
0.399884
0.398864
0.397857
0.396866
0.395888
0.394926
0.393979
0.393046
0.392129
0.391227
0.390341
0.38947
0.388615
0.387776
0.386953
0.386145
0.385354
0.384578
0.383818
0.383074
0.382346
0.381634
0.380938
0.380258
0.379595
0.378947
0.378315
0.377699
0.377099
0.376515
0.375947
0.375395
0.374859
0.374339
0.373834
0.373346
0.372873
0.372416
0.371974
0.371548
0.371137
0.370742
0.370362
0.369998
0.369648
0.369314
0.368995
0.36869
0.3684
0.368125
0.367864
0.367617
0.367385
0.367167
0.366962
0.366771
0.366594
0.36643
0.366279
0.366142
0.366017
0.365904
0.365806
0.365712
0.36565
0.365556
0.365561
0.365416
0.365527
0.365351
0.365455
0.365431
0.365197
0.365475
0.36569
0.362951
0.478701
0.477757
0.47678
0.475769
0.474728
0.473656
0.472556
0.471428
0.470274
0.469095
0.467892
0.466667
0.46542
0.464153
0.462868
0.461564
0.460243
0.458906
0.457555
0.45619
0.454813
0.453424
0.452026
0.450618
0.449203
0.44778
0.446352
0.444918
0.443481
0.442041
0.440599
0.439156
0.437713
0.436271
0.434831
0.433393
0.431959
0.430529
0.429104
0.427684
0.426271
0.424866
0.423468
0.422079
0.420699
0.419328
0.417968
0.416619
0.415281
0.413955
0.412641
0.41134
0.410052
0.408778
0.407517
0.406271
0.405039
0.403822
0.40262
0.401433
0.400263
0.399108
0.397969
0.396847
0.395741
0.394652
0.393579
0.392524
0.391486
0.390465
0.389461
0.388475
0.387506
0.386555
0.385621
0.384704
0.383805
0.382923
0.382059
0.381212
0.380382
0.37957
0.378775
0.377997
0.377237
0.376495
0.37577
0.375061
0.374371
0.373697
0.373041
0.372401
0.371778
0.371173
0.370584
0.370012
0.369456
0.368918
0.368395
0.367889
0.367399
0.366925
0.366468
0.366026
0.3656
0.365189
0.364795
0.364415
0.364051
0.363702
0.363368
0.363049
0.362744
0.362454
0.362178
0.361917
0.361669
0.361436
0.361216
0.36101
0.360817
0.360637
0.36047
0.360315
0.360173
0.360043
0.359923
0.359819
0.359715
0.359641
0.359544
0.359508
0.359407
0.359397
0.359339
0.35924
0.359253
0.359167
0.357969
0.484828
0.483738
0.48261
0.481444
0.480243
0.479007
0.477738
0.476438
0.475107
0.473748
0.472362
0.47095
0.469513
0.468054
0.466574
0.465073
0.463554
0.462018
0.460467
0.458902
0.457324
0.455734
0.454135
0.452526
0.450911
0.44929
0.447663
0.446034
0.444402
0.442768
0.441135
0.439503
0.437873
0.436247
0.434624
0.433007
0.431396
0.429792
0.428196
0.426609
0.425031
0.423464
0.421908
0.420363
0.41883
0.417311
0.415805
0.414313
0.412836
0.411374
0.409928
0.408497
0.407083
0.405686
0.404306
0.402944
0.401599
0.400272
0.398964
0.397674
0.396403
0.395151
0.393918
0.392705
0.39151
0.390335
0.389179
0.388043
0.386926
0.385829
0.384751
0.383693
0.382654
0.381635
0.380635
0.379654
0.378694
0.377752
0.37683
0.375927
0.375043
0.374178
0.373333
0.372506
0.371698
0.370909
0.370139
0.369388
0.368654
0.36794
0.367244
0.366565
0.365905
0.365263
0.364639
0.364032
0.363443
0.362871
0.362317
0.361779
0.361259
0.360755
0.360268
0.359798
0.359344
0.358906
0.358484
0.358078
0.357688
0.357313
0.356954
0.356609
0.35628
0.355966
0.355666
0.355381
0.35511
0.354853
0.35461
0.354381
0.354165
0.353962
0.353772
0.353595
0.353431
0.353279
0.353139
0.353011
0.352893
0.35279
0.35269
0.352615
0.352529
0.35248
0.352417
0.352326
0.352222
0.352019
0.351296
0.491451
0.490176
0.488857
0.487496
0.486095
0.484656
0.483179
0.481668
0.480123
0.478547
0.476941
0.475306
0.473646
0.471961
0.470254
0.468525
0.466778
0.465013
0.463233
0.461438
0.459632
0.457814
0.455988
0.454155
0.452316
0.450473
0.448627
0.44678
0.444933
0.443087
0.441244
0.439405
0.437572
0.435745
0.433925
0.432114
0.430312
0.428522
0.426742
0.424975
0.423222
0.421482
0.419757
0.418048
0.416355
0.414679
0.41302
0.411379
0.409756
0.408152