/*--------------------------------*- C++ -*----------------------------------*\
| =========                 |                                                 |
| \\      /  F ield         | OpenFOAM: The Open Source CFD Toolbox           |
|  \\    /   O peration     | Version:  5.x                                   |
|   \\  /    A nd           | Web:      www.OpenFOAM.org                      |
|    \\/     M anipulation  |                                                 |
\*---------------------------------------------------------------------------*/
/*   Windows 32 and 64 bit porting by blueCAPE: http://www.bluecape.com.pt   *\
|  Based on Windows porting (2.0.x v4) by Symscape: http://www.symscape.com   |
\*---------------------------------------------------------------------------*/
FoamFile
{
    version     2.0;
    format      ascii;
    class       surfaceScalarField;
    location    "70";
    object      phi;
}
// * * * * * * * * * * * * * * * * * * * * * * * * * * * * * * * * * * * * * //

dimensions      [0 3 -1 0 0 0 0];

internalField   nonuniform List<scalar> 
87341
(
0.308864
39.6142
0.385151
39.8467
0.42456
39.8836
0.484277
39.8633
0.525265
39.882
0.56273
39.8856
0.604983
39.8808
0.640882
39.8871
0.676097
39.8878
0.709607
39.8895
0.741683
39.891
0.772564
39.8922
0.802296
39.8933
0.8309
39.8944
0.858413
39.8955
0.884874
39.8966
0.910318
39.8976
0.934787
39.8986
0.958316
39.8995
0.980949
39.9004
1.00272
39.9013
1.0237
39.9021
1.0439
39.9028
1.06335
39.9036
1.08209
39.9043
1.10016
39.905
1.11758
39.9056
1.13438
39.9062
39.9065
1.15088
0.754866
38.8593
1.07089
39.5307
1.07818
39.8763
1.25488
39.6866
1.32242
39.8145
1.4694
39.7386
1.55624
39.7939
1.66038
39.783
1.75195
39.7962
1.83655
39.8049
1.91512
39.8124
1.98794
39.8193
2.05564
39.8256
2.11891
39.8312
2.17824
39.8362
2.23406
39.8407
2.28679
39.8449
2.33676
39.8486
2.38427
39.852
2.42958
39.8551
2.47292
39.8579
2.51441
39.8606
2.55427
39.863
2.5927
39.8652
2.62975
39.8672
2.66551
39.8692
2.70006
39.8711
2.73348
39.8728
39.8745
2.76551
1.78448
37.0748
2.68194
38.6333
3.0272
39.5311
2.97518
39.7386
3.05394
39.7357
3.04258
39.75
3.08285
39.7537
3.11678
39.7491
3.15388
39.7591
3.19766
39.7612
3.24521
39.7648
3.29592
39.7686
3.34788
39.7736
3.40059
39.7785
3.4538
39.783
3.50735
39.7872
3.56107
39.7912
3.6148
39.7949
3.66846
39.7983
3.72196
39.8016
3.77526
39.8046
3.82817
39.8077
3.88076
39.8104
3.93296
39.813
3.98483
39.8154
4.03637
39.8177
4.0876
39.8198
4.13854
39.8219
39.8246
4.18848
1.78279
35.292
3.43484
36.9812
4.47788
38.488
4.75863
39.4579
4.77509
39.7193
4.76535
39.7597
4.77683
39.7422
4.77159
39.7543
4.77704
39.7537
4.78397
39.7542
4.79451
39.7543
4.80953
39.7536
4.83055
39.7526
4.85773
39.7513
4.89093
39.7498
4.92958
39.7486
4.97307
39.7477
5.02095
39.747
5.07261
39.7467
5.12759
39.7466
5.18548
39.7467
5.24578
39.7474
5.30812
39.748
5.37213
39.7489
5.4375
39.75
5.50363
39.7515
5.57007
39.7534
5.63659
39.7554
39.7571
5.70409
1.00267
34.2894
2.31809
35.6658
3.67012
37.136
4.55311
38.5749
4.77078
39.5016
4.79828
39.7322
4.81671
39.7238
4.84527
39.7258
4.88187
39.7171
4.92141
39.7147
4.96306
39.7127
5.00587
39.7108
5.05175
39.7068
5.10042
39.7026
5.15175
39.6984
5.20565
39.6947
5.26202
39.6913
5.32068
39.6883
5.38161
39.6857
5.4447
39.6835
5.50978
39.6817
5.57671
39.6804
5.64543
39.6793
5.71584
39.6785
5.78778
39.6781
5.86137
39.6779
5.93664
39.6781
6.01348
39.6785
39.678
6.09258
0.54608
33.7433
1.246
34.9659
2.09575
36.2863
2.99586
37.6748
3.51369
38.9838
3.66281
39.5831
3.76192
39.6247
3.86736
39.6203
3.97368
39.6108
4.08392
39.6044
4.19862
39.5979
4.31739
39.592
4.43768
39.5865
4.55853
39.5817
4.67906
39.5779
4.79914
39.5746
4.91878
39.5717
5.03798
39.5691
5.15674
39.567
5.27508
39.5652
5.39292
39.5638
5.5107
39.5626
5.62821
39.5618
5.7454
39.5613
5.86232
39.5612
5.97907
39.5612
6.09568
39.5615
6.21202
39.5622
39.5629
6.3271
0.32299
33.4203
0.711867
34.577
1.16653
35.8316
1.6864
37.1549
2.19456
38.4756
2.46589
39.3117
2.67688
39.4137
2.88486
39.4123
3.08982
39.4058
3.29346
39.4008
3.49448
39.3969
3.69283
39.3937
3.88814
39.3911
4.08068
39.3892
4.27089
39.3877
4.45889
39.3866
4.64474
39.3858
4.82845
39.3854
5.01003
39.3854
5.18948
39.3857
5.36671
39.3866
5.54211
39.3872
5.7154
39.3885
5.88645
39.3903
6.0552
39.3924
6.22155
39.3948
6.38546
39.3976
6.54697
39.4007
39.4049
6.70499
0.296161
33.1241
0.622641
34.2505
0.977067
35.4772
1.35763
36.7743
1.74343
38.0898
2.03301
39.0222
2.27138
39.1753
2.50712
39.1766
2.73979
39.1731
2.96956
39.171
3.19703
39.1695
3.42223
39.1685
3.64533
39.168
3.86639
39.1681
4.08535
39.1687
4.30209
39.1698
4.51649
39.1714
4.7285
39.1734
4.93803
39.1759
5.14506
39.1787
5.3494
39.1822
5.55153
39.1851
5.75109
39.189
5.94792
39.1935
6.14195
39.1984
6.33313
39.2037
6.52148
39.2092
6.70703
39.2151
39.2214
6.89048
0.283924
32.8402
0.582839
33.9516
0.897505
35.1625
1.22439
36.4475
1.54974
37.7645
1.83187
38.74
2.08553
38.9216
2.33621
38.9259
2.584
38.9254
2.82932
38.9257
3.07224
38.9265
3.31284
38.9279
3.55115
38.9297
3.78716
38.9321
4.02085
38.9351
4.25211
38.9386
4.48089
38.9426
4.70712
38.9472
4.93075
38.9522
5.15174
38.9577
5.37002
38.964
5.5857
38.9694
5.79868
38.976
6.00887
38.9833
6.21625
38.991
6.42077
38.9991
6.62237
39.0076
6.82102
39.0165
39.0247
7.01772
0.250932
32.5893
0.511747
33.6908
0.781023
34.8932
1.05788
36.1706
1.34048
37.4819
1.62418
38.4563
1.90302
38.6428
2.17894
38.65
2.45148
38.6528
2.72099
38.6562
2.98748
38.66
3.251
38.6644
3.51158
38.6692
3.76923
38.6745
4.024
38.6803
4.27595
38.6866
4.5251
38.6935
4.77145
38.7008
5.01497
38.7087
5.25562
38.7171
5.49345
38.7261
5.72805
38.7348
5.95957
38.7445
6.18804
38.7548
6.4134
38.7656
6.6356
38.777
6.85452
38.7887
7.07005
38.8009
38.8127
7.28209
0.253996
32.3353
0.513281
33.4315
0.776502
34.63
1.04318
35.9039
1.31434
37.2107
1.60212
38.1686
1.89616
38.3487
2.18874
38.3574
2.47913
38.3624
2.76729
38.3681
3.05308
38.3742
3.3364
38.381
3.61714
38.3884
3.89522
38.3964
4.17054
38.405
4.44303
38.4141
4.71261
38.4239
4.9792
38.4342
5.24273
38.4452
5.50313
38.4567
5.7604
38.4689
6.01409
38.4811
6.26433
38.4942
6.51115
38.508
6.75446
38.5223
6.99421
38.5372
7.2303
38.5526
7.46263
38.5686
38.5844
7.69088
0.279785
32.0555
0.563648
33.1476
0.850541
34.3431
1.1388
35.6157
1.42583
36.9237
1.72795
37.8664
2.03778
38.0389
2.34668
38.0485
2.65413
38.055
2.95998
38.0622
3.26399
38.0702
3.56599
38.079
3.86577
38.0886
4.16316
38.099
4.458
38.1101
4.75011
38.122
5.03934
38.1347
5.32555
38.148
5.60859
38.1621
5.88833
38.1769
6.16468
38.1925
6.43727
38.2085
6.70612
38.2254
6.97118
38.2429
7.23234
38.2612
7.4895
38.28
7.74258
38.2996
7.99146
38.3197
38.3397
8.23617
0.306265
31.7492
0.617161
32.8367
0.930813
34.0295
1.2453
35.3012
1.55728
36.6117
1.88417
37.5395
2.21806
37.705
2.5507
37.7159
2.88176
37.7239
3.21104
37.7329
3.53834
37.7429
3.86344
37.7539
4.18615
37.7659
4.50625
37.7789
4.82357
37.7928
5.13792
37.8077
5.4491
37.8235
5.75695
37.8402
6.06128
37.8578
6.36194
37.8763
6.65879
37.8957
6.95155
37.9158
7.24013
37.9368
7.52443
37.9586
7.80431
37.9813
8.07966
38.0047
8.35036
38.0289
8.6163
38.0538
38.0784
8.87766
0.332567
31.4167
0.67004
32.4993
1.01021
33.6893
1.351
34.9604
1.68962
36.2731
2.04532
37.1838
2.40804
37.3423
2.76918
37.3547
3.1284
37.3647
3.48547
37.3759
3.84016
37.3882
4.19224
37.4019
4.5415
37.4167
4.8877
37.4327
5.23065
37.4499
5.57012
37.4682
5.90592
37.4877
6.23785
37.5083
6.56571
37.5299
6.88931
37.5527
7.20849
37.5765
7.52302
37.6013
7.83274
37.6271
8.13753
37.6539
8.43722
37.6816
8.73167
37.7102
9.02076
37.7398
9.30435
37.7702
37.8002
9.58256
0.361917
31.0547
0.729004
32.1322
1.09887
33.3194
1.4692
34.5901
1.83743
35.9049
2.2243
36.797
2.61798
36.9486
3.00981
36.9629
3.3994
36.9751
3.78649
36.9888
4.1708
37.0039
4.55206
37.0206
4.93003
37.0387
5.30443
37.0583
5.67503
37.0793
6.04157
37.1017
6.40383
37.1254
6.76157
37.1505
7.11457
37.1769
7.46262
37.2046
7.80552
37.2336
8.14304
37.2638
8.47502
37.2951
8.80125
37.3276
9.12159
37.3612
9.43588
37.3959
9.74393
37.4317
10.0456
37.4685
37.5048
10.3411
0.394606
30.6601
0.794805
31.732
1.1979
32.9163
1.60126
34.1867
2.00224
35.5039
2.4229
36.3763
2.84986
36.5217
3.27462
36.5381
3.69679
36.5529
4.11604
36.5695
4.53205
36.5879
4.94452
36.6081
5.35313
36.6301
5.7576
36.6538
6.15762
36.6793
6.55291
36.7064
6.94321
36.7351
7.32823
36.7655
7.70774
36.7974
8.08147
36.8309
8.44918
36.8659
8.81068
36.9022
9.16568
36.9401
9.51404
36.9793
9.85556
37.0197
10.19
37.0615
10.5172
37.1045
10.8371
37.1486
37.1923
11.1495
0.429885
30.2303
0.865844
31.296
1.30481
32.4774
1.74374
33.7478
2.18007
35.0675
2.63725
35.9192
3.10014
36.0588
3.56041
36.0779
4.01763
36.0957
4.47144
36.1157
4.92146
36.1379
5.36733
36.1623
5.80869
36.1887
6.2452
36.2173
6.67651
36.2479
7.10233
36.2805
7.52228
36.3152
7.93615
36.3516
8.34353
36.39
8.74421
36.4302
9.13798
36.4721
9.52436
36.5159
9.90341
36.561
10.2747
36.6079
10.638
36.6565
10.9934
36.7061
11.3402
36.7576
11.6786
36.8102
36.8621
12.0088
0.46746
29.7628
0.941477
30.822
1.41857
32.0003
1.89528
33.2711
2.36931
34.5935
2.86552
35.4229
3.36683
35.5575
3.86504
35.5797
4.35969
35.6011
4.85034
35.6251
5.33655
35.6517
5.81792
35.6809
6.29401
35.7126
6.76444
35.7469
7.22884
35.7835
7.68673
35.8227
8.13798
35.8639
8.58186
35.9077
9.01841
35.9535
9.4472
36.0014
9.86751
36.0518
10.28
36.1034
10.6833
36.1577
11.0776
36.2137
11.4633
36.2707
11.8387
36.3308
12.2049
36.3914
12.5616
36.4536
36.5164
12.9073
0.507246
29.2556
1.02153
30.3077
1.53895
31.4829
2.05553
32.7545
2.56949
34.0796
3.10705
34.8854
3.64902
35.0155
4.18737
35.0413
4.72157
35.0669
5.2511
35.0955
5.77551
35.1273
6.29422
35.1622
6.80687
35.2
7.31292
35.2408
7.81183
35.2846
8.30361
35.3309
8.78689
35.3806
9.26261
35.432
9.72924
35.4869
10.1864
35.5442
10.6356
35.6026
11.0733
35.6657
11.502
35.7291
11.9212
35.7944
12.3273
35.8646
12.7253
35.9328
13.1116
36.0051
13.4849
36.0803
36.1515
13.8498
0.549065
28.7065
1.10566
29.7511
1.6654
30.9231
2.22375
32.1961
2.77973
33.5236
3.36075
34.3044
3.94541
34.4308
4.52587
34.4609
5.10151
34.4912
5.67182
34.5252
6.23607
34.563
6.79396
34.6043
7.34461
34.6494
7.88766
34.6978
8.42304
34.7493
8.94859
34.8053
9.46701
34.8622
9.97385
34.9252
10.4714
34.9893
10.9605
35.0552
11.4343
35.1288
11.9015
35.1985
12.3561
35.2746
12.7946
35.3558
13.2285
35.4307
13.6444
35.5169
14.0469
35.6026
14.4431
35.6841
35.7762
14.8184
0.592619
28.1139
1.19326
29.1505
1.79702
30.3194
2.39871
31.5944
2.99854
32.9238
3.62487
33.678
4.25399
33.8017
4.87826
33.8366
5.49708
33.8724
6.10957
33.9127
6.71554
33.9571
7.31353
34.0063
7.90388
34.059
8.48559
34.1161
9.05637
34.1785
9.62108
34.2406
10.1698
34.3135
10.7123
34.3827
11.2432
34.4584
11.7553
34.5431
12.2665
34.6176
12.756
34.709
13.2309
34.7997
13.7051
34.8816
14.1492
34.9867
14.5866
35.0795
15.017
35.1722
15.4159
35.2853
35.3789
15.8132
0.637529
27.4763
1.28356
28.5044
1.93264
29.6703
2.57881
30.9483
3.22403
32.2785
3.89718
33.0049
4.57223
33.1267
5.24183
33.167
5.90496
33.2093
6.56156
33.2561
7.20939
33.3092
7.85015
33.3655
8.4804
33.4287
9.09999
33.4965
9.71399
33.5645
10.3063
33.6483
10.8997
33.7201
11.4724
33.81
12.0274
33.9034
12.5877
33.9828
13.1109
34.0944
13.6302
34.1896
14.147
34.2828
14.6196
34.409
15.1013
34.5049
15.566
34.6148
15.991
34.7472
16.4303
34.846
34.9724
16.8368
0.683344
26.793
1.37565
27.8121
2.07087
28.9751
2.76219
30.257
3.45396
31.5868
4.17509
32.2837
4.89723
32.4045
5.61297
32.4512
6.32222
32.5
7.02214
32.5562
7.71598
32.6154
8.39643
32.6851
9.06904
32.7561
9.73359
32.8319
10.3725
32.9256
11.0221
32.9987
11.6343
33.1079
12.2405
33.2039
12.851
33.293
13.4081
33.4258
13.98
33.5224
14.5366
33.6331
15.041
33.7784
15.571
33.8791
16.0669
34.009
16.5213
34.1604
17.0008
34.2676
17.4309
34.4159
34.5652
17.8381
0.729519
26.0635
1.46842
27.0732
2.21007
28.2334
2.94661
29.5204
3.68569
30.8477
4.45547
31.514
5.22525
31.6348
5.98854
31.6879
6.74247
31.7461
7.49116
31.8075
8.22336
31.8832
8.95317
31.9553
9.66722
32.0421
10.3583
32.1409
11.0663
32.2175
11.718
32.347
12.3851
32.4408
13.0422
32.5468
13.6381
32.697
14.2663
32.7976
14.8646
32.9241
15.4071
33.0905
15.9857
33.1998
16.5211
33.3437
17.0075
33.5226
17.5334
33.6346
17.9937
33.8073
18.4333
33.9763
34.1098
18.8887
0.775432
25.288
1.56063
26.288
2.34833
27.4457
3.12956
28.7392
3.91616
30.0611
4.73493
30.6952
5.5529
30.8168
6.3622
30.8786
7.1663
30.942
7.95226
31.0216
8.74168
31.0938
9.5033
31.1937
10.2552
31.2902
11.0191
31.3769
11.7147
31.522
12.446
31.6156
13.1485
31.7383
13.7903
31.905
14.4755
32.0118
15.125
32.1482
15.702
32.3471
16.3385
32.4541
16.9135
32.6248
17.4307
32.8265
18.0134
32.9398
18.5039
33.1441
18.9729
33.3383
19.4755
33.4738
33.7025
19.8828
0.820374
24.4677
1.65081
25.4576
2.48347
26.6131
3.30809
27.9146
4.14213
29.227
5.00916
29.8282
5.87434
29.9516
6.73353
30.0195
7.5756
30.0999
8.42403
30.1731
9.23387
30.2839
10.0548
30.3728
10.8654
30.4795
11.6111
30.6312
12.4056
30.7275
13.1626
30.8586
13.8486
31.0523
14.6011
31.1525
15.296
31.3169
15.906
31.5381
16.6158
31.6372
17.2256
31.8443
17.7817
32.0687
18.4152
32.1931
18.9308
32.4242
19.4399
32.635
19.9853
32.7929
20.4113
33.0477
33.2524
20.8614
0.863571
23.6041
1.73742
24.5838
2.61315
25.7373
3.47923
27.0485
4.35946
28.3468
5.27467
28.913
6.18778
29.0385
7.08712
29.1201
7.99139
29.1956
8.85343
29.3111
9.7438
29.3936
10.5926
29.5239
11.4048
29.6674
12.2663
29.7697
13.0628
29.931
13.7962
30.1253
14.6367
30.2118
15.3647
30.4245
16.0187
30.663
16.7977
30.7591
17.4394
30.9955
18.0498
31.2339
18.7346
31.3838
19.2893
31.6384
19.8529
31.8606
20.4391
32.0488
20.8998
32.3323
21.399
32.5485
32.7753
21.876
0.904211
22.6999
1.81879
23.6692
2.73481
24.8213
3.63947
26.1438
4.56542
27.4209
5.52565
27.9527
6.48155
28.0826
7.43774
28.1639
8.35578
28.2776
9.30856
28.3583
10.1983
28.5038
11.0865
28.6357
12.0038
28.7501
12.8395
28.934
13.655
29.1155
14.5647
29.2155
15.2962
29.4803
16.0215
29.6991
16.8795
29.805
17.5604
30.0782
18.2219
30.334
18.9514
30.5044
19.5533
30.7819
20.179
31.0127
20.7937
31.2458
21.2875
31.555
21.8356
31.7842
22.3418
32.0423
32.3816
22.7355
0.941434
21.7585
1.89316
22.7174
2.84586
23.8686
3.78589
25.2038
4.75408
26.4527
5.75917
26.9476
6.76405
27.0777
7.74064
27.1873
8.74946
27.2688
9.68326
27.4245
10.6458
27.5413
11.6144
27.667
12.499
27.8656
13.3921
28.0409
14.3255
28.1821
15.0948
28.4463
15.9414
28.6337
16.8505
28.79
17.5418
29.1137
18.2691
29.3509
19.0659
29.5372
19.7222
29.8481
20.4057
30.0984
21.0395
30.3789
21.5775
30.7078
22.1923
30.9403
22.7277
31.2488
23.1678
31.6021
31.8755
23.6739
0.9745
20.784
1.95902
21.7329
2.94385
22.8838
3.91507
24.2326
4.92538
25.4424
5.97149
25.9015
7.00501
26.0442
8.05992
26.1324
9.04238
26.2863
10.0754
26.3915
11.0827
26.5341
12.0077
26.742
12.9821
26.8912
13.9583
27.0647
14.8069
27.3335
15.7391
27.5141
16.6382
27.7346
17.3957
28.0325
18.2278
28.2816
19.0688
28.5099
19.754
28.852
20.4897
29.1125
21.1713
29.4168
21.7982
29.7521
22.4792
30.0268
22.9996
30.42
23.515
30.7333
24.0654
31.0518
31.443
24.4979
1.00254
19.7814
2.0146
20.7209
3.02613
21.8723
4.02449
23.2342
5.07171
24.3951
6.15237
24.8209
7.24548
24.9511
8.28165
25.0963
9.3754
25.1926
10.405
25.3618
11.3939
25.5452
12.4609
25.675
13.465
25.887
14.3722
26.1576
15.373
26.3328
16.2978
26.5892
17.1333
26.899
18.0468
27.1191
18.9099
27.4185
19.6567
27.7631
20.4646
28.0441
21.1941
28.383
21.8956
28.7152
22.5871
29.0605
23.1643
29.4497
23.7718
29.8124
24.3063
30.1988
24.7978
30.5603
31.0005
25.2403
1.02498
18.7564
2.05873
19.6871
3.0906
20.8404
4.11191
22.2129
5.19261
23.3145
6.31491
23.6986
7.40572
23.8603
8.54483
23.9571
9.60194
24.1355
10.6708
24.2929
11.789
24.427
12.797
24.667
13.781
24.9031
14.8608
25.0777
15.7951
25.3985
16.7239
25.6603
17.7233
25.8997
18.6077
26.2347
19.4317
26.5945
20.3073
26.8876
21.0789
27.2725
21.8606
27.6013
22.56
28.0158
23.2278
28.3927
23.899
28.7785
24.4637
29.2476
25.0223
29.6402
25.5138
30.0688
30.5142
26.0001
1.04127
17.7152
2.09034
18.638
3.13587
19.7949
4.17464
21.1741
5.28913
22.2
6.42364
22.5641
7.58891
22.695
8.6872
22.8588
9.81623
23.0064
10.9547
23.1545
11.9906
23.3911
13.0653
23.5923
14.1839
23.7845
15.1493
24.1124
16.2106
24.3372
17.2272
24.6437
18.1117
25.0152
19.0297
25.3166
19.9586
25.6656
20.8387
26.0075
21.6747
26.4365
22.3786
26.8974
23.1438
27.2506
23.8868
27.6497
24.5131
28.1523
25.1356
28.6251
25.6646
29.1112
26.1741
29.5594
30.0973
26.591
1.05111
16.6641
2.10893
17.5802
3.16038
18.7434
4.21668
20.1178
5.34672
21.0699
6.52644
21.3843
7.66521
21.5562
8.83613
21.6879
9.98505
21.8575
11.0772
22.0623
12.2218
22.2465
13.3617
22.4524
14.3609
22.7853
15.4932
22.9801
16.4963
23.3341
17.4748
23.6652
18.5095
23.9806
19.467
24.3591
20.4268
24.7057
21.2424
25.1919
22.0735
25.6053
22.961
26.01
23.704
26.5075
24.3709
26.9828
25.0433
27.4798
25.6911
27.9773
26.2626
28.5397
26.7276
29.0944
29.6221
27.2028
1.05414
15.6099
2.11369
16.5207
3.16448
17.6926
4.22711
19.0552
5.39
19.907
6.55625
20.2181
7.75073
20.3618
8.92164
20.517
10.0664
20.7127
11.2415
20.8872
12.38
21.108
13.4385
21.3939
14.6324
21.5914
15.6526
21.96
16.7354
22.2512
17.8188
22.5818
18.8281
22.9713
19.8089
23.3783
20.7018
23.8128
21.6243
24.2694
22.5716
24.658
23.3681
25.2135
24.1559
25.7197
24.8662
26.2725
25.5334
26.8126
26.1738
27.337
26.7318
27.9817
27.2801
28.5461
29.204
27.6982
1.05034
14.5596
2.10499
15.466
3.14664
16.651
4.22648
17.9753
5.38161
18.7519
6.58796
19.0117
7.76679
19.1829
8.9389
19.3449
10.1283
19.5233
11.2781
19.7375
12.4234
19.9626
13.5978
20.2195
14.6825
20.5068
15.8207
20.8218
16.9061
21.1658
17.9565
21.5313
18.9933
21.9345
20.0101
22.3615
20.978
22.8449
21.9464
23.301
22.8056
23.7988
23.7086
24.3105
24.4703
24.958
25.235
25.5079
25.9592
26.0884
26.5646
26.7316
27.1867
27.3596
27.6623
28.0705
28.7288
28.1375
1.03955
13.52
2.08129
14.4243
3.11082
15.6214
4.18571
16.9004
5.37071
17.5669
6.54803
17.8344
7.74089
17.9901
8.93943
18.1464
10.1007
18.362
11.2827
18.5555
12.4408
18.8046
13.6001
19.0601
14.7145
19.3924
15.8637
19.6726
16.9674
20.0622
18.0435
20.4552
19.1203
20.8576
20.1422
21.3397
21.1461
21.8409
22.165
22.2822
23.0524
22.9114
23.8611
23.5018
24.7727
24.0465
25.5434
24.7372
26.2669
25.3648
26.9213
26.0772
27.4972
26.7837
28.0347
27.5329
28.3414
28.4221
1.02235
12.4977
2.04513
13.4015
3.05403
14.6125
4.14527
15.8092
5.30165
16.4105
6.49807
16.638
7.68829
16.7999
8.84171
16.9929
10.0534
17.1504
11.2187
17.3901
12.368
17.6553
13.5183
17.9099
14.7221
18.1885
15.8075
18.5872
16.9504
18.9193
18.0611
19.3445
19.1411
19.7776
20.1887
20.2921
21.2637
20.7659
22.2013
21.3445
23.1689
21.9439
24.1297
22.541
24.8991
23.2771
25.7682
23.868
26.5021
24.631
27.1671
25.4122
27.7521
26.1987
28.2727
27.0124
27.8386
28.7755
0.999204
11.4985
1.99507
12.4056
2.98784
13.6198
4.0655
14.7315
5.23361
15.2424
6.40514
15.4665
7.557
15.648
8.76901
15.7809
9.91248
16.0069
11.0619
16.2407
12.2703
16.4468
13.4207
16.7594
14.5274
17.0819
15.7197
17.3948
16.8347
17.8044
17.9638
18.2154
19.0477
18.6936
20.1764
19.1634
21.1894
19.7529
22.2237
20.3102
23.2129
20.9547
24.1223
21.6316
25.1122
22.2872
25.8396
23.1406
26.6179
23.8527
27.3208
24.7093
27.9474
25.572
28.5098
26.45
27.4462
28.9022
0.970832
10.5276
1.93543
11.441
2.90627
12.6489
3.98477
13.653
5.12669
14.1005
6.26588
14.3273
7.45601
14.4579
8.56678
14.6702
9.72813
14.8455
10.9351
15.0338
12.0441
15.3378
13.1905
15.613
14.3683
15.9042
15.4977
16.2654
16.6497
16.6524
17.7957
17.0695
18.9021
17.5873
19.9705
18.0949
21.1258
18.5976
22.1283
19.3077
23.1342
19.9488
24.1445
20.6213
25.0205
21.4112
25.9436
22.2175
26.6519
23.1443
27.4048
23.9565
28.0537
24.9231
28.6294
25.8742
26.9649
29.1107
0.937624
9.59001
1.86764
10.511
2.8182
11.6984
3.88527
12.586
4.98895
12.9968
6.14457
13.1717
7.22603
13.3764
8.39061
13.5056
9.53984
13.6963
10.6232
13.9504
11.8077
14.1533
12.9422
14.4785
14.0736
14.7728
15.2387
15.1003
16.3738
15.5173
17.5017
15.9415
18.6559
16.4331
19.8029
16.9479
20.8072
17.5933
21.9347
18.1802
22.9924
18.891
23.9947
19.6191
24.9529
20.453
25.805
21.3654
26.7204
22.2288
27.407
23.2699
28.0835
24.2467
28.5994
25.3583
26.4555
29.1087
0.900634
8.68937
1.7919
9.61976
2.72855
10.7617
3.75784
11.5567
4.86809
11.8866
5.9198
12.12
7.05853
12.2377
8.14975
12.4144
9.23118
12.6149
10.3959
12.7857
11.451
13.0982
12.6304
13.2991
13.7885
13.6146
14.8633
14.0255
16.0253
14.3553
17.1372
14.8296
18.3039
15.2664
19.4507
15.8011
20.5936
16.4504
21.6139
17.16
22.7446
17.7603
23.7627
18.601
24.756
19.4597
25.7364
20.385
26.5196
21.4456
27.3619
22.4276
28.0316
23.5769
28.6668
24.7231
26.0694
29.053
0.859087
7.83029
1.71726
8.76158
2.61947
9.85952
3.65111
10.525
4.66382
10.8739
5.76495
11.0188
6.80411
11.1985
7.8544
11.3641
8.96283
11.5064
9.99868
11.7499
11.1803
11.9166
12.2464
12.233
13.2899
12.5711
14.4644
12.8511
15.5938
13.2259
16.7673
13.6561
17.8775
14.1561
18.9853
14.6932
20.1216
15.3142
21.3484
15.9331
22.3721
16.7366
23.4602
17.5129
24.4784
18.4416
25.4239
19.4395
26.4323
20.4372
27.1877
21.6723
27.9403
22.8242
28.492
24.1715
25.5212
29.0401
0.815792
7.0145
1.63122
7.94615
2.52761
8.96313
3.48098
9.57166
4.52859
9.82624
5.50378
10.0436
6.53048
10.1718
7.58812
10.3064
8.6079
10.4867
9.70158
10.6562
10.6853
10.9329
11.7812
11.1371
12.9217
11.4306
14.027
11.7458
15.1134
12.1395
16.2139
12.5556
17.374
12.996
18.4996
13.5677
19.6766
14.1372
20.7784
14.8314
21.9873
15.5277
23.0309
16.4692
24.143
17.3296
25.17
18.4125
26.0653
19.5419
27.0109
20.7267
27.7188
22.1163
28.4165
23.4738
25.1402
28.7976
0.768017
6.24648
1.55247
7.1617
2.39941
8.11619
3.36261
8.60847
4.28401
8.90484
5.29231
9.03534
6.27656
9.18757
7.24823
9.33476
8.25108
9.48381
9.22564
9.68164
10.357
9.80153
11.3424
10.1517
12.3918
10.3812
13.4712
10.6664
14.5692
11.0415
15.6923
11.4325
16.7798
11.9085
17.959
12.3884
19.1083
12.9879
20.3194
13.6203
21.3874
14.4597
22.5886
15.268
23.5903
16.3278
24.754
17.2488
25.7576
18.5382
26.6707
19.8136
27.5022
21.2849
28.1435
22.8326
24.5405
28.7432
0.720387
5.52609
1.45924
6.42285
2.29847
7.27695
3.16729
7.73964
4.12656
7.94557
5.02271
8.13919
5.95588
8.2544
6.91631
8.37433
7.87325
8.52687
8.90617
8.64872
9.76208
8.94562
10.8712
9.0426
11.9113
9.34111
12.9043
9.67339
13.9739
9.97189
15.0684
10.338
16.2124
10.7645
17.3219
11.279
18.4825
11.8273
19.584
12.5188
20.8023
13.2415
21.9512
14.1191
23.1845
15.0945
24.224
16.2093
25.3499
17.4124
26.295
18.8685
27.1814
20.3984
27.9071
22.1069
24.0102
28.4373
0.669407
4.85668
1.37596
5.7163
2.16051
6.49241
3.03307
6.86708
3.86589
7.11275
4.78318
7.22189
5.67884
7.35874
6.56181
7.49136
7.49705
7.59164
8.36695
7.77881
9.43634
7.87623
10.3119
8.16705
11.2975
8.35548
12.3584
8.61249
13.3871
8.94318
14.4388
9.28628
15.4952
9.70813
16.6351
10.1391
17.7568
10.7055
18.9401
11.3354
20.0963
12.0853
21.3235
12.8919
22.5129
13.9051
23.7282
14.994
24.7878
16.3528
25.8769
17.7794
26.8016
19.4738
27.585
21.3235
23.3742
28.221
0.620304
4.23638
1.28219
5.05442
2.04617
5.72843
2.83158
6.08168
3.69203
6.25229
4.49674
6.41718
5.3508
6.50468
6.23233
6.60984
7.07837
6.74559
8.0126
6.84458
8.83187
7.05696
9.84571
7.15321
10.7718
7.42941
11.7099
7.67435
12.7237
7.92936
13.7529
8.25711
14.828
8.63306
15.8701
9.097
17.015
9.5606
18.1666
10.1838
19.4087
10.8433
20.587
11.7136
21.8639
12.6281
23.0043
13.8536
24.2719
15.0852
25.3015
16.7497
26.3895
18.3858
27.1993
20.5138
22.6964
27.8771
0.571055
3.66533
1.19913
4.42634
1.91099
5.01657
2.68411
5.30856
3.43594
5.50046
4.26006
5.59306
5.04697
5.71777
5.85904
5.79777
6.70914
5.8955
7.50734
6.04638
8.44426
6.12003
9.23643
6.36103
10.1894
6.47644
11.1308
6.73293
12.089
6.9712
13.0411
7.30496
14.0868
7.58741
15.1389
8.04492
16.2352
8.46431
17.3743
9.04468
18.5441
9.67344
19.7773
10.4805
21.0542
11.3512
22.3304
12.5774
23.5549
13.8608
24.7976
15.507
25.8459
17.3375
26.8416
19.5181
22.0343
27.5037
0.5251
3.14023
1.11352
3.83791
1.79176
4.33834
2.49701
4.6033
3.24894
4.74853
3.96995
4.87205
4.7523
4.93542
5.51855
5.03152
6.28402
5.13002
7.12349
5.20692
7.89056
5.35296
8.77063
5.48096
9.60586
5.6412
10.482
5.85679
11.4147
6.03845
12.3601
6.35959
13.3458
6.6017
14.3463
7.04439
15.4178
7.39284
16.5161
7.9464
17.7175
8.472
18.9116
9.28641
20.1927
10.0701
21.5048
11.2653
22.8497
12.5158
24.1001
14.2566
25.3545
16.0831
26.3474
18.5252
21.192
27.1897
0.47961
2.66062
1.03546
3.28206
1.66836
3.70544
2.33924
3.93243
3.02366
4.06411
3.73786
4.15784
4.43041
4.24287
5.17864
4.28329
5.91573
4.39293
6.65239
4.47026
7.44969
4.55566
8.2161
4.71456
9.05259
4.80471
9.88488
5.0245
10.7356
5.18776
11.6427
5.45244
12.5837
5.66069
13.5724
6.05576
14.6016
6.36363
15.6585
6.88947
16.7951
7.33537
18.0158
8.0658
19.2521
8.83378
20.6344
9.88292
22.0241
11.1262
23.4454
12.8353
24.7176
14.8109
25.9382
17.3046
20.3637
26.7666
0.437405
2.22321
0.960194
2.75927
1.55284
3.11279
2.17791
3.30736
2.82716
3.41486
3.47211
3.5129
4.17274
3.54224
4.82176
3.63427
5.52099
3.6937
6.26986
3.72138
6.94403
3.8815
7.71351
3.94507
8.47273
4.0455
9.28399
4.21323
10.0883
4.3835
10.9592
4.58149
11.8201
4.79983
12.7825
5.09328
13.7545
5.3917
14.807
5.83694
15.8942
6.24818
17.0699
6.89005
18.3344
7.5693
19.6609
8.55643
21.1287
9.65837
22.6561
11.3079
24.0898
13.3772
25.394
16.0004
19.2948
26.4629
0.401485
1.82173
0.889007
2.27175
1.44524
2.55656
2.01753
2.73507
2.64833
2.78406
3.22614
2.93509
3.89895
2.86942
4.49809
3.03513
5.19527
2.99652
5.81182
3.10483
6.52012
3.1732
7.21612
3.24908
7.94845
3.31317
8.64621
3.51547
9.46493
3.56478
10.2569
3.7895
11.1225
3.9343
11.9921
4.22363
12.9355
4.44832
13.9152
4.85723
14.9907
5.17268
16.0983
5.78243
17.3519
6.31574
18.6711
7.23717
20.155
8.17452
21.7007
9.76218
23.3872
11.6907
24.8751
14.5126
18.0395
26.1304
0.369135
1.45259
0.82374
1.81714
1.33866
2.04164
1.87784
2.19589
2.46024
2.20166
2.9952
2.40013
3.64462
2.22001
4.17678
2.50297
4.84656
2.32675
5.41279
2.5386
6.09544
2.49055
6.71962
2.6249
7.42169
2.6111
8.08744
2.84972
8.85453
2.79769
9.57202
3.07201
10.408
3.09828
11.2105
3.42114
12.1106
3.54821
13.0382
3.92969
14.0867
4.12416
15.1489
4.72017
16.3882
5.07649
17.6359
5.98943
19.1711
6.63934
20.6724
8.26087
22.6414
9.72166
24.2524
12.9016
16.4016
25.8903
0.339941
1.11265
0.761684
1.3954
1.24137
1.56195
1.73625
1.70101
2.28934
1.64857
2.77503
1.91444
3.39123
1.60381
3.86772
2.02648
4.51415
1.68032
5.02499
2.02776
5.68187
1.83366
6.24109
2.06568
6.90722
1.94497
7.51904
2.2379
8.25468
2.06205
8.91033
2.41636
9.69927
2.30935
10.4275
2.69292
11.3225
2.6532
12.1518
3.10036
13.1912
3.08483
14.1611
3.75019
15.4157
3.82194
16.5918
4.81331
18.1505
5.08065
19.7017
6.70971
21.7524
7.67088
23.6842
10.9698
14.3894
25.6964
0.313021
0.799628
0.705323
1.0031
1.14525
1.12202
1.61591
1.23035
2.10689
1.15759
2.5832
1.43813
3.13022
1.0568
3.60687
1.54982
4.18454
1.10265
4.67402
1.53828
5.26692
1.24077
5.80071
1.53189
6.41058
1.3351
7.02068
1.6278
7.63925
1.44349
8.32739
1.72821
8.9996
1.63714
9.77622
1.9163
10.5493
1.88015
11.4385
2.21111
12.3158
2.20758
13.3789
2.68702
14.4409
2.75995
15.7677
3.48658
17.1276
3.72075
18.9158
4.92146
20.8245
5.76216
23.4327
8.36168
11.7549
26.0672
0.288667
0.510962
0.651702
0.640065
1.05522
0.718509
1.50119
0.784379
1.92568
0.733096
2.43349
0.930316
2.84867
0.64162
3.39574
1.00275
3.81941
0.678978
4.38223
0.97546
4.85501
0.767984
5.42442
0.962486
5.91723
0.842292
6.54849
0.996541
7.06912
0.92285
7.73134
1.06599
8.32
1.04848
9.03969
1.19662
9.71869
1.20115
10.5378
1.39199
11.3318
1.41361
12.3176
1.70115
13.3084
1.7692
14.5707
2.22432
15.892
2.39936
17.6397
3.17379
19.6449
3.75694
22.7622
5.24447
8.21195
26.3051
0.266417
0.244545
0.602724
0.303758
0.979632
0.341601
1.39408
0.369928
1.77035
0.356831
2.26199
0.438672
2.61189
0.291717
3.14618
0.468469
3.50823
0.316928
4.02551
0.458182
4.4395
0.353991
4.94287
0.459114
5.39199
0.39317
5.91835
0.470187
6.40749
0.43371
6.96574
0.507733
7.51975
0.494474
8.14544
0.570926
8.78049
0.566096
9.50657
0.665916
10.2541
0.66604
11.1387
0.816558
12.076
0.831964
13.2266
1.07365
14.4987
1.12728
16.1286
1.54389
18.0814
1.80421
21.2765
2.04929
4.45732
25.0312
0.244545
0.548303
0.889904
1.25983
1.61666
2.05533
2.34705
2.81552
3.13245
3.59063
3.94462
4.40373
4.7969
5.26709
5.7008
6.20853
6.70301
7.27393
7.84003
8.50595
9.17199
9.98855
10.8205
11.8942
13.0214
14.5653
16.3695
18.4188
22.8761
1.17222
54.1189
1.19227
54.1202
1.21138
54.1211
1.2296
54.122
1.24697
54.1229
1.26353
54.1237
1.2793
54.1245
1.29431
54.1252
1.30858
54.126
1.32214
54.1267
1.33501
54.1274
1.3472
54.128
1.35874
54.1287
1.36962
54.1293
1.37988
54.13
1.38952
54.1306
1.39855
54.1312
1.40697
54.1318
1.41481
54.1324
1.42205
54.133
1.42871
54.1336
1.4348
54.1341
1.44032
54.1347
1.44527
54.1353
1.44965
54.1358
1.45348
54.1364
1.45674
54.137
1.45946
54.1375
1.46163
54.1381
1.46324
54.1386
1.46431
54.1392
1.46485
54.1397
1.46484
54.1402
1.4643
54.1408
1.46323
54.1413
1.46162
54.1418
1.4595
54.1424
1.45684
54.1429
1.45367
54.1434
1.44997
54.1439
1.44576
54.1445
1.44103
54.145
1.43579
54.1455
1.43003
54.146
1.42377
54.1465
1.417
54.147
1.40974
54.1475
1.40196
54.148
1.3937
54.1485
1.38495
54.149
1.37571
54.1495
1.36599
54.15
1.35578
54.1504
1.34511
54.1509
1.33398
54.1514
1.32239
54.1518
1.31035
54.1523
1.29788
54.1527
1.28498
54.1531
1.27169
54.1535
1.258
54.1539
1.24394
54.1543
1.2295
54.1547
1.2147
54.155
1.19954
54.1554
1.18404
54.1557
1.16819
54.1561
1.15201
54.1564
1.13551
54.1567
1.11869
54.1571
1.10157
54.1574
1.08415
54.1577
1.06644
54.1579
1.04846
54.1582
1.03022
54.1585
1.01172
54.1587
0.99298
54.159
0.974003
54.1592
0.954804
54.1594
0.935392
54.1596
0.915782
54.1598
0.895979
54.16
0.876002
54.1602
0.855855
54.1604
0.835556
54.1605
0.815108
54.1607
0.79453
54.1608
0.773825
54.1609
0.753008
54.1611
0.732092
54.1611
0.711094
54.1612
0.690023
54.1613
0.6689
54.1614
0.647732
54.1614
0.626541
54.1614
0.605334
54.1614
0.584132
54.1614
0.562943
54.1614
0.541788
54.1614
0.520676
54.1613
0.499621
54.1613
0.478642
54.1612
0.457746
54.1611
0.436965
54.161
0.416309
54.1609
0.395804
54.1607
0.375465
54.1606
0.35532
54.1604
0.335389
54.1602
0.315707
54.1599
0.296299
54.1596
0.277211
54.1593
0.258499
54.1589
0.240283
54.1585
0.22264
54.1579
0.205615
54.1573
0.189215
54.1566
0.173453
54.156
0.158086
54.1556
0.142781
54.1555
0.127244
54.1558
0.111234
54.1562
0.0945126
54.157
0.0768229
54.1579
0.0579097
54.1591