/*--------------------------------*- C++ -*----------------------------------*\
| =========                 |                                                 |
| \\      /  F ield         | OpenFOAM: The Open Source CFD Toolbox           |
|  \\    /   O peration     | Version:  5.x                                   |
|   \\  /    A nd           | Web:      www.OpenFOAM.org                      |
|    \\/     M anipulation  |                                                 |
\*---------------------------------------------------------------------------*/
/*   Windows 32 and 64 bit porting by blueCAPE: http://www.bluecape.com.pt   *\
|  Based on Windows porting (2.0.x v4) by Symscape: http://www.symscape.com   |
\*---------------------------------------------------------------------------*/
FoamFile
{
    version     2.0;
    format      ascii;
    class       volVectorField;
    location    "70";
    object      U;
}
// * * * * * * * * * * * * * * * * * * * * * * * * * * * * * * * * * * * * * //

dimensions      [0 1 -1 0 0 0 0];

internalField   nonuniform List<vector> 
43900
(
(1.16107 -0.000709075 -2.21268e-027)
(1.1684 0.00188093 -5.9285e-027)
(1.16935 6.75195e-005 1.2681e-030)
(1.16955 0.00163522 2.47825e-030)
(1.16973 0.000709968 2.58304e-030)
(1.16987 0.001466 3.31037e-030)
(1.16982 0.00119304 7.91415e-027)
(1.16989 0.00141025 -1.58172e-026)
(1.1699 0.00148247 7.84764e-030)
(1.16991 0.00154334 -1.57994e-026)
(1.16991 0.00161831 1.58204e-026)
(1.16991 0.00169034 9.55972e-030)
(1.16991 0.00175843 -1.57753e-026)
(1.1699 0.00182372 2.03437e-029)
(1.1699 0.00188647 2.08596e-029)
(1.1699 0.00194687 2.13477e-029)
(1.1699 0.00200491 -3.14642e-026)
(1.16991 0.00206075 4.4504e-029)
(1.16991 0.00211442 3.14864e-026)
(1.16991 0.00216597 2.30752e-029)
(1.16992 0.00221576 2.34609e-029)
(1.16992 0.00226334 2.38322e-029)
(1.16992 0.00230947 2.41887e-029)
(1.16993 0.00235394 2.45318e-029)
(1.16993 0.00239646 2.48636e-029)
(1.16993 0.00243763 -3.12468e-026)
(1.16994 0.00247729 5.09892e-029)
(1.16994 0.00251535 5.15874e-029)
(1.16995 0.00255278 1.24829e-025)
(1.15982 0.00598273 0)
(1.16534 -0.00118043 0)
(1.16746 0.00474653 0)
(1.16507 0.00145657 0)
(1.1666 0.00358948 0)
(1.16593 0.00323944 0)
(1.1663 0.00335332 0)
(1.16618 0.00397432 0)
(1.1663 0.00392862 0)
(1.16636 0.00423896 0)
(1.16643 0.00442729 0)
(1.1665 0.00459969 0)
(1.16657 0.00476466 0)
(1.16663 0.00491917 0)
(1.16668 0.00506353 0)
(1.16673 0.00519929 0)
(1.16677 0.00532705 0)
(1.16681 0.00544815 0)
(1.16685 0.00556289 0)
(1.16688 0.00567244 0)
(1.16692 0.00577618 0)
(1.16695 0.00587721 0)
(1.16697 0.00597249 0)
(1.167 0.00606459 0)
(1.16702 0.00615345 0)
(1.16704 0.00623935 0)
(1.16707 0.00632233 0)
(1.16709 0.00640223 0)
(1.16711 0.00647905 0)
(1.11838 0.0254661 0)
(1.15585 -0.0129704 0)
(1.16774 0.0218173 0)
(1.16404 -0.00289351 0)
(1.16647 0.014524 0)
(1.1649 0.00318748 0)
(1.16626 0.0100666 0)
(1.16592 0.00655023 0)
(1.16625 0.00814999 0)
(1.16642 0.00792511 0)
(1.16658 0.00800006 0)
(1.16674 0.00813306 0)
(1.16689 0.00826375 0)
(1.16702 0.00839294 0)
(1.16715 0.00852428 0)
(1.16727 0.00865646 0)
(1.16738 0.00878955 0)
(1.16749 0.0089225 0)
(1.16758 0.00905561 0)
(1.16767 0.00918871 0)
(1.16776 0.0093214 0)
(1.16784 0.00945255 0)
(1.16792 0.00958361 0)
(1.16799 0.0097132 0)
(1.16806 0.00984279 0)
(1.16812 0.00997104 0)
(1.16818 0.0100985 0)
(1.16824 0.0102253 0)
(1.16829 0.0103509 2.18117e-027)
(1.05349 0.0244581 0)
(1.10928 -0.0109375 0)
(1.15202 0.0240583 0)
(1.1645 0.00258467 0)
(1.16469 0.0200346 0)
(1.16554 0.00705382 0)
(1.16516 0.0161116 0)
(1.1658 0.0104864 0)
(1.16608 0.0134191 0)
(1.16617 0.012315 0)
(1.16634 0.0125306 0)
(1.16647 0.0125951 0)
(1.16659 0.0126413 0)
(1.16671 0.0127034 0)
(1.16681 0.0127826 0)
(1.16691 0.0128768 0)
(1.167 0.0129846 0)
(1.16709 0.0131046 0)
(1.16717 0.0132352 0)
(1.16725 0.0133748 0)
(1.16733 0.0135234 0)
(1.16741 0.0136782 0)
(1.16748 0.0138393 0)
(1.16755 0.014005 0)
(1.16763 0.0141746 0)
(1.1677 0.0143463 0)
(1.16777 0.0145209 0)
(1.16784 0.0146977 0)
(1.16792 0.0148725 2.31907e-027)
(1.01668 0.0108362 4.73786e-027)
(1.05939 -0.00246362 0)
(1.10531 0.0120505 0)
(1.14782 0.00920702 0)
(1.1633 0.0169277 0)
(1.16441 0.00984311 0)
(1.16432 0.0158386 0)
(1.16425 0.0117291 0)
(1.16416 0.0142912 0)
(1.16424 0.0132905 0)
(1.16425 0.0136813 0)
(1.16426 0.0138044 0)
(1.16426 0.0139148 0)
(1.16423 0.0140436 0)
(1.16417 0.01418 0)
(1.16412 0.0143261 0)
(1.16408 0.0144787 0)
(1.16405 0.0146384 0)
(1.16402 0.0148043 0)
(1.16401 0.0149762 0)
(1.164 0.0151543 0)
(1.16401 0.0153368 0)
(1.16402 0.0155255 0)
(1.16403 0.0157199 0)
(1.16405 0.0159187 0)
(1.16407 0.016121 0)
(1.1641 0.0163228 0)
(1.16413 0.0165297 0)
(1.16417 0.0167436 -9.78338e-027)
(0.994371 0.00482897 -4.96374e-027)
(1.03165 -0.000105811 0)
(1.07182 0.00564824 0)
(1.11385 0.00713774 0)
(1.15088 0.0110886 0)
(1.16247 0.00872317 0)
(1.16233 0.0125927 0)
(1.16201 0.00992391 0)
(1.16155 0.0121177 0)
(1.16119 0.0115131 0)
(1.16086 0.0121087 0)
(1.16056 0.0124353 0)
(1.1603 0.0127754 0)
(1.16009 0.0131305 0)
(1.15994 0.0134857 0)
(1.15981 0.0138377 0)
(1.15969 0.0141877 0)
(1.15959 0.0145365 0)
(1.1595 0.0148841 0)
(1.15942 0.01523 0)
(1.15936 0.0155758 0)
(1.15931 0.0159182 0)
(1.15926 0.016262 0)
(1.15923 0.0166039 0)
(1.15921 0.016945 0)
(1.15919 0.0172881 0)
(1.15919 0.0176303 0)
(1.1592 0.0179689 0)
(1.15922 0.0183093 5.17991e-027)
(0.983633 0.00223143 0)
(1.01814 0.000531365 0)
(1.05543 0.00302776 0)
(1.09471 0.00437176 0)
(1.13368 0.00638381 0)
(1.15645 0.00666872 0)
(1.15841 0.00877673 0)
(1.1583 0.00798812 0)
(1.15799 0.00951907 0)
(1.15776 0.00973258 0)
(1.15755 0.0104793 0)
(1.15736 0.0110788 0)
(1.1572 0.011684 0)
(1.15706 0.0122826 0)
(1.15695 0.0128722 0)
(1.15684 0.013455 0)
(1.15676 0.0140311 0)
(1.15668 0.0146004 0)
(1.15663 0.0151636 0)
(1.15658 0.0157194 0)
(1.15655 0.01627 0)
(1.15653 0.0168119 0)
(1.15652 0.0173503 0)
(1.15653 0.0178802 0)
(1.15654 0.0184026 0)
(1.15657 0.0189185 0)
(1.15661 0.01943 0)
(1.15666 0.0199316 0)
(1.15672 0.0204263 0)
(0.975309 0.00118705 0)
(1.00871 0.00112913 0)
(1.04494 0.00255476 0)
(1.08324 0.0037791 0)
(1.12205 0.00516978 0)
(1.14894 0.00598343 0)
(1.15309 0.00740066 0)
(1.15314 0.00754567 0)
(1.15301 0.00865016 0)
(1.15294 0.00925419 0)
(1.15287 0.0100415 0)
(1.15282 0.01077 0)
(1.15278 0.0114996 0)
(1.15276 0.0122222 0)
(1.15274 0.012938 0)
(1.15274 0.0136468 0)
(1.15274 0.0143483 0)
(1.15275 0.0150418 0)
(1.15278 0.0157278 0)
(1.15281 0.0164053 0)
(1.15286 0.017075 0)
(1.1529 0.0177355 0)
(1.15297 0.01839 0)
(1.15305 0.019035 0)
(1.15314 0.0196709 0)
(1.15324 0.0202968 0)
(1.15336 0.0209152 0)
(1.15348 0.0215242 0)
(1.15361 0.0221244 0)
(0.966404 0.000865199 0)
(0.99916 0.00131527 0)
(1.03485 0.00249136 0)
(1.07268 0.00362535 0)
(1.11122 0.00479241 0)
(1.13937 0.00580308 0)
(1.14442 0.00692618 0)
(1.14453 0.00751962 0)
(1.14449 0.00849045 0)
(1.14449 0.0092872 0)
(1.1445 0.0101405 0)
(1.14453 0.0109682 0)
(1.14457 0.0117912 0)
(1.14463 0.012606 0)
(1.1447 0.013413 0)
(1.14479 0.0142116 0)
(1.14489 0.0150021 0)
(1.14501 0.0157836 0)
(1.14514 0.0165564 0)
(1.14528 0.0173204 0)
(1.14545 0.0180746 0)
(1.14558 0.0188203 0)
(1.14575 0.0195569 0)
(1.14594 0.0202837 0)
(1.14614 0.0210013 0)
(1.14635 0.0217085 0)
(1.14657 0.022406 0)
(1.14679 0.023094 0)
(1.14703 0.0237729 0)
(0.958693 0.000446588 0)
(0.991072 0.0013383 0)
(1.02637 0.00233893 0)
(1.06383 0.00331778 0)
(1.10212 0.00431812 0)
(1.13039 0.00540829 0)
(1.13565 0.0065144 0)
(1.13579 0.00738761 0)
(1.13582 0.00841266 0)
(1.13587 0.00938024 0)
(1.13594 0.0103572 0)
(1.13602 0.0113176 0)
(1.13612 0.0122684 0)
(1.13623 0.0132084 0)
(1.13636 0.014138 0)
(1.13651 0.0150572 0)
(1.13667 0.0159662 0)
(1.13685 0.0168651 0)
(1.13704 0.0177536 0)
(1.13725 0.0186321 0)
(1.13747 0.0195001 0)
(1.13769 0.0203572 0)
(1.13793 0.0212026 0)
(1.13819 0.0220371 0)
(1.13847 0.0228604 0)
(1.13877 0.0236724 0)
(1.13907 0.0244724 0)
(1.13939 0.0252608 0)
(1.13972 0.0260362 -1.34464e-026)
(0.951566 0.000260201 0)
(0.983788 0.00151219 0)
(1.01895 0.00250241 0)
(1.05628 0.00346953 0)
(1.0944 0.0044585 0)
(1.12241 0.00563194 0)
(1.12767 0.00679249 0)
(1.12788 0.00782971 0)
(1.12799 0.00894873 0)
(1.12812 0.0100525 0)
(1.12827 0.0111536 0)
(1.12843 0.0122437 0)
(1.12861 0.0133244 0)
(1.1288 0.0143951 0)
(1.12901 0.0154555 0)
(1.12924 0.016505 0)
(1.12948 0.0175436 0)
(1.12974 0.0185709 0)
(1.13002 0.0195867 0)
(1.13031 0.0205904 0)
(1.13063 0.0215826 0)
(1.13094 0.0225617 0)
(1.13127 0.0235271 0)
(1.13163 0.0244795 0)
(1.132 0.0254186 0)
(1.13239 0.0263444 0)
(1.13279 0.0272559 0)
(1.13321 0.0281541 0)
(1.13365 0.0290362 1.42029e-026)
(0.943834 0.00029973 0)
(0.975913 0.00176093 0)
(1.01099 0.00290016 0)
(1.04828 0.00400856 0)
(1.08645 0.00512486 0)
(1.11406 0.00644919 0)
(1.11913 0.00770935 0)
(1.1194 0.00888352 0)
(1.11958 0.0101239 0)
(1.11977 0.0113641 0)
(1.11999 0.0125991 0)
(1.12023 0.0138257 0)
(1.12048 0.0150438 0)
(1.12076 0.0162527 0)
(1.12106 0.0174515 0)
(1.12137 0.0186396 0)
(1.12171 0.0198164 0)
(1.12206 0.0209812 0)
(1.12244 0.0221336 0)
(1.12283 0.0232726 0)
(1.12325 0.0243985 0)
(1.12367 0.0255098 0)
(1.12412 0.0266057 0)
(1.12459 0.0276865 0)
(1.12507 0.0287517 0)
(1.12558 0.0298011 0)
(1.1261 0.0308337 0)
(1.12664 0.0318503 0)
(1.1272 0.0328493 1.54357e-026)
(0.935239 0.000353678 0)
(0.967188 0.00203463 0)
(1.00218 0.00335406 0)
(1.03943 0.00463356 0)
(1.07763 0.00592134 0)
(1.10477 0.00744441 0)
(1.1096 0.0088671 0)
(1.1099 0.0102102 0)
(1.11012 0.0116191 0)
(1.11036 0.0130313 0)
(1.11064 0.0144358 0)
(1.11094 0.0158312 0)
(1.11126 0.0172168 0)
(1.11161 0.0185917 0)
(1.11199 0.0199552 0)
(1.11239 0.0213063 0)
(1.11282 0.0226442 0)
(1.11327 0.0239683 0)
(1.11375 0.0252778 0)
(1.11425 0.0265717 0)
(1.11477 0.02785 0)
(1.11531 0.0291112 0)
(1.11588 0.0303545 0)
(1.11647 0.03158 0)
(1.11708 0.0327867 0)
(1.11772 0.0339745 0)
(1.11837 0.0351423 0)
(1.11905 0.0362903 0)
(1.11974 0.0374185 -1.63102e-026)
(0.925894 0.000410586 0)
(0.957706 0.00233363 0)
(0.992617 0.00384725 0)
(1.02984 0.00531201 0)
(1.06806 0.00679162 0)
(1.09467 0.00854313 0)
(1.09927 0.0101689 0)
(1.0996 0.0117145 0)
(1.09987 0.0133306 0)
(1.10017 0.0149498 0)
(1.10051 0.0165589 0)
(1.10087 0.0181564 0)
(1.10127 0.0197418 0)
(1.10171 0.0213139 0)
(1.10217 0.0228717 0)
(1.10267 0.0244143 0)
(1.10319 0.0259408 0)
(1.10375 0.0274502 0)
(1.10434 0.0289418 0)
(1.10495 0.0304144 0)
(1.1056 0.0318675 0)
(1.10627 0.0333001 0)
(1.10697 0.0347113 0)
(1.10769 0.0361004 0)
(1.10845 0.037467 0)
(1.10922 0.0388102 0)
(1.11003 0.0401293 0)
(1.11085 0.0414237 0)
(1.1117 0.0426944 -1.78418e-026)
(0.915755 0.000479851 0)
(0.947422 0.00268201 0)
(0.982252 0.00442321 0)
(1.01945 0.00610508 0)
(1.05771 0.00781046 0)
(1.08376 0.0098254 0)
(1.08816 0.0116834 0)
(1.08854 0.0134596 0)
(1.08887 0.0153135 0)
(1.08924 0.0171695 0)
(1.08965 0.0190128 0)
(1.0901 0.0208421 0)
(1.09059 0.0226563 0)
(1.09112 0.024454 0)
(1.09169 0.0262342 0)
(1.09229 0.0279955 0)
(1.09294 0.029737 0)
(1.09362 0.0314575 0)
(1.09434 0.0331559 0)
(1.09509 0.034831 0)
(1.09587 0.0364822 0)
(1.09669 0.0381081 0)
(1.09755 0.0397079 0)
(1.09843 0.0412809 0)
(1.09934 0.042826 0)
(1.10029 0.0443426 0)
(1.10126 0.0458298 0)
(1.10227 0.0472864 0)
(1.1033 0.0487146 1.88602e-026)
(0.904704 0.000562124 0)
(0.936215 0.00308903 0)
(0.970961 0.00509717 0)
(1.00814 0.00703332 0)
(1.04644 0.00900437 0)
(1.07192 0.0113233 0)
(1.07613 0.0134455 0)
(1.07657 0.0154851 0)
(1.07697 0.0176105 0)
(1.07742 0.0197366 0)
(1.07792 0.0218468 0)
(1.07847 0.0239398 0)
(1.07907 0.0260141 0)
(1.07971 0.0280682 0)
(1.0804 0.0301006 0)
(1.08114 0.0321098 0)
(1.08192 0.0340946 0)
(1.08275 0.0360533 0)
(1.08362 0.0379848 0)
(1.08453 0.039888 0)
(1.08548 0.0417611 0)
(1.08647 0.0436035 0)
(1.0875 0.0454139 0)
(1.08857 0.0471907 0)
(1.08968 0.0489341 0)
(1.09082 0.0506419 0)
(1.09199 0.0523134 0)
(1.0932 0.0539481 0)
(1.09444 0.0555472 0)
(0.892653 0.000656524 0)
(0.923994 0.00355639 0)
(0.958653 0.00587047 0)
(0.995824 0.0080976 0)
(1.03417 0.0103754 0)
(1.05904 0.0130418 0)
(1.06307 0.0154652 0)
(1.06359 0.0178072 0)
(1.06407 0.0202435 0)
(1.06461 0.022678 0)
(1.06522 0.0250927 0)
(1.06588 0.0274861 0)
(1.0666 0.0298564 0)
(1.06738 0.0322017 0)
(1.06821 0.0345201 0)
(1.0691 0.0368102 0)
(1.07004 0.0390698 0)
(1.07104 0.0412974 0)
(1.07208 0.0434919 0)
(1.07318 0.0456503 0)
(1.07433 0.0477734 0)
(1.07552 0.0498579 0)
(1.07676 0.0519023 0)
(1.07804 0.0539085 0)
(1.07937 0.0558702 0)
(1.08074 0.0577902 0)
(1.08214 0.0596682 0)
(1.08359 0.0614962 0)
(1.08507 0.0632865 0)
(0.879535 0.000764039 0)
(0.910692 0.0040886 0)
(0.94526 0.00675003 0)
(0.982428 0.009307 0)
(1.02082 0.011936 0)
(1.04505 0.0149967 0)
(1.04892 0.0177615 0)
(1.04952 0.0204491 0)
(1.0501 0.0232394 0)
(1.05076 0.0260245 0)
(1.05148 0.0287849 0)
(1.05228 0.0315191 0)
(1.05314 0.0342249 0)
(1.05407 0.0368993 0)
(1.05507 0.0395415 0)
(1.05614 0.0421472 0)
(1.05727 0.0447167 0)
(1.05846 0.0472467 0)
(1.05972 0.0497336 0)
(1.06103 0.0521809 0)
(1.06239 0.0545794 0)
(1.06383 0.056932 0)
(1.0653 0.0592411 0)
(1.06683 0.0614907 0)
(1.06842 0.063698 0)
(1.07003 0.065851 0)
(1.07172 0.0679413 0)
(1.07344 0.0699892 0)
(1.07519 0.0719757 0)
(0.865284 0.000886223 5.46278e-026)
(0.896242 0.00469229 0)
(0.930718 0.00774661 0)
(0.967893 0.0106761 0)
(1.00634 0.0137062 0)
(1.02988 0.0172114 0)
(1.03362 0.020361 0)
(1.03432 0.023441 0)
(1.03502 0.026632 0)
(1.0358 0.0298131 0)
(1.03666 0.0329642 0)
(1.03761 0.0360828 0)
(1.03864 0.0391658 0)
(1.03976 0.0422125 0)
(1.04095 0.0452152 0)
(1.04223 0.0481791 0)
(1.04356 0.0510936 0)
(1.045 0.053959 0)
(1.04648 0.0567814 0)
(1.04804 0.0595379 0)
(1.04969 0.06225 0)
(1.05135 0.0649075 0)
(1.05314 0.0674852 0)
(1.05496 0.0700337 0)
(1.05679 0.0724983 0)
(1.05878 0.0748912 0)
(1.06073 0.0772584 0)
(1.06275 0.0795091 0)
(1.06489 0.0817252 0)
(0.849837 0.00102428 1.84511e-027)
(0.880582 0.00537396 0)
(0.914965 0.00887049 0)
(0.95216 0.0122185 0)
(0.990653 0.015705 0)
(1.01348 0.0197083 0)
(1.01711 0.0232895 0)
(1.01792 0.0268135 0)
(1.01875 0.030455 0)
(1.01968 0.0340825 0)
(1.02071 0.0376714 0)
(1.02184 0.0412216 0)
(1.02306 0.0447301 0)
(1.02439 0.0481866 0)
(1.02581 0.0516045 0)
(1.0273 0.0549554 0)
(1.02893 0.0582597 0)
(1.03057 0.0615105 0)
(1.03237 0.0646743 0)
(1.03424 0.0678085 0)
(1.03609 0.0708574 0)
(1.0382 0.073811 0)
(1.04022 0.0767659 0)
(1.04232 0.079564 0)
(1.04469 0.0823178 0)
(1.0468 0.0850537 0)
(1.04919 0.0875819 0)
(1.05169 0.0901455 0)
(1.05395 0.0926027 0)
(0.833138 0.00117894 -6.32203e-026)
(0.863656 0.0061395 0)
(0.897945 0.0101306 0)
(0.935177 0.0139463 0)
(0.973711 0.0179495 0)
(0.995789 0.0225066 0)
(0.999329 0.0265709 0)
(1.00028 0.0305927 0)
(1.00126 0.0347422 0)
(1.00235 0.0388646 0)
(1.00358 0.0429477 0)
(1.0049 0.0469785 0)
(1.00636 0.0509543 0)
(1.00793 0.0548898 0)
(1.00957 0.0587338 0)
(1.01143 0.0625496 0)
(1.01319 0.066279 0)
(1.01531 0.0699129 0)
(1.01735 0.073539 0)
(1.01941 0.0770176 0)
(1.02196 0.0804143 0)
(1.02403 0.0838441 0)
(1.02657 0.086988 0)
(1.02933 0.0901973 0)
(1.03148 0.093342 0)
(1.03452 0.0961479 0)
(1.03728 0.0992 0)
(1.0397 0.101919 0)
(1.04304 0.104533 0)
(0.815141 0.00135059 0)
(0.845417 0.00699423 0)
(0.879614 0.0115345 0)
(0.916905 0.0158693 0)
(0.955463 0.0204544 0)
(0.976754 0.0256242 0)
(0.980234 0.0302231 0)
(0.981338 0.0348088 0)
(0.982484 0.0395131 0)
(0.983787 0.0442036 0)
(0.985198 0.0488187 0)
(0.986799 0.0533925 0)
(0.988477 0.0579059 0)
(0.990305 0.0623143 0)
(0.992379 0.0667204 0)
(0.994225 0.0709761 0)
(0.996801 0.0751696 0)
(0.998822 0.0793481 0)
(1.00129 0.0833084 0)
(1.00428 0.0872329 0)
(1.0062 0.0912078 0)
(1.00959 0.0947151 0)
(1.01246 0.0985143 0)
(1.01466 0.102085 0)
(1.01875 0.105202 0)
(1.02131 0.108908 0)
(1.02415 0.111826 0)
(1.02846 0.114884 0)
(1.03088 0.118113 0)
(0.795813 0.00153918 -7.82867e-026)
(0.825832 0.00794275 0)
(0.85994 0.0130883 0)
(0.897316 0.0179954 0)
(0.935872 0.0232335 0)
(0.956341 0.029071 0)
(0.959793 0.034272 0)
(0.96106 0.0394652 0)
(0.962423 0.0448226 0)
(0.963897 0.0500876 0)
(0.965639 0.055353 0)
(0.967382 0.060491 0)
(0.969452 0.0655678 0)
(0.971658 0.0706226 0)
(0.973621 0.075474 0)
(0.976758 0.080326 0)
(0.978472 0.0851004 0)
(0.981801 0.0896309 0)
(0.984884 0.0941479 0)
(0.986682 0.09877 0)
(0.991376 0.102628 0)
(0.993692 0.107186 0)
(0.996472 0.111172 0)
(1.00172 0.114622 0)
(1.00348 0.119183 0)
(1.00754 0.12213 0)
(1.01254 0.125857 0)
(1.01436 0.129522 0)
(1.01947 0.132163 7.10461e-026)
(0.775134 0.00174397 -2.79755e-027)
(0.804883 0.00898851 0)
(0.838906 0.0147956 0)
(0.8764 0.0203298 0)
(0.914911 0.0262926 0)
(0.934527 0.032866 0)
(0.937967 0.0387045 0)
(0.939452 0.0446314 0)
(0.940969 0.0506 0)
(0.94283 0.0566599 0)
(0.944589 0.0624567 0)
(0.946976 0.0683512 0)
(0.949128 0.0740557 0)
(0.951408 0.079648 0)
(0.955006 0.0852005 0)
(0.956227 0.0906713 0)
(0.960993 0.0958552 0)
(0.963362 0.101016 0)
(0.965659 0.106457 0)
(0.971677 0.110533 0)
(0.972799 0.116199 0)
(0.977195 0.120485 0)
(0.982895 0.124333 0)
(0.983916 0.130075 0)
(0.989883 0.132762 0)
(0.994768 0.137531 0)
(0.99651 0.141662 0)
(1.00338 0.144346 0)
(1.00721 0.148898 1.44704e-027)
(0.753103 0.0019635 9.09798e-026)
(0.782569 0.0101335 0)
(0.816514 0.016657 0)
(0.854163 0.0228725 0)
(0.892569 0.0296446 0)
(0.91129 0.0369835 0)
(0.914778 0.0435949 0)
(0.916409 0.050172 0)
(0.918343 0.0570996 0)
(0.920094 0.0636049 0)
(0.922826 0.0704869 0)
(0.924702 0.0767829 0)
(0.927679 0.0833742 0)
(0.931259 0.089544 0)
(0.932224 0.0959879 0)
(0.938648 0.101708 0)
(0.93944 0.10776 0)
(0.943487 0.114087 0)
(0.949942 0.118219 0)
(0.950079 0.125634 0)
(0.956586 0.129684 0)
(0.961778 0.134388 0)
(0.963075 0.141497 0)
(0.970444 0.14345 0)
(0.975054 0.150005 0)
(0.977412 0.154225 0)
(0.985585 0.15711 0)
(0.989092 0.162914 0)
(0.993216 0.165479 -8.12783e-026)
(0.729736 0.00219534 0)
(0.758909 0.0113779 0)
(0.792782 0.0186691 0)
(0.830632 0.0256219 0)
(0.868843 0.0332654 0)
(0.88666 0.0414857 0)
(0.890144 0.0487755 0)
(0.892174 0.0564396 0)
(0.893936 0.0637377 0)
(0.896927 0.0717316 0)
(0.898421 0.0785876 0)
(0.902463 0.0864882 0)
(0.905189 0.0930886 0)
(0.906763 0.100895 0)
(0.91431 0.106768 0)
(0.913482 0.114486 0)
(0.920126 0.121166 0)
(0.925655 0.125766 0)
(0.925886 0.13525 0)
(0.933826 0.138337 0)
(0.938724 0.144998 0)
(0.940726 0.152862 0)
(0.949067 0.154323 0)
(0.953769 0.163138 0)
(0.956679 0.166834 0)
(0.965769 0.170327 0)
(0.96974 0.177598 0)
(0.974469 0.179578 0)
(0.983323 0.184562 0)
(0.705073 0.00243593 0)
(0.733945 0.0127197 0)
(0.767756 0.0208238 0)
(0.805858 0.0285633 0)
(0.843763 0.0371932 0)
(0.860602 0.046214 0)
(0.864276 0.0545986 0)
(0.866178 0.0626646 0)
(0.869226 0.07177 0)
(0.870459 0.0793154 0)
(0.875566 0.0886898 0)
(0.876716 0.0956117 0)
(0.880323 0.105093 0)
(0.887634 0.110995 0)
(0.885962 0.121104 0)
(0.894625 0.12694 0)
(0.898935 0.133567 0)
(0.899961 0.144316 0)
(0.909239 0.146776 0)
(0.914148 0.155898 0)
(0.916184 0.163605 0)
(0.925388 0.165659 0)
(0.930834 0.176459 0)
(0.934339 0.17965 0)
(0.944084 0.184203 0)
(0.94856 0.192925 0)
(0.953991 0.194402 0)
(0.963827 0.200614 0)
(0.967393 0.205576 9.60946e-026)
(0.679176 0.00268067 0)
(0.707741 0.0141546 0)
(0.741502 0.023108 0)
(0.77991 0.0316913 0)
(0.817345 0.0413178 0)
(0.833263 0.0514236 0)
(0.83679 0.0603407 0)
(0.839765 0.0702774 0)
(0.841028 0.0788095 0)
(0.846719 0.0895102 0)
(0.846353 0.0970434 0)
(0.852983 0.108203 0)
(0.857757 0.114421 0)
(0.856577 0.126495 0)
(0.867688 0.131987 0)
(0.870223 0.141536 0)
(0.871922 0.152014 0)
(0.882725 0.154901 0)
(0.887573 0.166641 0)
(0.889383 0.173838 0)
(0.899887 0.177452 0)
(0.905962 0.189385 0)
(0.909924 0.192613 0)
(0.920235 0.198385 0)
(0.925222 0.208547 0)
(0.931641 0.209324 0)
(0.942369 0.217116 0)
(0.946613 0.223157 0)
(0.95547 0.225176 1.46188e-027)
(0.652133 0.00292342 0)
(0.68039 0.0156754 0)
(0.714116 0.0255018 0)
(0.752886 0.0349663 0)
(0.789668 0.0457662 0)
(0.804495 0.0566172 0)
(0.808604 0.0671651 0)
(0.810255 0.0768637 0)
(0.815828 0.0885749 0)
(0.814728 0.0974331 0)
(0.823748 0.109576 0)
(0.824669 0.116943 0)
(0.826725 0.130429 0)
(0.838904 0.136763 0)
(0.838456 0.148015 0)
(0.842312 0.158018 0)
(0.855047 0.163034 0)
(0.857927 0.177061 0)
(0.860118 0.183362 0)
(0.872849 0.188854 0)
(0.879105 0.201719 0)
(0.883021 0.205555 0)
(0.894389 0.213046 0)
(0.899655 0.223883 0)
(0.907691 0.224377 0)
(0.919135 0.234307 0)
(0.923676 0.240988 0)
(0.933601 0.242313 0)
(0.944109 0.251292 -2.20726e-025)
(0.624055 0.00315759 0)
(0.652007 0.0172741 0)
(0.685715 0.0279828 0)
(0.724893 0.0383879 0)
(0.760761 0.0502857 0)
(0.774752 0.0624311 0)
(0.778081 0.0733173 0)
(0.783 0.085671 0)
(0.782023 0.0962148 0)
(0.792311 0.108901 0)
(0.790055 0.118637 0)
(0.796907 0.132461 0)
(0.806394 0.139422 0)
(0.804225 0.153559 0)
(0.813361 0.163098 0)
(0.824353 0.171226 0)
(0.823756 0.185177 0)
(0.8299 0.191881 0)
(0.845575 0.200393 0)
(0.848756 0.213425 0)
(0.852958 0.218225 0)
(0.86671 0.227193 0)
(0.871995 0.238567 0)
(0.882205 0.239817 0)
(0.893597 0.252356 0)
(0.897614 0.258577 0)
(0.909751 0.26043 0)
(0.921147 0.271523 0)
(0.927053 0.274166 -1.3249e-027)
(0.595075 0.00337394 0)
(0.622734 0.018938 0)
(0.656449 0.0305154 0)
(0.696068 0.0418916 0)
(0.730763 0.0550775 0)
(0.743422 0.0680265 0)
(0.748524 0.080772 0)
(0.748601 0.0930473 0)
(0.758634 0.106224 0)
(0.754616 0.118718 0)
(0.765495 0.132064 0)
(0.770025 0.140875 0)
(0.769478 0.158196 0)
(0.782571 0.166535 0)
(0.788491 0.177791 0)
(0.788793 0.191508 0)
(0.801951 0.200567 0)
(0.813069 0.210109 0)
(0.813392 0.224255 0)
(0.822953 0.230309 0)
(0.838459 0.240435 0)
(0.841808 0.253176 0)
(0.853447 0.255299 0)
(0.863209 0.269751 0)
(0.869855 0.275338 0)
(0.88699 0.279314 0)
(0.894109 0.291684 0)
(0.903034 0.294197 0)
(0.917854 0.299903 1.26524e-025)
(0.56535 0.00356367 0)
(0.592734 0.020656 0)
(0.626491 0.0330697 0)
(0.666527 0.0454552 0)
(0.699675 0.0599035 0)
(0.711931 0.0740261 0)
(0.714323 0.0876896 0)
(0.722789 0.101592 0)
(0.718486 0.116182 0)
(0.732256 0.129518 0)
(0.731455 0.141841 0)
(0.735673 0.159769 0)
(0.748299 0.166928 0)
(0.750273 0.183845 0)
(0.755672 0.196066 0)
(0.769882 0.207 0)
(0.774816 0.218862 0)
(0.777339 0.233752 0)
(0.794328 0.241516 0)
(0.804719 0.252899 0)
(0.807618 0.266902 0)
(0.822843 0.269969 0)
(0.831226 0.287082 0)
(0.843663 0.291234 0)
(0.85724 0.298575 0)
(0.863473 0.312238 0)
(0.880061 0.313833 0)
(0.890198 0.321926 0)
(0.901705 0.329979 1.3646e-025)
(0.535054 0.00371577 0)
(0.562188 0.0224153 0)
(0.59604 0.0355956 0)
(0.636435 0.049084 0)
(0.667826 0.0646932 0)
(0.678057 0.0801882 0)
(0.685094 0.0947918 0)
(0.682227 0.110727 0)
(0.696695 0.125224 0)
(0.692091 0.140351 0)
(0.701859 0.157867 0)
(0.710184 0.166373 0)
(0.711724 0.18808 0)
(0.720642 0.196982 0)
(0.732959 0.213321 0)
(0.73466 0.226075 0)
(0.744285 0.241104 0)
(0.761117 0.250023 0)
(0.764928 0.264751 0)
(0.773452 0.277779 0)
(0.791281 0.28563 0)
(0.797093 0.302408 0)
(0.813704 0.305175 0)
(0.821248 0.319617 0)
(0.834056 0.330533 0)
(0.854139 0.333589 0)
(0.859104 0.345709 0)
(0.87667 0.351767 0)
(0.890262 0.357572 -1.44966e-025)
(0.504372 0.00382 0)
(0.531288 0.0242036 0)
(0.565309 0.0380724 0)
(0.605857 0.0525882 0)
(0.634876 0.069804 0)
(0.645909 0.0857611 0)
(0.646541 0.102823 0)
(0.658915 0.11848 0)
(0.653125 0.135721 0)
(0.666671 0.153238 0)
(0.669188 0.164781 0)
(0.674055 0.188327 0)
(0.683337 0.196867 0)
(0.693194 0.21675 0)
(0.694921 0.229682 0)
(0.710694 0.245966 0)
(0.722457 0.257325 0)
(0.723566 0.275301 0)
(0.741278 0.286613 0)
(0.75149 0.300607 0)
(0.761345 0.312841 0)
(0.780968 0.321519 0)
(0.785585 0.339967 0)
(0.803919 0.344602 0)
(0.81765 0.355483 0)
(0.827025 0.366886 0)
(0.851663 0.3735 0)
(0.859637 0.382644 0)
(0.876011 0.386852 1.551e-025)
(0.4735 0.00386126 0)
(0.500233 0.0260094 0)
(0.534513 0.0404107 0)
(0.574923 0.0562612 0)
(0.601873 0.0741897 0)
(0.609536 0.0925672 0)
(0.618795 0.109145 0)
(0.613951 0.127824 0)
(0.62975 0.146718 0)
(0.627386 0.160988 0)
(0.636808 0.184293 0)
(0.643061 0.195009 0)
(0.653378 0.217125 0)
(0.654998 0.231258 0)
(0.673315 0.24848 0)
(0.677063 0.263734 0)
(0.68463 0.28282 0)
(0.705532 0.293738 0)
(0.707746 0.312748 0)
(0.727309 0.322111 0)
(0.739844 0.338689 0)
(0.747054 0.354317 0)
(0.77078 0.360603 0)
(0.779473 0.378522 0)
(0.797402 0.384338 0)
(0.816256 0.396512 0)
(0.825473 0.406031 0)
(0.849708 0.411692 0)
(0.863661 0.423452 -3.29694e-025)
(0.442637 0.00383038 0)
(0.469226 0.0278162 0)
(0.503877 0.0426323 0)
(0.543717 0.0594875 0)
(0.567378 0.0795524 0)
(0.577705 0.0973481 0)
(0.576903 0.117767 0)
(0.590962 0.136401 0)
(0.585829 0.154168 0)
(0.599071 0.177074 0)
(0.602168 0.19089 0)
(0.612082 0.213469 0)
(0.613714 0.230723 0)
(0.633518 0.248156 0)
(0.63238 0.267108 0)
(0.648521 0.285142 0)
(0.662153 0.298612 0)
(0.665901 0.321129 0)
(0.68949 0.330933 0)
(0.696396 0.351922 0)
(0.709131 0.364452 0)
(0.73165 0.377009 0)
(0.739783 0.396072 0)
(0.763699 0.40067 0)
(0.777084 0.420892 0)
(0.791271 0.42591 0)
(0.818267 0.437589 0)
(0.828377 0.448395 0)
(0.851732 0.452838 5.36284e-028)
(0.411988 0.00370803 0)
(0.43848 0.029615 0)
(0.473568 0.0445696 0)
(0.512123 0.0630963 0)
(0.53408 0.0832868 0)
(0.539446 0.104604 0)
(0.550119 0.123473 0)
(0.545001 0.144428 0)
(0.561316 0.167094 0)
(0.560047 0.183488 0)
(0.568912 0.206969 0)
(0.576059 0.22699 0)
(0.589855 0.243775 0)
(0.588326 0.267042 0)
(0.610172 0.284942 0)
(0.613985 0.30189 0)
(0.626002 0.325631 0)
(0.64634 0.337186 0)
(0.650959 0.360562 0)
(0.671569 0.373673 0)
(0.686672 0.393624 0)
(0.697641 0.407263 0)
(0.725006 0.418068 0)
(0.735362 0.441412 0)
(0.756667 0.444488 0)
(0.778055 0.463351 0)
(0.791156 0.471897 0)
(0.82228 0.480303 0)
(0.835493 0.490168 1.21574e-027)
(0.381748 0.00349789 0)
(0.408202 0.0313841 0)
(0.443742 0.0463416 0)
(0.480668 0.0659728 0)
(0.498561 0.0885897 0)
(0.508542 0.108644 0)
(0.507037 0.131708 0)
(0.521727 0.153502 0)
(0.517047 0.172811 0)
(0.529302 0.198465 0)
(0.537349 0.218662 0)
(0.541417 0.236054 0)
(0.548563 0.264788 0)
(0.567306 0.280417 0)
(0.566676 0.30225 0)
(0.587372 0.325593 0)
(0.597334 0.340858 0)
(0.605887 0.366201 0)
(0.630833 0.379627 0)
(0.636709 0.405407 0)
(0.659212 0.414258 0)
(0.680114 0.43908 0)
(0.689428 0.454342 0)
(0.717365 0.46281 0)
(0.733117 0.487102 0)
(0.756779 0.492837 0)
(0.782886 0.507436 0)
(0.796714 0.517124 0)
(0.829129 0.525043 1.96429e-025)
(0.3521 0.00319193 0)
(0.378605 0.0331211 0)
(0.4145 0.0477598 0)
(0.448572 0.0693093 0)
(0.465962 0.0920399 0)
(0.469674 0.115227 0)
(0.480612 0.137743 0)
(0.476689 0.159528 0)
(0.490936 0.186331 0)
(0.49365 0.205407 0)
(0.497348 0.227796 0)
(0.512027 0.257748 0)
(0.520284 0.270856 0)
(0.522631 0.29953 0)
(0.544649 0.321314 0)
(0.547799 0.340989 0)
(0.563561 0.365897 0)
(0.585091 0.384135 0)
(0.588803 0.410253 0)
(0.614795 0.421692 0)
(0.629013 0.452758 0)
(0.646411 0.461363 0)
(0.675236 0.484121 0)
(0.685543 0.504677 0)
(0.715348 0.51073 0)
(0.736441 0.534239 0)
(0.759139 0.539905 0)
(0.792174 0.556502 0)
(0.807189 0.564032 -2.04356e-025)
(0.323205 0.00281439 0)
(0.349867 0.0347928 0)
(0.385734 0.0489788 0)
(0.417387 0.0721928 0)
(0.430372 0.0962412 0)
(0.439769 0.120251 0)
(0.439266 0.142753 0)
(0.451264 0.170968 0)
(0.450264 0.18926 0)
(0.459179 0.217767 0)
(0.471264 0.243762 0)
(0.471308 0.260424 0)
(0.482098 0.293365 0)
(0.500233 0.311294 0)
(0.500315 0.338062 0)
(0.521588 0.361288 0)
(0.533891 0.386005 0)
(0.540021 0.407018 0)
(0.568762 0.429538 0)
(0.579021 0.457915 0)
(0.601458 0.468927 0)
(0.621922 0.498987 0)
(0.636628 0.514443 0)
(0.673528 0.532103 0)
(0.686746 0.554673 0)
(0.717133 0.561355 0)
(0.743717 0.583714 0)
(0.765784 0.592364 0)
(0.806079 0.604793 2.18096e-025)
(0.295207 0.00241569 0)
(0.322113 0.0363252 0)
(0.357683 0.0500915 0)
(0.385371 0.0747688 0)
(0.399011 0.100658 0)
(0.402593 0.123228 0)
(0.411189 0.152699 0)
(0.411397 0.17105 0)
(0.421715 0.204208 0)
(0.426431 0.225099 0)
(0.427863 0.248326 0)
(0.446219 0.281794 0)
(0.453057 0.298134 0)
(0.454655 0.331522 0)
(0.47768 0.351266 0)
(0.480591 0.381593 0)
(0.498858 0.402834 0)
(0.520971 0.430821 0)
(0.525045 0.457204 0)
(0.553228 0.472244 0)
(0.569109 0.507589 0)
(0.590483 0.521066 0)
(0.619476 0.548837 0)
(0.633927 0.567238 0)
(0.673362 0.583077 0)
(0.691649 0.608968 0)
(0.725222 0.615831 0)
(0.756178 0.634653 0)
(0.77929 0.642352 0)
(0.268235 0.0020564 0)
(0.295444 0.0377024 0)
(0.329946 0.0508685 0)
(0.355039 0.0781379 0)
(0.365061 0.102188 0)
(0.372591 0.13176 0)
(0.375234 0.150849 0)
(0.382473 0.186579 0)
(0.384899 0.204315 0)
(0.391614 0.235057 0)
(0.405433 0.263531 0)
(0.404505 0.282907 0)
(0.414049 0.320618 0)
(0.432129 0.338798 0)
(0.434226 0.371701 0)
(0.455699 0.394378 0)
(0.464993 0.423692 0)
(0.47565 0.452581 0)
(0.505516 0.474755 0)
(0.514288 0.508984 0)
(0.54063 0.522514 0)
(0.561031 0.56052 0)
(0.583782 0.573459 0)
(0.619932 0.603379 0)
(0.635622 0.62444 0)
(0.677781 0.636792 0)
(0.700082 0.66449 0)
(0.738113 0.670391 0)
(0.775784 0.691556 2.32266e-025)
(0.242407 0.00190769 0)
(0.269823 0.0386438 0)
(0.303035 0.052183 0)
(0.324324 0.0793741 0)
(0.334772 0.108485 0)
(0.33959 0.129324 0)
(0.34477 0.165409 0)
(0.348367 0.182425 0)
(0.355579 0.217498 0)
(0.361812 0.241463 0)
(0.362875 0.267243 0)
(0.377046 0.304098 0)
(0.386332 0.321075 0)
(0.392161 0.35713 0)
(0.408621 0.381226 0)
(0.41501 0.414395 0)
(0.432401 0.442128 0)
(0.450231 0.469492 0)
(0.460723 0.499497 0)
(0.491846 0.525573 0)
(0.502142 0.563197 0)
(0.531805 0.575394 0)
(0.558129 0.617 0)
(0.580417 0.629108 0)
(0.623432 0.661205 0)
(0.6424 0.682741 0)
(0.689318 0.697965 0)
(0.717342 0.719158 0)
(0.759096 0.728855 -7.79582e-027)
(0.217823 0.00201384 0)
(0.245306 0.0392811 0)
(0.276557 0.0528172 0)
(0.295347 0.0831366 0)
(0.304007 0.106968 0)
(0.309403 0.141016 0)
(0.313846 0.158753 0)
(0.319184 0.197162 0)
(0.32225 0.21757 0)
(0.327634 0.250596 0)
(0.339063 0.279891 0)
(0.340847 0.300926 0)
(0.352408 0.342585 0)
(0.363043 0.362414 0)
(0.368631 0.40174 0)
(0.387894 0.423764 0)
(0.397809 0.459292 0)
(0.413003 0.488629 0)
(0.438428 0.520518 0)
(0.444334 0.551772 0)
(0.477993 0.578228 0)
(0.495434 0.619001 0)
(0.526513 0.633814 0)
(0.560613 0.675346 0)