/*--------------------------------*- C++ -*----------------------------------*\
| =========                 |                                                 |
| \\      /  F ield         | OpenFOAM: The Open Source CFD Toolbox           |
|  \\    /   O peration     | Version:  5.x                                   |
|   \\  /    A nd           | Web:      www.OpenFOAM.org                      |
|    \\/     M anipulation  |                                                 |
\*---------------------------------------------------------------------------*/
/*   Windows 32 and 64 bit porting by blueCAPE: http://www.bluecape.com.pt   *\
|  Based on Windows porting (2.0.x v4) by Symscape: http://www.symscape.com   |
\*---------------------------------------------------------------------------*/
FoamFile
{
    version     2.0;
    format      ascii;
    class       volScalarField;
    location    "380";
    object      epsilon;
}
// * * * * * * * * * * * * * * * * * * * * * * * * * * * * * * * * * * * * * //

dimensions      [0 2 -3 0 0 0 0];

internalField   nonuniform List<scalar> 
43900
(
0.00152925
0.00151909
0.00151979
0.00151971
0.00151968
0.00151966
0.00151967
0.00151967
0.00151967
0.00151967
0.00151967
0.00151968
0.00151968
0.00151968
0.00151968
0.00151968
0.00151968
0.00151968
0.00151968
0.00151969
0.00151969
0.00151969
0.00151969
0.00151969
0.00151969
0.00151968
0.00151968
0.00151968
0.00151969
0.000414086
3.81963e-005
3.16655e-005
3.15196e-005
3.27283e-005
3.27919e-005
3.2804e-005
3.27893e-005
3.27903e-005
3.27943e-005
3.27951e-005
3.27985e-005
3.27987e-005
3.27997e-005
3.28025e-005
3.28052e-005
3.28051e-005
3.28027e-005
3.28057e-005
3.28096e-005
3.28095e-005
3.281e-005
3.28123e-005
3.28159e-005
3.2816e-005
3.28082e-005
3.28028e-005
3.28057e-005
3.28164e-005
0.0508435
0.00575448
0.000289873
1.14934e-005
1.7113e-006
1.32768e-006
1.32663e-006
1.40959e-006
1.41863e-006
1.41741e-006
1.4164e-006
1.41674e-006
1.41723e-006
1.41748e-006
1.41785e-006
1.41836e-006
1.41843e-006
1.41837e-006
1.41879e-006
1.41913e-006
1.41936e-006
1.41971e-006
1.42e-006
1.41998e-006
1.41966e-006
1.41937e-006
1.41981e-006
1.42053e-006
1.42094e-006
0.146516
0.0437785
0.0096785
0.00132136
8.38124e-005
3.42918e-006
3.43228e-007
1.22662e-007
1.08345e-007
1.15533e-007
1.19867e-007
1.20226e-007
1.19647e-007
1.19482e-007
1.19615e-007
1.1969e-007
1.19672e-007
1.1969e-007
1.19745e-007
1.19772e-007
1.19806e-007
1.19833e-007
1.19851e-007
1.19866e-007
1.1988e-007
1.19903e-007
1.19943e-007
1.19972e-007
1.1997e-007
0.197703
0.0845066
0.0338637
0.0112521
0.00265002
0.000357822
2.25601e-005
9.71903e-007
8.48778e-008
2.2318e-008
1.65024e-008
1.70969e-008
1.84161e-008
1.863e-008
1.84523e-008
1.84226e-008
1.84799e-008
1.8487e-008
1.84756e-008
1.84828e-008
1.84899e-008
1.84894e-008
1.84927e-008
1.85e-008
1.85015e-008
1.85036e-008
1.85077e-008
1.85125e-008
1.85155e-008
0.222758
0.109172
0.0533468
0.0251438
0.0105311
0.00333989
0.000712531
7.82417e-005
4.33957e-006
2.05562e-007
1.92962e-008
5.56698e-009
4.10181e-009
4.42453e-009
4.72663e-009
4.71395e-009
4.63422e-009
4.64511e-009
4.67431e-009
4.66825e-009
4.66699e-009
4.67243e-009
4.67571e-009
4.67759e-009
4.67797e-009
4.67817e-009
4.67892e-009
4.68044e-009
4.68245e-009
0.234034
0.123537
0.0660419
0.0352531
0.0183385
0.00889073
0.00354974
0.000971727
0.000152831
1.17232e-005
6.08628e-007
3.36053e-008
4.40716e-009
1.7437e-009
1.52003e-009
1.66551e-009
1.7503e-009
1.71573e-009
1.69683e-009
1.70929e-009
1.71063e-009
1.70545e-009
1.7054e-009
1.70601e-009
1.70611e-009
1.7068e-009
1.70828e-009
1.70846e-009
1.70845e-009
0.237405
0.131357
0.0740178
0.0421311
0.0239252
0.0132922
0.00696856
0.00318138
0.00104263
0.000217463
2.29414e-005
1.41282e-006
7.90768e-008
5.60088e-009
1.24036e-009
7.33159e-010
7.5188e-010
8.16094e-010
8.13201e-010
7.96345e-010
7.9955e-010
8.05453e-010
8.04353e-010
8.04515e-010
8.05417e-010
8.05446e-010
8.05611e-010
8.0576e-010
8.06042e-010
0.236297
0.135158
0.0789261
0.0467945
0.0279475
0.0166308
0.00969656
0.00538294
0.00268933
0.00102618
0.000249369
3.2181e-005
2.32246e-006
1.42063e-007
9.3342e-009
1.12801e-009
4.81544e-010
4.00617e-010
4.44705e-010
4.62842e-010
4.52636e-010
4.51051e-010
4.53251e-010
4.52841e-010
4.51753e-010
4.52097e-010
4.52663e-010
4.52737e-010
4.53044e-010
0.231959
0.13581
0.0813666
0.0496428
0.0306695
0.0190484
0.0117752
0.00713695
0.00413582
0.00218027
0.000921777
0.000247064
3.64065e-005
3.00054e-006
2.02892e-007
1.4026e-008
1.30135e-009
3.95515e-010
2.64554e-010
2.7526e-010
2.92654e-010
2.88589e-010
2.85841e-010
2.87862e-010
2.88946e-010
2.88191e-010
2.87843e-010
2.87827e-010
2.87772e-010
0.224853
0.134084
0.0817696
0.0508927
0.0321745
0.0205526
0.013175
0.00839556
0.0052433
0.00313474
0.00171564
0.000774262
0.000220669
3.53942e-005
3.24601e-006
2.43014e-007
1.82595e-008
1.61715e-009
3.30484e-010
1.96681e-010
1.87075e-010
2.00945e-010
2.01014e-010
1.97726e-010
1.98272e-010
1.998e-010
1.99831e-010
1.99699e-010
1.99841e-010
0.216845
0.131257
0.0813087
0.0514137
0.0330784
0.0215617
0.0141682
0.00932383
0.00608905
0.0038926
0.00238184
0.00133789
0.000627351
0.000185701
3.18214e-005
3.20916e-006
2.65998e-007
2.19335e-008
1.99003e-009
3.18521e-010
1.62329e-010
1.34621e-010
1.44665e-010
1.48981e-010
1.46671e-010
1.46166e-010
1.47127e-010
1.47464e-010
1.47261e-010
0.207894
0.127492
0.0800235
0.0512757
0.0334679
0.022171
0.0148465
0.0100002
0.0067317
0.00448809
0.002924
0.00182114
0.00104128
0.000498599
0.000150299
2.68331e-005
2.92988e-006
2.67813e-007
2.42665e-008
2.33786e-009
3.33796e-010
1.39667e-010
1.0712e-010
1.1021e-010
1.15228e-010
1.13596e-010
1.12257e-010
1.1296e-010
1.13866e-010
0.198209
0.122937
0.0780473
0.0506221
0.0334322
0.0224489
0.0152652
0.0104708
0.00720914
0.00494996
0.00335903
0.00222268
0.00140302
0.000811217
0.000391669
0.000118094
2.13895e-005
2.49872e-006
2.51681e-007
2.51395e-008
2.62254e-009
3.60774e-010
1.22811e-010
8.93396e-011
8.7795e-011
9.22873e-011
9.20119e-011
9.0373e-011
9.03792e-011
0.188023
0.117791
0.075542
0.0495092
0.0330802
0.0224563
0.0154713
0.010773
0.00755164
0.00530251
0.00370519
0.0025531
0.00171134
0.00109124
0.000634895
0.000306175
9.1156e-005
1.65433e-005
2.06034e-006
2.28366e-007
2.51312e-008
2.85562e-009
3.94477e-010
1.14417e-010
7.90519e-011
7.07466e-011
7.45949e-011
7.6449e-011
7.53345e-011
0.177515
0.112235
0.07264
0.0480603
0.0324301
0.0222674
0.0155062
0.0109369
0.00778193
0.00556328
0.00397583
0.0028215
0.00196989
0.00133427
0.000856724
0.000499098
0.000237913
6.96934e-005
1.27672e-005
1.69766e-006
2.05888e-007
2.48246e-008
3.06614e-009
4.35864e-010
1.13424e-010
7.13385e-011
6.07512e-011
6.26439e-011
6.5059e-011
0.166853
0.106409
0.0694632
0.0463609
0.0315714
0.0218876
0.0154107
0.0109886
0.00791964
0.0057474
0.00418275
0.00303696
0.00218494
0.00154281
0.00105384
0.000679692
0.000395109
0.000184642
5.32227e-005
9.92284e-006
1.41529e-006
1.87722e-007
2.47726e-008
3.32663e-009
4.95125e-010
1.18043e-010
6.44838e-011
5.36268e-011
5.39281e-011
0.156156
0.100416
0.0660929
0.0444807
0.0305511
0.0213733
0.0151966
0.0109524
0.00798481
0.00587086
0.00433841
0.00320888
0.00236318
0.00172083
0.00122692
0.000843737
0.00054561
0.00031559
0.000143645
4.09411e-005
7.85344e-006
1.20749e-006
1.75039e-007
2.52107e-008
3.67455e-009
5.77028e-010
1.2828e-010
6.0764e-011
4.90624e-011
0.145529
0.0943423
0.0625958
0.0424699
0.0294125
0.0207538
0.0148906
0.0108404
0.00798348
0.00594056
0.00444998
0.00334414
0.00251064
0.00187308
0.00137885
0.000991502
0.000685681
0.00044401
0.000255115
0.000112691
3.19461e-005
6.35344e-006
1.0521e-006
1.65914e-007
2.59683e-008
4.09672e-009
6.81297e-010
1.45665e-010
6.00523e-011
0.135072
0.0882671
0.0590306
0.0403718
0.0281874
0.020056
0.0145161
0.0106656
0.00793862
0.0059684
0.00452431
0.00344688
0.00263002
0.00200128
0.00151054
0.00112277
0.000813352
0.000565025
0.000365935
0.000208495
8.90477e-005
2.53209e-005
5.25878e-006
9.38489e-007
1.60606e-007
2.7279e-008
4.6574e-009
8.24169e-010
1.71414e-010
0.124864
0.0822524
0.055445
0.038222
0.0269018
0.019299
0.0140868
0.0104424
0.00784527
0.00595899
0.0045678
0.00352347
0.00272693
0.00211011
0.00162562
0.0012401
0.000929904
0.000678178
0.000473044
0.000306385
0.000173217
7.1549e-005
2.05769e-005
4.49202e-006
8.63146e-007
1.59726e-007
2.92598e-008
5.36888e-009
9.89654e-010
0.114969
0.0763496
0.0518782
0.0360498
0.0255781
0.0185001
0.0136171
0.010182
0.00771944
0.0059223
0.00458533
0.00357698
0.00280355
0.00220121
0.00172532
0.00134429
0.00103553
0.000782817
0.000574488
0.000402294
0.000260676
0.000146398
5.86089e-005
1.71801e-005
3.95385e-006
8.15552e-007
1.62321e-007
3.1942e-008
6.14394e-009
0.105444
0.0706027
0.0483632
0.0338798
0.0242341
0.017672
0.0131161
0.00989085
0.0075647
0.00585635
0.00457953
0.00361056
0.00286291
0.00227725
0.00181187
0.00143704
0.00113138
0.000879404
0.000669831
0.000494509
0.000347676
0.000225534
0.000126131
4.94085e-005
1.48108e-005
3.59062e-006
7.91202e-007
1.68637e-007
3.4714e-008
0.0963326
0.0650471
0.0449274
0.0317328
0.0228857
0.016827
0.0125935
0.00957751
0.00738886
0.00577205
0.00455749
0.00362843
0.00290773
0.00234015
0.00188668
0.00151944
0.00121825
0.000968393
0.000759067
0.000582343
0.000432465
0.000305394
0.000198552
0.000110841
4.33669e-005
1.32661e-005
3.37272e-006
7.88998e-007
1.75076e-007
0.0876684
0.0597111
0.0415929
0.0296255
0.0215454
0.0159745
0.012056
0.0092463
0.00719437
0.00566913
0.00451582
0.00362903
0.00293814
0.0023907
0.00195078
0.00159248
0.00129695
0.00105035
0.000842434
0.00066558
0.000514168
0.000384109
0.00027256
0.000177781
9.91565e-005
3.91195e-005
1.22618e-005
3.26438e-006
7.8929e-007
0.0794736
0.0546148
0.0383764
0.0275712
0.0202236
0.0151224
0.01151
0.00890273
0.0069864
0.00555313
0.00446301
0.00362053
0.00295877
0.00243175
0.00200605
0.00165752
0.00136853
0.00112607
0.000920448
0.000744428
0.000592577
0.000460866
0.000346368
0.000247078
0.000161834
9.05404e-005
3.62e-005
1.16765e-005
3.17832e-006
0.0717624
0.049773
0.0352906
0.0255803
0.0189284
0.0142773
0.0109606
0.00855068
0.00676775
0.00542573
0.00439869
0.0036003
0.00296935
0.00246393
0.00205341
0.00171549
0.00143381
0.00119624
0.000993671
0.000819252
0.000667801
0.000535412
0.000419173
0.000316982
0.000227435
0.000149841
8.43976e-005
3.43622e-005
1.11872e-005
0.064541
0.045195
0.0323447
0.0236605
0.0176662
0.013444
0.0104116
0.00819303
0.00654055
0.00528854
0.00432426
0.00356971
0.00297005
0.00248759
0.00209336
0.001767
0.00149345
0.00126149
0.00106264
0.000890476
0.000740097
0.000607766
0.000490653
0.000386646
0.000294241
0.000212486
0.000140999
8.03094e-005
3.27769e-005
0.0578093
0.0408854
0.0295444
0.0218173
0.0164416
0.0126264
0.00986625
0.0078324
0.00630712
0.00514378
0.00424207
0.00353222
0.00296508
0.0025052
0.00212747
0.00181313
0.00154827
0.0013225
0.00112794
0.000958585
0.000809835
0.00067815
0.000560814
0.000455763
0.000361471
0.000276871
0.000201337
0.000134966
7.66266e-005
0.0515625
0.036846
0.0268935
0.0200548
0.0152584
0.0118276
0.00932684
0.00747073
0.00606896
0.00499259
0.00415281
0.00348757
0.00295292
0.00251656
0.00215607
0.00185439
0.00159882
0.00137981
0.00119007
0.00102403
0.000877406
0.000746861
0.000629822
0.000524308
0.000428815
0.000342244
0.000263862
0.000193369
0.00013081
0.0457925
0.0330761
0.024394
0.0183756
0.014119
0.0110498
0.00879533
0.00710951
0.00582721
0.00483574
0.00405702
0.00343611
0.00293382
0.00252175
0.0021793
0.00189103
0.00164544
0.00143379
0.00124943
0.00108722
0.00094319
0.000814234
0.000697938
0.000592424
0.000496247
0.000408318
0.000327866
0.000254429
0.000187914
0.0404881
0.029573
0.0220466
0.0167818
0.0130258
0.0102951
0.00827325
0.00674993
0.00558277
0.00467398
0.00395535
0.0033786
0.00290901
0.00252128
0.00219755
0.00192338
0.00168841
0.00148476
0.00130636
0.00114851
0.00100755
0.000880628
0.000765491
0.000660384
0.000563939
0.000475111
0.000393131
0.000317481
0.000247892
0.035636
0.0263325
0.0198513
0.0152746
0.0119803
0.00956482
0.00776194
0.00639306
0.00533646
0.00450793
0.00384833
0.00331551
0.00287904
0.00251672
0.00221169
0.00195197
0.00172815
0.00153306
0.00136119
0.00120823
0.00107085
0.000946415
0.000832853
0.000728538
0.000632195
0.000542843
0.000459741
0.000382365
0.000310377
0.0312209
0.0233494
0.017807
0.013855
0.010984
0.00886059
0.00726264
0.00603985
0.00508898
0.00433806
0.00373618
0.00324681
0.00284341
0.00250649
0.00222109
0.0019766
0.00176465
0.00157882
0.00141411
0.00126666
0.0011334
0.00101195
0.000900411
0.000797286
0.000701406
0.000611862
0.000527967
0.000449219
0.000375276
0.0272258
0.0206171
0.0159122
0.0125234
0.0100382
0.00818378
0.00677659
0.00569128
0.00484102
0.0041648
0.00361913
0.00317258
0.00280213
0.00249075
0.00222558
0.00199712
0.00179784
0.00162203
0.00146524
0.00132397
0.00119547
0.00107758
0.000968561
0.000867067
0.00077203
0.000682627
0.000598233
0.000518392
0.000442788
0.0236322
0.0181282
0.0141648
0.0112801
0.00914405
0.00753578
0.00630508
0.00534839
0.00459335
0.00398867
0.0034975
0.00309302
0.00275543
0.00246992
0.00222523
0.00201354
0.00182771
0.00166274
0.00151465
0.00138034
0.00125732
0.00114363
0.00103773
0.000938376
0.000844616
0.000755712
0.000671111
0.000590419
0.000513366
0.0204198
0.0158743
0.012562
0.0101251
0.0083027
0.00691804
0.00584949
0.00501235
0.00434686
0.00381029
0.0033717
0.00300835
0.00270339
0.00244412
0.00222096
0.00202619
0.00185438
0.00170098
0.00156243
0.00143591
0.00131919
0.00121049
0.00110839
0.0010118
0.00091983
0.000831843
0.000747359
0.000666049
0.00058771
0.017567
0.0138456
0.0111003
0.00905793
0.00751506
0.00633196
0.00541127
0.00468441
0.00410254
0.00363037
0.00324214
0.00291875
0.00264591
0.00241281
0.0022112
0.00203428
0.00187738
0.0017365
0.00160846
0.00149073
0.00138128
0.00127849
0.00118107
0.001088
0.000998488
0.000911949
0.000827976
0.000746313
0.000666829
0.0150508
0.0120316
0.00977562
0.00807774
0.00678183
0.00577889
0.00499189
0.00436595
0.00386151
0.00344974
0.00310936
0.00282446
0.00258303
0.00237587
0.00219585
0.00203729
0.00189625
0.0017689
0.00165245
0.00154465
0.00144363
0.00134791
0.00125626
0.00116772
0.00108154
0.000997175
0.000914262
0.000832602
0.000752143
0.0128471
0.0104206
0.00858287
0.0071831
0.00610341
0.00526004
0.00459286
0.00405842
0.00362505
0.00326941
0.00297409
0.00272595
0.00251497
0.00233341
0.0021752
0.00203551
0.00191082
0.00179781
0.001694
0.00159732
0.00150605
0.00141875
0.00133425
0.00125156
0.00116993
0.00108879
0.00100776
0.000926681
0.000845542
0.0109313
0.00899981
0.00751633
0.00637205
0.0054799
0.00477657
0.00421576
0.00376351
0.00339475
0.00309077
0.00283746
0.00262406
0.00244228
0.00228567
0.00214915
0.00202878
0.0019207
0.00182272
0.00173252
0.00164817
0.00156803
0.00149071
0.00141499
0.00133982
0.00126436
0.00118792
0.00111005
0.0010305
0.000949276
0.00927809
0.00775613
0.00656965
0.00564226
0.00491124
0.00432967
0.00386243
0.00348335
0.0031728
0.00291593
0.00270141
0.0025205
0.0023664
0.00223377
0.00211833
0.00201666
0.00192581
0.00184348
0.00176771
0.00169677
0.0016291
0.00156332
0.00149815
0.00143243
0.00136512
0.00129535
0.00122241
0.00114589
0.00106563
0.00786293
0.00667615
0.00573622
0.00499121
0.00439742
0.00392084
0.0035353
0.00322089
0.00296242
0.00274822
0.00256927
0.00241851
0.00229042
0.00218057
0.00208546
0.00200217
0.00192826
0.00186165
0.00180068
0.00174382
0.00168962
0.00163671
0.00158374
0.0015294
0.00147241
0.00141157
0.00134581
0.00127431
0.00119661
0.00666211
0.00574672
0.00500947
0.0044165
0.00393871
0.00355209
0.00323754
0.0029801
0.00276815
0.00259258
0.00244622
0.00232342
0.00221968
0.00213141
0.00205571
0.00199018
0.00193276
0.00188124
0.00183488
0.00179225
0.00175198
0.00171276
0.0016732
0.00163185
0.00158717
0.00153754
0.00148138
0.00141725
0.00134409
0.00565338
0.00495527
0.00438307
0.00391592
0.00353569
0.003226
0.00297315
0.00276609
0.00259595
0.00245563
0.00233945
0.00224285
0.00216216
0.00209447
0.00203739
0.00198899
0.00194623
0.00190928
0.00187704
0.00184826
0.00182176
0.00179637
0.00177074
0.00174334
0.00171242
0.0016759
0.00163158
0.00157714
0.00151054
0.00481592
0.00428981
0.00385089
0.00348735
0.00318909
0.00294539
0.00274662
0.00258468
0.00245281
0.00234542
0.00225793
0.0021866
0.00212833
0.00208084
0.00204128
0.00200732
0.0019795
0.00195683
0.00193805
0.00192233
0.00190884
0.00189666
0.00188462
0.00187125
0.0018547
0.00183252
0.00180171
0.00175886
0.00170053
0.00413023
0.00373873
0.0034067
0.00312837
0.00289928
0.00271281
0.00256232
0.00244186
0.00234619
0.00227084
0.00221186
0.00216625
0.00213061
0.00210153
0.00207867
0.00206139
0.00204881
0.00204012
0.00203404
0.00203034
0.00202863
0.00202839
0.00202869
0.00202839
0.0020259
0.00201836
0.00200186
0.00197167
0.00192263
0.00357764
0.00329041
0.00304377
0.00283576
0.00266576
0.00252996
0.00242387
0.00234308
0.00228339
0.00224112
0.00221232
0.00219219
0.00217978
0.00217359
0.00217162
0.00217304
0.00217684
0.00218203
0.00218832
0.00219581
0.0022046
0.00221466
0.00222565
0.00223681
0.0022467
0.00225203
0.00224873
0.00223215
0.0021928
0.00314004
0.00293296
0.00275458
0.00260523
0.00248673
0.00239723
0.00233371
0.00229293
0.00227118
0.00226389
0.00226763
0.00228034
0.00229944
0.00232228
0.0023466
0.00237067
0.00239377
0.00241543
0.00243565
0.00245485
0.00247363
0.00249256
0.00251205
0.00253202
0.00255166
0.00256813
0.0025761
0.00256868
0.00253689
0.00279996
0.00265424
0.00253084
0.00243134
0.0023591
0.00231366
0.00229303
0.00229505
0.0023139
0.00234936
0.00239706
0.00245324
0.00251407
0.00257609
0.0026366
0.00269338
0.00274506
0.00279098
0.00283116
0.00286624
0.00289726
0.00292548
0.00295212
0.00297811
0.0030038
0.00302707
0.00304317
0.00303942
0.00300876
0.00254087
0.00244222
0.00236379
0.00230782
0.00227869
0.00227719
0.00230142
0.00235021
0.00242132
0.00251173
0.00261667
0.00273178
0.00285233
0.00297353
0.00309108
0.00320129
0.00330146
0.00338994
0.00346611
0.00353034
0.00358377
0.00362805
0.00366512
0.00369717
0.00372632
0.00375116
0.00376877
0.00376108
0.00371864
0.00234763
0.00228543
0.00224464
0.00222797
0.00224056
0.00228408
0.00235845
0.00246444
0.00259947
0.00276066
0.00294378
0.00314365
0.00335416
0.00356868
0.00378051
0.00398348
0.00417235
0.00434317
0.00449346
0.0046221
0.00472923
0.00481585
0.00488363
0.00493639
0.00497839
0.00500766
0.00502359
0.00500113
0.00492156
0.0022069
0.00217339
0.00216503
0.00218487
0.00223941
0.00233134
0.00246389
0.00263778
0.00285295
0.00310788
0.00339923
0.00372182
0.00406865
0.00443125
0.00480026
0.00516618
0.0055201
0.00585434
0.00616278
0.00644101
0.0066861
0.00689615
0.00706976
0.00721492
0.00733095
0.00740871
0.00745305
0.00741903
0.00725928
0.00210728
0.00209683
0.00211711
0.00217225
0.00226978
0.00241551
0.00261412
0.00286988
0.003186
0.0035641
0.0040036
0.00450124
0.00505095
0.00564392
0.00626927
0.0069149
0.00756849
0.0082185
0.00885478
0.00946891
0.010054
0.0106037
0.0111111
0.0115765
0.0119991
0.0123524
0.0126293
0.0127674
0.0124314
0.00203931
0.00204775
0.00209423
0.00218411
0.00232695
0.00253114
0.00280548
0.00315898
0.00360029
0.00413689
0.00477411
0.0055143
0.00635616
0.00729467
0.00832154
0.00942623
0.0105972
0.0118236
0.0130961
0.0144083
0.0157563
0.0171383
0.018554
0.0199864
0.0214668
0.0229603
0.0243845
0.0260447
0.0253272
0.00199525
0.00201945
0.00209055
0.00221493
0.00240502
0.00267296
0.003033
0.00350098
0.00409384
0.00482864
0.00572135
0.00678561
0.00803171
0.0094662
0.0110923
0.012911
0.0149233
0.0171323
0.0195463
0.0221818
0.0250659
0.0282383
0.0317597
0.0356832
0.0401185
0.0451786
0.0509108
0.059383
0.0587329
0.00196886
0.00200637
0.00210082
0.0022596
0.0024987
0.00283522
0.00329039
0.00388926
0.00466047
0.00563537
0.00684684
0.00832794
0.0101108
0.0122262
0.0147044
0.0175767
0.0208794
0.0246583
0.0289756
0.0339178
0.039608
0.046217
0.054004
0.0632795
0.0746868
0.0885649
0.106851
0.133898
0.140433
0.0019553
0.00200402
0.00212086
0.00231362
0.00260307
0.00301208
0.00357055
0.00431528
0.00529041
0.00654715
0.00814307
0.0101413
0.01261
0.0156229
0.0192611
0.023617
0.0288018
0.0349547
0.0422587
0.0509601
0.0614036
0.074067
0.0896852
0.109202
0.134617
0.16718
0.215156
0.278936
0.321966
0.00195161
0.00200954
0.00214813
0.00237418
0.00271478
0.00319922
0.00386772
0.00477142
0.00597407
0.00755295
0.00959955
0.0122203
0.0155379
0.0196945
0.0248566
0.0312242
0.0390453
0.0486362
0.0604135
0.07494
0.0930033
0.115706
0.144767
0.18246
0.233704
0.301761
0.409939
0.540208
0.701136
0.00151969
0.00151969
0.00151968
0.00151968
0.00151968
0.00151969
0.0015197
0.0015197
0.0015197
0.00151969
0.00151969
0.00151969
0.0015197
0.0015197
0.0015197
0.0015197
0.0015197
0.00151969
0.00151968
0.0015197
0.00151971
0.00151972
0.0015197
0.00151968
0.00151968
0.0015197
0.0015197
0.0015197
0.00151971
0.00151972
0.0015197
0.00151968
0.00151967
0.00151969
0.0015197
0.0015197
0.0015197
0.0015197
0.0015197
0.0015197
0.0015197
0.0015197
0.0015197
0.0015197
0.0015197
0.0015197
0.0015197
0.0015197
0.0015197
0.0015197
0.0015197
0.0015197
0.0015197
0.0015197
0.0015197
0.0015197
0.0015197
0.0015197
0.0015197
0.0015197
0.0015197
0.0015197
0.0015197
0.0015197
0.0015197
0.0015197
0.0015197
0.0015197
0.0015197
0.0015197
0.0015197
0.0015197
0.0015197
0.0015197
0.0015197
0.0015197
0.0015197
0.0015197
0.00151971
0.00151971
0.00151971
0.00151971
0.00151971
0.0015197
0.00151971
0.00151971
0.00151971
0.00151971
0.00151971
0.00151971
0.00151971
0.00151971
0.00151971
0.00151971
0.00151971
0.00151971
0.00151971
0.00151971
0.00151971
0.00151971
0.00151971
0.00151971
0.00151971
0.00151971
0.00151971
0.00151971
0.00151971
0.00151971
0.00151971
0.00151971
0.00151971
0.00151971
0.00151971
0.00151971
0.00151971
0.00151971
0.00151971
0.00151971
0.00151971
0.00151971
0.00151971
0.00151971
0.00151971
0.00151971
0.00151971
0.00151971
0.00151971
0.00151971
0.00151971
0.00151971
0.00151971
0.00151972
0.00151971
0.00151972
0.00151972
0.00151972
0.00151972
0.00151973
0.00154195
3.28211e-005
3.28157e-005
3.2808e-005
3.28046e-005
3.28055e-005
3.28136e-005
3.28243e-005
3.28288e-005
3.28213e-005
3.28105e-005
3.28118e-005
3.28225e-005
3.28264e-005
3.28238e-005
3.28274e-005
3.28324e-005
3.28255e-005
3.28162e-005
3.28103e-005
3.28311e-005
3.28442e-005
3.2847e-005
3.28224e-005
3.2807e-005
3.28103e-005
3.28266e-005
3.2827e-005
3.28304e-005
3.28415e-005
3.28511e-005
3.28321e-005
3.28083e-005
3.2797e-005
3.28143e-005
3.28241e-005
3.28242e-005
3.2824e-005
3.2824e-005
3.2824e-005
3.28241e-005
3.28242e-005
3.28244e-005
3.28246e-005
3.28248e-005
3.2825e-005
3.28252e-005
3.28255e-005
3.28257e-005
3.28256e-005
3.28261e-005
3.28268e-005
3.28271e-005
3.28274e-005
3.28277e-005
3.2828e-005
3.28283e-005
3.28287e-005
3.2829e-005
3.28293e-005
3.28296e-005
3.28299e-005
3.28302e-005
3.28305e-005
3.28309e-005
3.28311e-005
3.28316e-005
3.28317e-005
3.28324e-005
3.28324e-005
3.28328e-005
3.28332e-005
3.28332e-005
3.28342e-005
3.28339e-005
3.28345e-005
3.28343e-005
3.28347e-005
3.28352e-005
3.2836e-005
3.28392e-005
3.28385e-005
3.28385e-005
3.28387e-005
3.28345e-005
3.28371e-005
3.28377e-005
3.28415e-005
3.28362e-005
3.28366e-005
3.28389e-005
3.28399e-005
3.28388e-005
3.28384e-005
3.2839e-005
3.28403e-005
3.28416e-005
3.28417e-005
3.28417e-005
3.28417e-005
3.28417e-005
3.28418e-005
3.28418e-005
3.28419e-005
3.28419e-005
3.28419e-005
3.28419e-005
3.28419e-005
3.2842e-005
3.28421e-005
3.28422e-005
3.28422e-005
3.28423e-005
3.28424e-005
3.28425e-005
3.28425e-005
3.28427e-005
3.28427e-005
3.28428e-005
3.28428e-005
3.28428e-005
3.28427e-005
3.28426e-005
3.28425e-005
3.28424e-005
3.28427e-005
3.28428e-005
3.28428e-005
3.28429e-005
3.28429e-005
3.28436e-005
3.28444e-005
3.28473e-005
3.28459e-005
3.28505e-005
3.2848e-005
3.2854e-005
3.28529e-005
3.287e-005
3.51772e-005
1.42065e-006
1.42025e-006
1.42011e-006
1.42017e-006
1.42082e-006
1.42176e-006
1.42198e-006
1.42117e-006
1.42018e-006
1.42029e-006
1.42154e-006
1.4222e-006
1.4216e-006
1.42101e-006
1.42141e-006
1.42156e-006
1.42101e-006
1.42057e-006
1.42095e-006
1.42253e-006
1.4229e-006
1.42229e-006
1.42098e-006
1.42049e-006
1.42148e-006
1.42201e-006
1.42206e-006
1.42267e-006
1.42342e-006
1.42311e-006
1.4217e-006
1.42077e-006
1.42109e-006
1.42251e-006
1.42258e-006
1.42259e-006
1.42262e-006
1.42264e-006
1.42267e-006
1.42271e-006
1.42275e-006
1.42279e-006
1.42284e-006
1.4229e-006
1.42296e-006
1.423e-006
1.42304e-006
1.42309e-006
1.4232e-006
1.42325e-006
1.42325e-006
1.42326e-006
1.42331e-006
1.42338e-006
1.42344e-006
1.42349e-006
1.42356e-006
1.42361e-006
1.42367e-006
1.42372e-006
1.42378e-006
1.42384e-006
1.42388e-006
1.42395e-006
1.42398e-006
1.42405e-006
1.42408e-006
1.42416e-006
1.42417e-006
1.42424e-006
1.4243e-006
1.42428e-006
1.42441e-006
1.42439e-006
1.42448e-006
1.42448e-006
1.42463e-006
1.42469e-006
1.42468e-006
1.42484e-006
1.42482e-006
1.42499e-006
1.42489e-006
1.42476e-006
1.42475e-006
1.42488e-006
1.42484e-006
1.42466e-006
1.425e-006
1.4252e-006
1.4251e-006
1.42506e-006
1.42514e-006
1.42521e-006
1.42525e-006
1.4252e-006
1.42522e-006
1.42521e-006
1.42523e-006
1.42525e-006
1.42526e-006
1.42526e-006
1.42526e-006
1.42526e-006
1.42526e-006
1.42525e-006
1.42525e-006
1.42525e-006
1.42524e-006
1.42524e-006
1.42524e-006
1.42522e-006
1.42522e-006
1.42519e-006
1.42519e-006
1.42514e-006
1.42513e-006
1.42507e-006
1.42504e-006
1.42498e-006
1.42491e-006
1.42484e-006
1.42476e-006
1.42471e-006
1.42469e-006
1.42468e-006
1.42465e-006
1.42459e-006
1.42465e-006
1.42459e-006
1.42444e-006
1.42475e-006
1.42477e-006
1.42516e-006
1.42448e-006
1.4287e-006
1.41613e-006
1.33209e-006
1.9962e-006
1.19991e-007
1.1999e-007
1.19988e-007
1.20035e-007
1.20123e-007
1.20139e-007
1.20061e-007
1.19993e-007
1.20039e-007
1.20165e-007
1.20233e-007
1.20164e-007
1.2007e-007
1.20121e-007
1.20235e-007
1.20261e-007
1.20182e-007
1.20102e-007
1.20172e-007
1.20286e-007
1.20267e-007
1.20162e-007
1.20086e-007
1.20121e-007
1.20266e-007
1.20308e-007
1.20317e-007
1.20368e-007
1.20389e-007
1.20302e-007
1.20208e-007
1.20186e-007
1.20283e-007
1.20383e-007
1.20391e-007
1.20402e-007
1.20415e-007
1.20426e-007
1.20438e-007
1.2045e-007
1.20462e-007
1.20474e-007
1.20488e-007
1.20502e-007
1.20516e-007
1.20527e-007
1.20539e-007
1.20549e-007
1.20553e-007
1.20559e-007
1.20575e-007
1.20595e-007
1.20609e-007
1.2062e-007
1.20632e-007
1.20643e-007
1.20656e-007
1.20667e-007
1.2068e-007
1.20691e-007
1.20703e-007
1.20715e-007
1.20725e-007
1.20738e-007
1.20748e-007
1.20761e-007
1.2077e-007
1.20785e-007
1.20791e-007
1.20805e-007
1.20817e-007
1.20822e-007
1.20845e-007
1.20848e-007
1.20858e-007
1.20871e-007
1.2088e-007
1.20898e-007
1.20918e-007
1.20926e-007
1.2094e-007
1.20959e-007
1.20962e-007
1.20952e-007
1.20956e-007
1.20965e-007
1.20958e-007
1.20938e-007
1.20953e-007
1.20952e-007
1.20953e-007
1.20956e-007
1.20956e-007
1.20958e-007
1.2096e-007
1.20971e-007
1.20979e-007
1.21e-007
1.21006e-007
1.21015e-007
1.21017e-007
1.2102e-007
1.2102e-007
1.21022e-007
1.21023e-007
1.21022e-007
1.21022e-007
1.2102e-007
1.2102e-007
1.21016e-007
1.21017e-007
1.21011e-007
1.2101e-007
1.21002e-007
1.21001e-007
1.20991e-007
1.2099e-007
1.20978e-007
1.2097e-007
1.20958e-007
1.20943e-007
1.20925e-007
1.20908e-007
1.2089e-007
1.20875e-007
1.20853e-007
1.20838e-007
1.20809e-007
1.20797e-007
1.20801e-007
1.20767e-007
1.20788e-007
1.2068e-007
1.21645e-007
1.21443e-007
1.09592e-007
1.42237e-007
6.55424e-006
0.00118518
1.85223e-008
1.85226e-008
1.85272e-008
1.85384e-008
1.85445e-008
1.85377e-008
1.85321e-008
1.85416e-008
1.85607e-008
1.85704e-008
1.85633e-008
1.85517e-008
1.85537e-008
1.85798e-008
1.85933e-008
1.85879e-008
1.85677e-008
1.8561e-008
1.85715e-008
1.8583e-008
1.85783e-008
1.85653e-008
1.85646e-008
1.85765e-008
1.85949e-008
1.86034e-008
1.861e-008
1.86171e-008
1.86137e-008
1.86022e-008
1.85982e-008
1.86027e-008
1.86212e-008
1.86332e-008
1.86373e-008
1.86413e-008
1.86455e-008
1.86487e-008
1.86519e-008
1.86553e-008
1.8659e-008
1.86628e-008
1.86669e-008
1.86712e-008
1.86751e-008
1.86786e-008
1.86817e-008
1.86847e-008
1.86892e-008
1.86945e-008
1.86984e-008
1.87003e-008
1.87024e-008
1.87064e-008
1.87105e-008
1.87142e-008
1.87181e-008
1.87216e-008
1.87254e-008
1.87288e-008
1.87324e-008
1.8736e-008
1.87392e-008
1.87429e-008
1.87461e-008
1.87497e-008
1.87527e-008
1.87565e-008
1.8759e-008
1.87628e-008
1.87657e-008
1.87685e-008
1.87733e-008
1.8775e-008
1.87782e-008
1.87805e-008
1.87809e-008
1.87834e-008
1.8787e-008
1.87884e-008
1.87923e-008
1.87951e-008
1.87968e-008
1.8797e-008
1.87998e-008
1.88001e-008
1.87997e-008
1.88007e-008
1.88036e-008
1.88084e-008
1.88128e-008
1.88134e-008
1.88132e-008
1.8814e-008
1.88175e-008
1.882e-008
1.88218e-008
1.88223e-008
1.88231e-008
1.88233e-008
1.88239e-008
1.88246e-008
1.8825e-008
1.88258e-008
1.88251e-008
1.88258e-008
1.8825e-008
1.8825e-008
1.88238e-008
1.88239e-008
1.8822e-008
1.88209e-008
1.88187e-008
1.88166e-008
1.88137e-008
1.88113e-008
1.88089e-008
1.88062e-008
1.88032e-008
1.87996e-008
1.87961e-008
1.8792e-008
1.87875e-008
1.87828e-008
1.8779e-008
1.87775e-008
1.87729e-008
1.87542e-008
1.87518e-008
1.87664e-008
1.87396e-008
1.86998e-008
1.90296e-008
1.75254e-008
1.66807e-008
4.60837e-008
3.33887e-006
0.00044123
0.013106
4.68418e-009
4.68433e-009
4.68592e-009
4.6881e-009
4.68864e-009
4.68797e-009
4.68945e-009
4.69413e-009
4.69725e-009
4.69649e-009
4.69366e-009
4.69382e-009
4.69835e-009
4.70505e-009
4.7065e-009
4.7027e-009
4.69779e-009
4.69878e-009
4.70222e-009
4.70514e-009
4.70454e-009
4.70294e-009
4.70439e-009
4.70838e-009
4.71247e-009
4.71538e-009
4.71739e-009
4.71878e-009
4.71782e-009
4.71639e-009
4.7167e-009
4.71928e-009
4.72386e-009
4.72628e-009
4.72843e-009
4.73012e-009
4.73169e-009
4.73309e-009
4.7345e-009
4.73595e-009
4.73744e-009
4.73903e-009
4.7407e-009
4.74231e-009
4.74383e-009
4.74541e-009
4.74703e-009
4.74829e-009
4.74987e-009
4.75079e-009
4.75175e-009
4.75329e-009
4.75561e-009
4.75744e-009
4.75881e-009
4.76018e-009
4.76164e-009
4.76306e-009
4.76453e-009
4.76593e-009
4.76739e-009
4.76877e-009
4.77017e-009
4.77154e-009
4.7729e-009
4.77422e-009
4.77557e-009
4.77684e-009
4.77793e-009
4.77944e-009
4.78015e-009
4.78189e-009
4.78277e-009
4.7841e-009
4.78497e-009
4.78643e-009
4.7869e-009
4.78804e-009
4.78982e-009
4.79006e-009
4.79133e-009
4.79225e-009
4.79342e-009
4.79432e-009
4.79582e-009
4.79588e-009
4.79505e-009