/*--------------------------------*- C++ -*----------------------------------*\
| =========                 |                                                 |
| \\      /  F ield         | OpenFOAM: The Open Source CFD Toolbox           |
|  \\    /   O peration     | Version:  5.x                                   |
|   \\  /    A nd           | Web:      www.OpenFOAM.org                      |
|    \\/     M anipulation  |                                                 |
\*---------------------------------------------------------------------------*/
/*   Windows 32 and 64 bit porting by blueCAPE: http://www.bluecape.com.pt   *\
|  Based on Windows porting (2.0.x v4) by Symscape: http://www.symscape.com   |
\*---------------------------------------------------------------------------*/
FoamFile
{
    version     2.0;
    format      ascii;
    class       volScalarField;
    location    "380";
    object      k;
}
// * * * * * * * * * * * * * * * * * * * * * * * * * * * * * * * * * * * * * //

dimensions      [0 2 -2 0 0 0 0];

internalField   nonuniform List<scalar> 
43900
(
0.000985519
0.000989435
0.000990248
0.000990177
0.000990126
0.000990114
0.000990119
0.000990119
0.00099012
0.000990124
0.000990124
0.000990126
0.000990126
0.000990127
0.000990129
0.000990131
0.000990131
0.000990129
0.000990131
0.000990135
0.000990134
0.000990134
0.000990136
0.00099014
0.00099014
0.000990133
0.000990128
0.00099013
0.000990139
0.00165022
5.60281e-005
3.89316e-005
3.81746e-005
4.08088e-005
4.09653e-005
4.09863e-005
4.09539e-005
4.09544e-005
4.09594e-005
4.09608e-005
4.09652e-005
4.09656e-005
4.09668e-005
4.09704e-005
4.0974e-005
4.09738e-005
4.09708e-005
4.09747e-005
4.09797e-005
4.09797e-005
4.09806e-005
4.09836e-005
4.09878e-005
4.09873e-005
4.09777e-005
4.09717e-005
4.09761e-005
4.09891e-005
0.294479
0.0540251
0.00410507
0.000117914
5.00459e-006
3.08349e-006
2.97845e-006
3.34418e-006
3.38069e-006
3.37536e-006
3.37029e-006
3.37084e-006
3.37238e-006
3.37307e-006
3.37389e-006
3.37508e-006
3.37525e-006
3.37514e-006
3.37612e-006
3.37688e-006
3.37746e-006
3.37829e-006
3.37892e-006
3.37885e-006
3.37811e-006
3.37756e-006
3.37864e-006
3.38032e-006
3.38113e-006
0.880399
0.376876
0.120121
0.0238594
0.00208561
8.31981e-005
4.03373e-006
5.92321e-007
4.58014e-007
4.9848e-007
5.33629e-007
5.36642e-007
5.31679e-007
5.30231e-007
5.31154e-007
5.3158e-007
5.31379e-007
5.3145e-007
5.31738e-007
5.31847e-007
5.31984e-007
5.32093e-007
5.32176e-007
5.32257e-007
5.32317e-007
5.32436e-007
5.32595e-007
5.32709e-007
5.32683e-007
1.2895
0.739014
0.394778
0.176518
0.0561371
0.0103291
0.000827599
3.78815e-005
1.72026e-006
2.31522e-007
1.28938e-007
1.25934e-007
1.44643e-007
1.48271e-007
1.45539e-007
1.45054e-007
1.45926e-007
1.45995e-007
1.4575e-007
1.45819e-007
1.45894e-007
1.4587e-007
1.45882e-007
1.45935e-007
1.4594e-007
1.45959e-007
1.45995e-007
1.46028e-007
1.46053e-007
1.54732
0.984669
0.617383
0.370491
0.199304
0.0837071
0.0233499
0.00331788
0.00021532
1.0503e-005
5.59318e-007
9.83407e-008
5.39776e-008
5.46145e-008
6.15394e-008
6.16038e-008
5.95857e-008
5.98442e-008
6.05602e-008
6.03876e-008
6.03372e-008
6.04614e-008
6.05259e-008
6.05517e-008
6.0563e-008
6.05635e-008
6.05645e-008
6.05785e-008
6.06099e-008
1.71045
1.14959
0.773104
0.513813
0.330545
0.198092
0.10016
0.0349465
0.00705764
0.000653328
3.69853e-005
1.9977e-006
1.40753e-007
4.03538e-008
2.89614e-008
3.13856e-008
3.48794e-008
3.36469e-008
3.27868e-008
3.32614e-008
3.33014e-008
3.30866e-008
3.30736e-008
3.3084e-008
3.3081e-008
3.30997e-008
3.31388e-008
3.31392e-008
3.31316e-008
1.81188
1.25939
0.881149
0.616194
0.426152
0.286672
0.182095
0.10269
0.0434206
0.0113732
0.00146262
9.97074e-005
5.82778e-006
3.63612e-007
4.34258e-008
2.14477e-008
1.89471e-008
2.14781e-008
2.19706e-008
2.11159e-008
2.12589e-008
2.15923e-008
2.15362e-008
2.15384e-008
2.15795e-008
2.15734e-008
2.15652e-008
2.15693e-008
2.15789e-008
1.87335
1.33283
0.957285
0.690794
0.497535
0.354363
0.246102
0.162747
0.0977458
0.0468942
0.0141798
0.00223272
0.000179972
1.16231e-005
7.59864e-007
6.49004e-008
1.98657e-008
1.45575e-008
1.50751e-008
1.6404e-008
1.58091e-008
1.5568e-008
1.57037e-008
1.56745e-008
1.55947e-008
1.56192e-008
1.5655e-008
1.56591e-008
1.56756e-008
1.9008
1.37538
1.00657
0.742406
0.549258
0.40514
0.295443
0.210336
0.143161
0.089452
0.0464917
0.0153531
0.00274493
0.000253005
1.80569e-005
1.27893e-006
1.03919e-007
1.92847e-008
1.22121e-008
1.12227e-008
1.2355e-008
1.23709e-008
1.21554e-008
1.22865e-008
1.23722e-008
1.23012e-008
1.22539e-008
1.22507e-008
1.22417e-008
1.90047
1.39186
1.03213
0.772877
0.582304
0.439472
0.330335
0.245342
0.177934
0.123604
0.0793271
0.0433332
0.0150764
0.00290838
0.000296921
2.33805e-005
1.81336e-006
1.51643e-007
2.16576e-008
1.12793e-008
9.42332e-009
9.91204e-009
1.0229e-008
9.93903e-009
9.95124e-009
1.01006e-008
1.01234e-008
1.01043e-008
1.0109e-008
1.89105
1.39898
1.04843
0.794174
0.606319
0.464963
0.356646
0.272121
0.204967
0.150698
0.106193
0.0693606
0.0389938
0.0141541
0.0028815
0.000320729
2.78097e-005
2.364e-006
2.10744e-007
2.67993e-008
1.02981e-008
8.22854e-009
8.30551e-009
8.75653e-009
8.62827e-009
8.46767e-009
8.54285e-009
8.58972e-009
8.56646e-009
1.86864
1.39458
1.05446
0.806466
0.622364
0.483271
0.376348
0.292717
0.226165
0.172301
0.128015
0.0911237
0.0601564
0.0342402
0.0126973
0.00266092
0.00031741
3.01952e-005
2.81337e-006
2.71132e-007
3.29504e-008
9.98164e-009
7.56533e-009
7.07337e-009
7.50032e-009
7.49994e-009
7.37697e-009
7.40945e-009
7.50162e-009
1.83573
1.3807
1.05212
0.811234
0.631703
0.495586
0.390623
0.308325
0.242712
0.189532
0.145738
0.109146
0.0782141
0.0518983
0.0295994
0.0108525
0.00228169
0.000288218
3.01106e-005
3.0891e-006
3.24869e-007
4.00568e-008
1.034e-008
7.11729e-009
6.39163e-009
6.56913e-009
6.70756e-009
6.58389e-009
6.52958e-009
1.79459
1.35878
1.04292
0.809973
0.635628
0.503026
0.400503
0.319918
0.255545
0.203288
0.160195
0.124123
0.0935252
0.0673027
0.0447233
0.0254209
0.00898973
0.00187031
0.000249392
2.86029e-005
3.23094e-006
3.7168e-007
4.80356e-008
1.11282e-008
6.66749e-009
5.85612e-009
5.92158e-009
6.13579e-009
6.06407e-009
1.74698
1.3308
1.02779
0.803794
0.635137
0.50649
0.406745
0.328181
0.265297
0.214166
0.17194
0.13654
0.106447
0.0805555
0.0580825
0.0385239
0.0216797
0.00744027
0.00153578
0.000216208
2.70207e-005
3.33648e-006
4.17862e-007
5.71719e-008
1.22111e-008
6.38217e-009
5.50334e-009
5.39116e-009
5.59845e-009
1.69437
1.29808
1.00832
0.793295
0.631173
0.5067
0.410028
0.3337
0.272501
0.222659
0.181442
0.146843
0.117382
0.0919697
0.069812
0.0503526
0.0332474
0.018355
0.00612529
0.00126607
0.000189383
2.5788e-005
3.47669e-006
4.73737e-007
6.88947e-008
1.3938e-008
6.35838e-009
5.33152e-009
5.00287e-009
1.63784
1.26161
0.985385
0.779653
0.62401
0.504447
0.411003
0.337093
0.277698
0.229241
0.189112
0.155384
0.12663
0.101787
0.0800665
0.0608949
0.0438745
0.0287657
0.0154939
0.00504904
0.00105765
0.000169241
2.51063e-005
3.68636e-006
5.4505e-007
8.44418e-008
1.66299e-008
6.67826e-009
5.09757e-009
1.5783
1.22219
0.959684
0.763474
0.614541
0.499785
0.409987
0.338677
0.281252
0.234312
0.195364
0.162575
0.13458
0.110355
0.0891324
0.0703397
0.0535617
0.0385149
0.0250398
0.0131138
0.00419643
0.000899256
0.00015402
2.47883e-005
3.94735e-006
6.31184e-007
1.043e-007
2.05786e-008
7.14986e-009
1.51658
1.18051
0.931807
0.745253
0.603181
0.493372
0.407248
0.338595
0.283231
0.237883
0.200201
0.168431
0.141267
0.117726
0.0970663
0.0787277
0.0622935
0.0474628
0.0340364
0.0219157
0.011128
0.00352489
0.000779515
0.000143144
2.49395e-005
4.30164e-006
7.43616e-007
1.31547e-007
2.5873e-008
1.45335
1.13717
0.902259
0.725429
0.590318
0.48557
0.403187
0.337468
0.284199
0.240487
0.204092
0.173357
0.147039
0.1242
0.104127
0.0862765
0.0702385
0.055707
0.042464
0.0303723
0.0193806
0.0095422
0.00301828
0.000694677
0.000136784
2.57165e-005
4.77553e-006
8.86426e-007
1.6382e-007
1.38919
1.09264
0.871445
0.704341
0.576231
0.476593
0.397992
0.335103
0.284025
0.242022
0.206976
0.177329
0.151903
0.129805
0.110354
0.0930294
0.0774314
0.0632575
0.0502832
0.0383522
0.0273735
0.0173276
0.00829036
0.00264156
0.000635783
0.000133932
2.7031e-005
5.38382e-006
1.04645e-006
1.32462
1.04737
0.839728
0.682295
0.561187
0.466693
0.391927
0.331947
0.283165
0.242884
0.2092
0.180647
0.156115
0.134761
0.115937
0.0991454
0.0840017
0.0702102
0.0575467
0.0458464
0.0349984
0.0249458
0.0156994
0.00731612
0.00236338
0.000596045
0.000133878
2.89046e-005
6.01613e-006
1.26009
1.00171
0.80741
0.659543
0.545393
0.456031
0.385099
0.328019
0.28145
0.242906
0.210637
0.183224
0.159627
0.139051
0.120884
0.104652
0.0899876
0.0766063
0.064288
0.0528669
0.0422228
0.032279
0.0230049
0.0144454
0.00658341
0.00216227
0.000570994
0.000136216
3.06273e-005
1.19597
0.955991
0.774753
0.636303
0.529037
0.444775
0.377676
0.323518
0.279214
0.242488
0.211605
0.185318
0.162647
0.142843
0.125329
0.109656
0.095476
0.0825142
0.0705579
0.0594426
0.0490449
0.0392779
0.03009
0.0214718
0.0134915
0.0060462
0.00202512
0.000559268
0.000137975
1.13258
0.910455
0.741967
0.612752
0.512267
0.433055
0.369766
0.318523
0.276481
0.241535
0.212075
0.186935
0.165203
0.146183
0.129332
0.114227
0.100538
0.0880028
0.0764183
0.0656242
0.0554974
0.0459465
0.0369093
0.0283536
0.0202874
0.0127897
0.00567478
0.00194601
0.000548663
1.07018
0.865319
0.709227
0.589032
0.495204
0.420967
0.361448
0.313096
0.273298
0.240109
0.21206
0.188088
0.167318
0.149099
0.132925
0.1184
0.105212
0.0931141
0.0819124
0.0714526
0.0616144
0.0523056
0.0434592
0.0350318
0.0270069
0.0194042
0.0123026
0.00545882
0.00188101
1.00897
0.820752
0.676671
0.56526
0.477943
0.408598
0.352803
0.307322
0.26977
0.238366
0.211771
0.188942
0.169121
0.151697
0.136198
0.122252
0.109567
0.0979092
0.0870947
0.076976
0.0674366
0.0583857
0.0497543
0.0414937
0.0335753
0.0259937
0.0187742
0.0120121
0.00529259
0.949126
0.776888
0.644407
0.541522
0.460558
0.39601
0.343882
0.301244
0.265923
0.236294
0.211128
0.18947
0.170612
0.153995
0.13918
0.125822
0.113647
0.102435
0.0920133
0.0822416
0.0730083
0.0642253
0.055824
0.0477533
0.0399788
0.032483
0.0252691
0.0183795
0.0117415
0.890774
0.733836
0.612522
0.51789
0.443105
0.383246
0.334723
0.294891
0.261782
0.233917
0.210173
0.189688
0.171809
0.156012
0.141895
0.129136
0.117481
0.106725
0.0967039
0.0872867
0.0783672
0.0698606
0.0617001
0.0538345
0.0462266
0.0388528
0.031705
0.0247952
0.0181591
0.834032
0.691686
0.581088
0.494417
0.425627
0.370342
0.325354
0.288288
0.257371
0.231265
0.208949
0.189639
0.172747
0.157783
0.144375
0.132227
0.121103
0.110811
0.101201
0.0921464
0.0835486
0.0753265
0.0674158
0.0597661
0.0523394
0.0451095
0.0380619
0.0311958
0.0245263
0.778998
0.650518
0.550165
0.47115
0.408159
0.357324
0.315794
0.281452
0.252708
0.228358
0.207483
0.189377
0.173468
0.159341
0.146652
0.135125
0.124542
0.114727
0.105537
0.0968552
0.0885882
0.0806592
0.0730066
0.0655818
0.0583472
0.0512753
0.0443486
0.0375597
0.0309101
0.725762
0.610403
0.519809
0.44813
0.390729
0.34421
0.306056
0.274389
0.247792
0.225187
0.205749
0.188836
0.173939
0.16067
0.148718
0.137832
0.12781
0.118488
0.109735
0.10144
0.0935168
0.0858922
0.0785081
0.0713177
0.0642847
0.0573815
0.0505894
0.0438976
0.0373023
0.67441
0.571412
0.490073
0.425397
0.373365
0.331018
0.29615
0.267104
0.242624
0.221752
0.203748
0.188035
0.174159
0.16177
0.150578
0.140356
0.130917
0.12211
0.113813
0.105924
0.0983615
0.0910565
0.0839542
0.0770101
0.0701892
0.0634647
0.0568175
0.0502358
0.0437135
0.625027
0.533616
0.461015
0.402992
0.356096
0.317768
0.286086
0.259601
0.237205
0.218052
0.201481
0.186978
0.174132
0.162646
0.152239
0.142704
0.133873
0.125606
0.11779
0.11033
0.103149
0.0961832
0.08938
0.0826971
0.076101
0.069566
0.0630734
0.056611
0.0501725
0.577698
0.49709
0.432696
0.380965
0.338959
0.304484
0.275881
0.251887
0.231536
0.214083
0.198947
0.18567
0.173893
0.163311
0.153704
0.144881
0.136684
0.128985
0.121679
0.114677
0.107905
0.101304
0.0948223
0.0884204
0.0820657
0.0757335
0.0694057
0.0630707
0.0567225
0.532512
0.46192
0.405189
0.359374
0.321999
0.2912
0.265555
0.243974
0.225621
0.209843
0.19613
0.184078
0.173366
0.163722
0.154947
0.146868
0.139341
0.132247
0.125488
0.11898
0.112653
0.106449
0.10032
0.0942264
0.0881358
0.0820243
0.0758745
0.0696755
0.063422
0.489565
0.428197
0.378579
0.338292
0.305276
0.277962
0.255142
0.235886
0.219472
0.205335
0.193029
0.182197
0.172554
0.163862
0.155953
0.148653
0.141835
0.135387
0.129218
0.123249
0.117412
0.11165
0.105915
0.100166
0.0943723
0.0885077
0.0825551
0.0765038
0.0703499
0.448959
0.396028
0.352965
0.317808
0.288865
0.264832
0.244693
0.22766
0.213117
0.200576
0.189652
0.180034
0.17147
0.163753
0.156721
0.150228
0.144152
0.138393
0.132862
0.127484
0.122192
0.116927
0.111641
0.106291
0.10084
0.0952627
0.0895381
0.083655
0.0776098
0.4108
0.365529
0.328461
0.298029
0.272864
0.251895
0.234279
0.219354
0.206599
0.195598
0.18602
0.177595
0.170105
0.163374
0.157228
0.151562
0.146262
0.141233
0.136391
0.131662
0.126978
0.12228
0.117514
0.112632
0.107593
0.102364
0.0969182
0.0912409
0.0853262
0.375201
0.336827
0.305199
0.279082
0.257391
0.239261
0.223999
0.211056
0.199993
0.190462
0.182177
0.174908
0.168466
0.162691
0.157444
0.152625
0.148127
0.143863
0.139756
0.135731
0.131723
0.127668
0.123507
0.119183
0.114647
0.109853
0.104765
0.0993591
0.0936214
0.342276
0.310059
0.283324
0.261116
0.242594
0.22707
0.213984
0.202885
0.193409
0.185263
0.178206
0.172042
0.166608
0.161767
0.157398
0.153416
0.149722
0.146239
0.142895
0.139619
0.136346
0.133008
0.129539
0.125875
0.121951
0.117706
0.113087
0.108051
0.102571
0.312136
0.285365
0.262994
0.244296
0.22864
0.215492
0.204402
0.195004
0.187
0.180144
0.174236
0.169109
0.164626
0.160672
0.157151
0.153963
0.151048
0.148334
0.145755
0.143247
0.140745
0.13818
0.135482
0.132574
0.129378
0.125812
0.121798
0.117266
0.11216
0.28488
0.262882
0.24437
0.228799
0.215718
0.20472
0.195449
0.18761
0.180959
0.175293
0.170444
0.166274
0.162666
0.159527
0.156773
0.154332
0.152145
0.150158
0.148315
0.146558
0.144829
0.143062
0.141184
0.13911
0.136745
0.133986
0.130722
0.126846
0.122263
0.260588
0.242732
0.227602
0.214799
0.20402
0.194959
0.187339
0.180923
0.175511
0.170934
0.167052
0.163749
0.16093
0.158519
0.15645
0.154665
0.153125
0.151787
0.15061
0.149548
0.148552
0.147564
0.146513
0.14531
0.143849
0.142002
0.139626
0.136565
0.132662
0.239303
0.225003
0.212815
0.202449
0.19372
0.186403
0.180284
0.175169
0.170892
0.16731
0.164305
0.161781
0.159661
0.157883
0.156404
0.155162
0.15416
0.153365
0.15275
0.152287
0.151937
0.151661
0.151394
0.151051
0.150518
0.149646
0.14827
0.146171
0.143107
0.221008
0.209733
0.200084
0.191856
0.184954
0.179215
0.174468
0.170552
0.167325
0.164661
0.16246
0.160636
0.159132
0.157894
0.156864
0.156072
0.155492
0.155114
0.15493
0.154937
0.155097
0.155422
0.155844
0.156291
0.156655
0.156757
0.156458
0.155453
0.153364
0.205619
0.196886
0.189417
0.183064
0.177798
0.1735
0.170027
0.167239
0.165007
0.163215
0.161772
0.160596
0.159608
0.158799
0.158175
0.157732
0.157454
0.15736
0.157455
0.15776
0.158296
0.159053
0.160011
0.161119
0.162291
0.163367
0.164139
0.164166
0.163221
0.192967
0.186352
0.180747
0.176045
0.172263
0.169306
0.167047
0.165356
0.164109
0.163184
0.162457
0.161884
0.16143
0.161062
0.160785
0.160596
0.160512
0.160565
0.160786
0.161237
0.161946
0.16294
0.164231
0.165808
0.167617
0.169534
0.171349
0.172594
0.1726
0.182814
0.177947
0.173939
0.170709
0.168298
0.166623
0.165565
0.16499
0.164745
0.164712
0.164807
0.164954
0.165092
0.165191
0.165246
0.165278
0.165322
0.165428
0.165655
0.16608
0.166764
0.167771
0.169152
0.170938
0.17313
0.175659
0.178378
0.180776
0.182045
0.174869
0.171439
0.168809
0.166912
0.165803
0.165398
0.165579
0.166168
0.16706
0.168113
0.169199
0.170211
0.171085
0.171779
0.172286
0.172624
0.172838
0.172992
0.173166
0.173454
0.173952
0.174757
0.175962
0.177647
0.179879
0.18267
0.186007
0.189353
0.191994
0.168814
0.166566
0.165141
0.164484
0.164648
0.165542
0.167032
0.168982
0.171221
0.173579
0.175908
0.178081
0.18
0.181602
0.182858
0.183776
0.184393
0.184777
0.185017
0.185221
0.185507
0.186001
0.186833
0.188122
0.190007
0.192599
0.196086
0.199914
0.203763
0.164332
0.163061
0.162715
0.163236
0.164683
0.166951
0.169928
0.173432
0.177279
0.181277
0.18525
0.189034
0.192497
0.195538
0.198097
0.200152
0.201722
0.202859
0.203646
0.204188
0.204608
0.205041
0.205627
0.206513
0.207869
0.209913
0.212998
0.216567
0.220726
0.161127
0.160673
0.161308
0.162986
0.165752
0.169526
0.174159
0.179475
0.185272
0.191342
0.197478
0.203483
0.209186
0.214447
0.219166
0.223287
0.226796
0.229722
0.232129
0.234108
0.235769
0.237234
0.238622
0.240089
0.241659
0.243656
0.246379
0.249469
0.252049
0.158933
0.159169
0.160723
0.163554
0.167713
0.17311
0.179608
0.187028
0.195168
0.203806
0.212717
0.221681
0.230496
0.23899
0.247028
0.254526
0.261448
0.267808
0.273663
0.279106
0.284258
0.289251
0.29421
0.299314
0.304533
0.309999
0.315355
0.321486
0.318864
0.157517
0.158344
0.160782
0.164775
0.170392
0.177549
0.186124
0.195953
0.20684
0.21857
0.230918
0.243655
0.256569
0.269473
0.282225
0.294734
0.30697
0.31897
0.330832
0.342714
0.354832
0.367447
0.380861
0.395451
0.411475
0.430006
0.44895
0.474758
0.464143
0.156685
0.158021
0.161316
0.166487
0.173626
0.182672
0.193524
0.206046
0.220069
0.235403
0.251843
0.269182
0.287223
0.305802
0.324801
0.344168
0.363932
0.384211
0.405225
0.427304
0.450902
0.476612
0.505224
0.537734
0.575427
0.620856
0.67409
0.751689
0.739777
0.156277
0.158052
0.162191
0.168545
0.177265
0.188306
0.201606
0.217068
0.23457
0.25397
0.275113
0.297844
0.322025
0.347555
0.374397
0.4026
0.432319
0.463848
0.497637
0.534329
0.57482
0.620297
0.672476
0.733496
0.807021
0.897339
1.01341
1.16641
1.18834
0.156201
0.158348
0.16333
0.170866
0.18121
0.19433
0.210214
0.22882
0.250091
0.273959
0.300352
0.329208
0.360495
0.394239
0.43055
0.469659
0.511953
0.558014
0.608678
0.665095
0.728862
0.80211
0.888054
0.990621
1.11763
1.27551
1.4914
1.74268
1.89703
0.000990144
0.000990139
0.000990132
0.000990129
0.00099013
0.000990136
0.000990145
0.00099015
0.000990144
0.000990135
0.000990135
0.000990143
0.000990148
0.000990146
0.000990149
0.000990153
0.000990147
0.000990139
0.000990134
0.000990151
0.000990162
0.000990166
0.000990144
0.000990131
0.000990133
0.000990148
0.000990148
0.00099015
0.00099016
0.000990168
0.000990153
0.000990132
0.000990122
0.000990136
0.000990145
0.000990145
0.000990145
0.000990145
0.000990145
0.000990145
0.000990145
0.000990145
0.000990145
0.000990145
0.000990145
0.000990146
0.000990146
0.000990146
0.000990146
0.000990146
0.000990147
0.000990147
0.000990147
0.000990147
0.000990148
0.000990148
0.000990148
0.000990148
0.000990149
0.000990149
0.000990149
0.000990149
0.00099015
0.00099015
0.00099015
0.00099015
0.00099015
0.000990151
0.000990151
0.000990151
0.000990152
0.000990152
0.000990152
0.000990152
0.000990153
0.000990152
0.000990153
0.000990153
0.000990154
0.000990157
0.000990156
0.000990156
0.000990156
0.000990152
0.000990155
0.000990155
0.000990159
0.000990154
0.000990154
0.000990156
0.000990157
0.000990156
0.000990156
0.000990156
0.000990157
0.000990158
0.000990159
0.000990159
0.000990159
0.000990159
0.000990159
0.000990159
0.000990159
0.000990159
0.000990159
0.000990159
0.000990159
0.000990159
0.000990159
0.000990159
0.000990159
0.000990159
0.000990159
0.000990159
0.000990159
0.000990159
0.000990159
0.00099016
0.00099016
0.00099016
0.00099016
0.00099016
0.00099016
0.00099016
0.00099016
0.00099016
0.00099016
0.00099016
0.00099016
0.000990161
0.000990161
0.000990164
0.000990163
0.000990166
0.000990164
0.00099017
0.000990167
0.000990179
0.00100813
4.09943e-005
4.09873e-005
4.0978e-005
4.0974e-005
4.09757e-005
4.09865e-005
4.09994e-005
4.10039e-005
4.09937e-005
4.09809e-005
4.09839e-005
4.09975e-005
4.10015e-005
4.09976e-005
4.10022e-005
4.10083e-005
4.09994e-005
4.0988e-005
4.09815e-005
4.10079e-005
4.10239e-005
4.10262e-005
4.09955e-005
4.09767e-005
4.09819e-005
4.10017e-005
4.10021e-005
4.10067e-005
4.10209e-005
4.10317e-005
4.10076e-005
4.09784e-005
4.09653e-005
4.09874e-005
4.0999e-005
4.0999e-005
4.09988e-005
4.09988e-005
4.09988e-005
4.09989e-005
4.09991e-005
4.09992e-005
4.09995e-005
4.09998e-005
4.10002e-005
4.10004e-005
4.10007e-005
4.1001e-005
4.1001e-005
4.10017e-005
4.10024e-005
4.10028e-005
4.10031e-005
4.10036e-005
4.1004e-005
4.10044e-005
4.10049e-005
4.10052e-005
4.10057e-005
4.1006e-005
4.10064e-005
4.10068e-005
4.10071e-005
4.10077e-005
4.1008e-005
4.10086e-005
4.10088e-005
4.10096e-005
4.10096e-005
4.10101e-005
4.10107e-005
4.10106e-005
4.10119e-005
4.10115e-005
4.10123e-005
4.10121e-005
4.10127e-005
4.10133e-005
4.10142e-005
4.10182e-005
4.10173e-005
4.10175e-005
4.10176e-005
4.10124e-005
4.10154e-005
4.10163e-005
4.10209e-005
4.10143e-005
4.10152e-005
4.10181e-005
4.10192e-005
4.10178e-005
4.10174e-005
4.10182e-005
4.10198e-005
4.10212e-005
4.10214e-005
4.10213e-005
4.10214e-005
4.10214e-005
4.10214e-005
4.10215e-005
4.10216e-005
4.10216e-005
4.10216e-005
4.10216e-005
4.10217e-005
4.10218e-005
4.10218e-005
4.1022e-005
4.1022e-005
4.10221e-005
4.10222e-005
4.10223e-005
4.10224e-005
4.10225e-005
4.10226e-005
4.10226e-005
4.10226e-005
4.10225e-005
4.10224e-005
4.10223e-005
4.10221e-005
4.1022e-005
4.10223e-005
4.10224e-005
4.10225e-005
4.10226e-005
4.10226e-005
4.10234e-005
4.10243e-005
4.1028e-005
4.10262e-005
4.10323e-005
4.10288e-005
4.1036e-005
4.10364e-005
4.10676e-005
4.46815e-005
3.38047e-006
3.37958e-006
3.37929e-006
3.37952e-006
3.38116e-006
3.38328e-006
3.38353e-006
3.3815e-006
3.37936e-006
3.37995e-006
3.38292e-006
3.3842e-006
3.38259e-006
3.38135e-006
3.38244e-006
3.38278e-006
3.38144e-006
3.38035e-006
3.38138e-006
3.38502e-006
3.38574e-006
3.38405e-006
3.38112e-006
3.38016e-006
3.38267e-006
3.38379e-006
3.38393e-006
3.38537e-006
3.38703e-006
3.38604e-006
3.38278e-006
3.38079e-006
3.38178e-006
3.38505e-006
3.38515e-006
3.38516e-006
3.38524e-006
3.3853e-006
3.38537e-006
3.38547e-006
3.38557e-006
3.38567e-006
3.3858e-006
3.38594e-006
3.38608e-006
3.38619e-006
3.3863e-006
3.3864e-006
3.38666e-006
3.38675e-006
3.38676e-006
3.38681e-006
3.38695e-006
3.38711e-006
3.38725e-006
3.38738e-006
3.38755e-006
3.38767e-006
3.38782e-006
3.38794e-006
3.38807e-006
3.38822e-006
3.38831e-006
3.38848e-006
3.38857e-006
3.38873e-006
3.3888e-006
3.389e-006
3.38901e-006
3.38918e-006
3.38934e-006
3.3893e-006
3.38961e-006
3.38957e-006
3.38978e-006
3.38978e-006
3.39013e-006
3.39029e-006
3.3903e-006
3.39063e-006
3.39061e-006
3.39104e-006
3.3908e-006
3.39053e-006
3.39048e-006
3.39078e-006
3.39066e-006
3.39024e-006
3.39104e-006
3.39147e-006
3.39124e-006
3.39116e-006
3.39133e-006
3.39148e-006
3.39156e-006
3.39146e-006
3.39151e-006
3.39152e-006
3.39157e-006
3.39162e-006
3.39164e-006
3.39166e-006
3.39166e-006
3.39166e-006
3.39166e-006
3.39164e-006
3.39163e-006
3.39162e-006
3.39162e-006
3.3916e-006
3.3916e-006
3.39157e-006
3.39155e-006
3.39149e-006
3.39148e-006
3.39137e-006
3.39135e-006
3.3912e-006
3.39113e-006
3.39097e-006
3.3908e-006
3.39063e-006
3.39045e-006
3.39033e-006
3.39027e-006
3.39022e-006
3.39017e-006
3.39e-006
3.39012e-006
3.39002e-006
3.38963e-006
3.39033e-006
3.39048e-006
3.39082e-006
3.38937e-006
3.40608e-006
3.35159e-006
3.08132e-006
5.32221e-006
5.32785e-007
5.3279e-007
5.32801e-007
5.33027e-007
5.33398e-007
5.33401e-007
5.33035e-007
5.32796e-007
5.33057e-007
5.33636e-007
5.33849e-007
5.33499e-007
5.33118e-007
5.33413e-007
5.33912e-007
5.33993e-007
5.33614e-007
5.33278e-007
5.33595e-007
5.34029e-007
5.33917e-007
5.33427e-007
5.33172e-007
5.3337e-007
5.34002e-007
5.34153e-007
5.34205e-007
5.34414e-007
5.34453e-007
5.34042e-007
5.33691e-007
5.3365e-007
5.34112e-007
5.34502e-007
5.34529e-007
5.34581e-007
5.34637e-007
5.34686e-007
5.34735e-007
5.34788e-007
5.34841e-007
5.34896e-007
5.34957e-007
5.3502e-007
5.3508e-007
5.3513e-007
5.35181e-007
5.35221e-007
5.35241e-007
5.35275e-007
5.35349e-007
5.3543e-007
5.35484e-007
5.35534e-007
5.35586e-007
5.35636e-007
5.35695e-007
5.35743e-007
5.358e-007
5.35847e-007
5.359e-007
5.35953e-007
5.35997e-007
5.36055e-007
5.36098e-007
5.36154e-007
5.36194e-007
5.36259e-007
5.36287e-007
5.36346e-007
5.364e-007
5.36424e-007
5.36523e-007
5.36537e-007
5.36585e-007
5.36636e-007
5.36669e-007
5.36747e-007
5.36831e-007
5.36859e-007
5.36924e-007
5.37007e-007
5.37019e-007
5.36984e-007
5.36997e-007
5.37035e-007
5.36998e-007
5.36927e-007
5.36992e-007
5.36994e-007
5.3701e-007
5.37022e-007
5.37016e-007
5.3702e-007
5.37032e-007
5.37083e-007
5.37125e-007
5.37206e-007
5.37232e-007
5.37262e-007
5.37274e-007
5.37286e-007
5.37289e-007
5.37297e-007
5.37297e-007
5.37295e-007
5.37291e-007
5.37284e-007
5.37283e-007
5.37268e-007
5.37266e-007
5.37245e-007
5.37237e-007
5.37203e-007
5.37193e-007
5.37151e-007
5.37139e-007
5.37091e-007
5.37055e-007
5.37002e-007
5.36939e-007
5.36861e-007
5.36788e-007
5.36712e-007
5.36645e-007
5.36542e-007
5.3647e-007
5.36369e-007
5.36306e-007
5.36284e-007
5.362e-007
5.3633e-007
5.35307e-007
5.42938e-007
5.4128e-007
4.4962e-007
7.57343e-007
7.30249e-005
0.00918208
1.46098e-007
1.46104e-007
1.46145e-007
1.4623e-007
1.46263e-007
1.46201e-007
1.46166e-007
1.46258e-007
1.4641e-007
1.46468e-007
1.4639e-007
1.46301e-007
1.46341e-007
1.46552e-007
1.46641e-007
1.46584e-007
1.4642e-007
1.46386e-007
1.46461e-007
1.46525e-007
1.46485e-007
1.46392e-007
1.46407e-007
1.46509e-007
1.46636e-007
1.46695e-007
1.46747e-007
1.4679e-007
1.46749e-007
1.46663e-007
1.46653e-007
1.46701e-007
1.46847e-007
1.46913e-007
1.46944e-007
1.46976e-007
1.47007e-007
1.47031e-007
1.47055e-007
1.4708e-007
1.47107e-007
1.47135e-007
1.47167e-007
1.47199e-007
1.47228e-007
1.47254e-007
1.47277e-007
1.473e-007
1.47336e-007
1.47373e-007
1.47397e-007
1.47408e-007
1.47428e-007
1.4746e-007
1.4749e-007
1.47517e-007
1.47546e-007
1.47572e-007
1.476e-007
1.47626e-007
1.47653e-007
1.47679e-007
1.47703e-007
1.47731e-007
1.47755e-007
1.47781e-007
1.47804e-007
1.47832e-007
1.47851e-007
1.47879e-007
1.479e-007
1.47922e-007
1.47955e-007
1.47969e-007
1.47992e-007
1.48011e-007
1.48012e-007
1.48031e-007
1.4806e-007
1.48064e-007
1.48095e-007
1.48114e-007
1.48131e-007
1.48134e-007
1.48157e-007
1.48158e-007
1.48149e-007
1.48158e-007
1.48181e-007
1.48216e-007
1.48249e-007
1.48252e-007
1.48253e-007
1.48264e-007
1.48291e-007
1.48308e-007
1.4832e-007
1.48321e-007
1.48326e-007
1.48329e-007
1.48332e-007
1.48338e-007
1.4834e-007
1.48345e-007
1.48343e-007
1.48346e-007
1.48342e-007
1.4834e-007
1.48332e-007
1.4833e-007
1.48318e-007
1.48308e-007
1.48293e-007
1.48275e-007
1.48256e-007
1.48237e-007
1.4822e-007
1.48199e-007
1.48178e-007
1.48152e-007
1.48126e-007
1.48095e-007
1.48063e-007
1.48028e-007
1.48004e-007
1.48021e-007
1.47994e-007
1.47781e-007
1.47797e-007
1.48008e-007
1.47657e-007
1.47159e-007
1.51551e-007
1.29962e-007
1.29184e-007
6.1205e-007
5.77964e-005
0.00554023
0.101612
6.06281e-008
6.06301e-008
6.06514e-008
6.06778e-008
6.0679e-008
6.06696e-008
6.06911e-008
6.0753e-008
6.07859e-008
6.07698e-008
6.0732e-008
6.07368e-008
6.08004e-008
6.08775e-008
6.08868e-008
6.08331e-008
6.07771e-008
6.07914e-008
6.08361e-008
6.0864e-008
6.08531e-008
6.08376e-008
6.08571e-008
6.09102e-008
6.09553e-008
6.09868e-008
6.10099e-008
6.10206e-008
6.10043e-008
6.09902e-008
6.09971e-008
6.10328e-008
6.10878e-008
6.11121e-008
6.1138e-008
6.11564e-008
6.11736e-008
6.11891e-008
6.1205e-008
6.12213e-008
6.12382e-008
6.12566e-008
6.12759e-008
6.12939e-008
6.13104e-008
6.13285e-008
6.13482e-008
6.13624e-008
6.13772e-008
6.13855e-008
6.13989e-008
6.14213e-008
6.14493e-008
6.14682e-008
6.14828e-008
6.14983e-008
6.15148e-008
6.15312e-008
6.1548e-008
6.15641e-008
6.15809e-008
6.15965e-008
6.16131e-008
6.16284e-008
6.16444e-008
6.16591e-008
6.16752e-008
6.16889e-008
6.17026e-008
6.1719e-008
6.17273e-008
6.17478e-008
6.17573e-008
6.17732e-008
6.17822e-008
6.17997e-008
6.18039e-008
6.18155e-008
6.18355e-008
6.18362e-008
6.185e-008
6.18593e-008
6.18738e-008
6.18878e-008
6.19064e-008
6.19063e-008
6.18943e-008
6.18956e-008
6.19082e-008
6.19195e-008
6.1933e-008
6.19377e-008
6.19519e-008
6.19689e-008
6.1977e-008
6.19788e-008
6.19792e-008
6.19816e-008
6.19851e-008
6.1999e-008
6.19985e-008
6.2005e-008
6.20041e-008
6.20064e-008
6.2011e-008
6.20095e-008
6.20157e-008
6.20074e-008
6.20098e-008
6.1999e-008
6.20006e-008
6.19867e-008
6.1985e-008
6.1967e-008
6.19662e-008
6.19498e-008
6.19469e-008
6.19308e-008
6.19231e-008
6.191e-008
6.18972e-008
6.18758e-008
6.18625e-008
6.18357e-008
6.17918e-008
6.16699e-008
6.16537e-008
6.18756e-008
6.16415e-008
6.14587e-008
6.16947e-008
6.286e-008
5.29104e-008
8.76893e-008
1.40486e-006
0.000104267
0.00519719
0.0751635
0.395212
3.31418e-008
3.31633e-008
3.31835e-008
3.31886e-008
3.31891e-008
3.31949e-008
3.32131e-008
3.32305e-008
3.32355e-008
3.32367e-008
3.3242e-008
3.32569e-008
3.32805e-008
3.32971e-008
3.32965e-008
3.32827e-008
3.32846e-008
3.32945e-008
3.33089e-008
3.33261e-008
3.33362e-008
3.33485e-008
3.33605e-008
3.33731e-008
3.3389e-008
3.34092e-008
3.34282e-008
3.34409e-008
3.34419e-008
3.34434e-008
3.34475e-008
3.34655e-008
3.34881e-008
3.35104e-008
3.35304e-008
3.35434e-008
3.35563e-008
3.35685e-008
3.35801e-008
3.35922e-008
3.3605e-008
3.36179e-008
3.36306e-008
3.36442e-008
3.36578e-008
3.36709e-008
3.36816e-008
3.36873e-008
3.36961e-008
3.37113e-008
3.37301e-008
3.37448e-008
3.37536e-008
3.37618e-008
3.37749e-008
3.37894e-008
3.38017e-008
3.38145e-008
3.3826e-008
3.38383e-008
3.38497e-008
3.38613e-008
3.38727e-008
3.38841e-008
3.3895e-008
3.39061e-008
3.39177e-008
3.39273e-008
3.39387e-008
3.39492e-008
3.39562e-008
3.39703e-008
3.39761e-008
3.39876e-008
3.39933e-008
3.4004e-008
3.4008e-008
3.40122e-008
3.40242e-008
3.40269e-008
3.40325e-008
3.40403e-008
3.40489e-008
3.40598e-008
3.40714e-008
3.40732e-008
3.40713e-008
3.40767e-008
3.40828e-008
3.40884e-008
3.40997e-008
3.41126e-008
3.41218e-008
3.41255e-008
3.41287e-008
3.41301e-008
3.41338e-008
3.41395e-008
3.41428e-008
3.41472e-008
3.41494e-008
3.41526e-008
3.41538e-008
3.41553e-008
3.41556e-008
3.41552e-008
3.41554e-008
3.41542e-008
3.4154e-008
3.41503e-008
3.41484e-008
3.4142e-008
3.41394e-008
3.41307e-008
3.41284e-008
3.41208e-008
3.41172e-008
3.41084e-008
3.41027e-008