/*--------------------------------*- C++ -*----------------------------------*\
| =========                 |                                                 |
| \\      /  F ield         | OpenFOAM: The Open Source CFD Toolbox           |
|  \\    /   O peration     | Version:  5.x                                   |
|   \\  /    A nd           | Web:      www.OpenFOAM.org                      |
|    \\/     M anipulation  |                                                 |
\*---------------------------------------------------------------------------*/
/*   Windows 32 and 64 bit porting by blueCAPE: http://www.bluecape.com.pt   *\
|  Based on Windows porting (2.0.x v4) by Symscape: http://www.symscape.com   |
\*---------------------------------------------------------------------------*/
FoamFile
{
    version     2.0;
    format      ascii;
    class       volScalarField;
    location    "380";
    object      nut;
}
// * * * * * * * * * * * * * * * * * * * * * * * * * * * * * * * * * * * * * //

dimensions      [0 2 -1 0 0 0 0];

internalField   nonuniform List<scalar> 
43900
(
5.71601e-005
5.80006e-005
5.80694e-005
5.80642e-005
5.80595e-005
5.80585e-005
5.80588e-005
5.80589e-005
5.80589e-005
5.80592e-005
5.80592e-005
5.80594e-005
5.80594e-005
5.80595e-005
5.80596e-005
5.80598e-005
5.80598e-005
5.80596e-005
5.80598e-005
5.806e-005
5.806e-005
5.806e-005
5.80602e-005
5.80604e-005
5.80604e-005
5.80599e-005
5.80595e-005
5.80597e-005
5.80604e-005
0.000591879
7.39662e-006
4.30786e-006
4.16113e-006
4.5796e-006
4.60583e-006
4.60885e-006
4.60364e-006
4.6036e-006
4.60418e-006
4.60437e-006
4.60488e-006
4.60494e-006
4.60508e-006
4.60549e-006
4.60593e-006
4.6059e-006
4.60556e-006
4.60602e-006
4.60658e-006
4.6066e-006
4.60673e-006
4.60707e-006
4.60751e-006
4.6074e-006
4.60633e-006
4.60575e-006
4.60631e-006
4.60775e-006
0.153502
0.0456487
0.0052321
0.000108874
1.3172e-006
6.44515e-007
6.01828e-007
7.14048e-007
7.25077e-007
7.23417e-007
7.21757e-007
7.21818e-007
7.2223e-007
7.22401e-007
7.22564e-007
7.22812e-007
7.22848e-007
7.22833e-007
7.23038e-007
7.23191e-007
7.2332e-007
7.23494e-007
7.23619e-007
7.23599e-007
7.23449e-007
7.23359e-007
7.23598e-007
7.23948e-007
7.24085e-007
0.476121
0.291997
0.134175
0.0387742
0.00467091
0.000181668
4.26651e-006
2.57423e-007
1.74256e-007
1.93568e-007
2.13808e-007
2.15582e-007
2.12638e-007
2.11773e-007
2.12274e-007
2.12482e-007
2.12353e-007
2.12378e-007
2.1251e-007
2.12549e-007
2.12599e-007
2.12638e-007
2.12672e-007
2.12711e-007
2.12734e-007
2.12788e-007
2.12844e-007
2.12885e-007
2.12867e-007
0.756961
0.581644
0.414204
0.249224
0.107027
0.0268349
0.00273238
0.000132884
3.1379e-006
2.16157e-007
9.06686e-008
8.34853e-008
1.02244e-007
1.06204e-007
1.03311e-007
1.0279e-007
1.03707e-007
1.03765e-007
1.03481e-007
1.03538e-007
1.03606e-007
1.03574e-007
1.03573e-007
1.03607e-007
1.03607e-007
1.03621e-007
1.03649e-007
1.0367e-007
1.03687e-007
0.967324
0.799303
0.643049
0.491322
0.339469
0.188814
0.0688665
0.0126627
0.000961533
4.82981e-005
1.45911e-006
1.56347e-007
6.39286e-008
6.06725e-008
7.21104e-008
7.24557e-008
6.89526e-008
6.9389e-008
7.06155e-008
7.03046e-008
7.02064e-008
7.04135e-008
7.05142e-008
7.05461e-008
7.05667e-008
7.05648e-008
7.05558e-008
7.05656e-008
7.06083e-008
1.12509
0.962795
0.814515
0.673991
0.536215
0.397227
0.25435
0.113111
0.0293326
0.00327687
0.000202278
1.06879e-005
4.04574e-007
8.40507e-008
4.96625e-008
5.32301e-008
6.25559e-008
5.93858e-008
5.70165e-008
5.82516e-008
5.83458e-008
5.77707e-008
5.7727e-008
5.77426e-008
5.7729e-008
5.77707e-008
5.78571e-008
5.78524e-008
5.78261e-008
1.24455
1.0867
0.944072
0.811099
0.68315
0.556436
0.428248
0.298319
0.162744
0.0535328
0.00839244
0.000633301
3.86544e-005
2.12452e-006
1.36833e-007
5.64682e-008
4.29716e-008
5.08736e-008
5.34231e-008
5.03921e-008
5.08719e-008
5.20955e-008
5.18959e-008
5.18959e-008
5.20359e-008
5.20048e-008
5.19546e-008
5.19646e-008
5.19926e-008
1.33666
1.18291
1.04497
0.917794
0.797162
0.679558
0.562155
0.442843
0.319739
0.192867
0.0725673
0.0139415
0.00125518
8.55865e-005
5.56721e-006
3.36067e-007
7.37588e-008
4.76084e-008
4.5993e-008
5.23248e-008
4.96944e-008
4.83597e-008
4.89675e-008
4.883e-008
4.84502e-008
4.85653e-008
4.87274e-008
4.87452e-008
4.88148e-008
1.40185
1.25358
1.12069
0.99924
0.885295
0.775524
0.667148
0.5579
0.445995
0.330303
0.211041
0.0858671
0.0186263
0.00192
0.000144631
1.04956e-005
7.46859e-007
8.46266e-008
5.07353e-008
4.11804e-008
4.69433e-008
4.77271e-008
4.65217e-008
4.71974e-008
4.76782e-008
4.72557e-008
4.69502e-008
4.69283e-008
4.6868e-008
1.44566
1.30034
1.17252
1.05635
0.948485
0.845744
0.745424
0.645264
0.543447
0.438636
0.33011
0.218271
0.0927032
0.0215086
0.00244441
0.00020245
1.62076e-005
1.27978e-006
1.27736e-007
5.82166e-008
4.27204e-008
4.4004e-008
4.68467e-008
4.49641e-008
4.49506e-008
4.5956e-008
4.61566e-008
4.6013e-008
4.60228e-008
1.48423
1.34196
1.2167
1.10407
1.00023
0.902397
0.807983
0.71478
0.620955
0.525068
0.426114
0.323629
0.218134
0.0970937
0.0234833
0.00288488
0.000261672
2.29313e-005
2.0086e-006
2.02932e-007
5.87975e-008
4.52662e-008
4.29153e-008
4.63207e-008
4.5682e-008
4.41495e-008
4.46434e-008
4.50314e-008
4.48494e-008
1.51166
1.37292
1.2505
1.14157
1.0416
0.948067
0.858612
0.771137
0.683861
0.595325
0.504411
0.410356
0.312779
0.211623
0.0965407
0.0237483
0.00309481
0.000306398
2.93555e-005
2.83e-006
2.9274e-007
6.42026e-008
4.80871e-008
4.08576e-008
4.39385e-008
4.45652e-008
4.36298e-008
4.37413e-008
4.44795e-008
1.53015
1.3956
1.27648
1.17002
1.07424
0.984661
0.899616
0.817112
0.735433
0.653142
0.569082
0.482376
0.392417
0.298821
0.201322
0.0897581
0.0219057
0.00299204
0.000324213
3.41624e-005
3.62189e-006
4.00277e-007
7.83514e-008
5.10302e-008
4.18789e-008
4.20839e-008
4.40075e-008
4.31687e-008
4.24565e-008
1.54156
1.41067
1.29587
1.19261
1.09921
1.01411
0.933095
0.855032
0.778278
0.701434
0.623346
0.5431
0.460005
0.373582
0.283536
0.189957
0.0797905
0.0190304
0.00271688
0.000322427
3.73841e-005
4.35392e-006
5.26438e-007
9.741e-008
5.06122e-008
4.36272e-008
4.23067e-008
4.43213e-008
4.39317e-008
1.54732
1.42016
1.3088
1.20989
1.11951
1.03685
0.960243
0.886285
0.813993
0.742015
0.669218
0.594682
0.517689
0.437711
0.354398
0.267619
0.1778
0.0714872
0.0166267
0.00247819
0.000319157
4.03587e-005
5.12527e-006
6.74927e-007
1.18318e-007
5.13872e-008
4.48683e-008
4.17569e-008
4.33582e-008
1.54854
1.42518
1.3173
1.22169
1.13565
1.05571
0.98185
0.912037
0.843863
0.776343
0.708365
0.639012
0.567552
0.493423
0.416227
0.335718
0.251792
0.164219
0.0634451
0.0145386
0.00228075
0.000318833
4.39141e-005
6.07172e-006
8.62777e-007
1.48118e-007
5.64268e-008
4.77049e-008
4.17702e-008
1.54606
1.42657
1.32221
1.22991
1.14709
1.07153
1.00043
0.933753
0.869208
0.805613
0.741904
0.677176
0.610689
0.54186
0.47025
0.395546
0.317529
0.235976
0.150408
0.0560405
0.0128195
0.00213485
0.000324096
4.85123e-005
7.2763e-006
1.11214e-006
1.94027e-007
6.60576e-008
4.76672e-008
1.54055
1.42499
1.3242
1.23523
1.15561
1.08321
1.01595
0.95229
0.891747
0.831771
0.771919
0.711323
0.649264
0.585159
0.518555
0.449107
0.376556
0.300682
0.221192
0.137344
0.0496118
0.0114552
0.00202927
0.000333314
5.40022e-005
8.75221e-006
1.43707e-006
2.61649e-007
7.66138e-008
1.53253
1.42097
1.32378
1.23815
1.16167
1.09231
1.02828
0.967429
0.909448
0.853319
0.797298
0.740728
0.682912
0.623277
0.561368
0.496829
0.429388
0.358825
0.284921
0.207328
0.125157
0.0441627
0.0103993
0.00196498
0.000348543
6.10496e-005
1.06855e-005
1.88969e-006
3.51472e-007
1.52247
1.41496
1.32142
1.23914
1.16583
1.09954
1.03859
0.981538
0.926575
0.873483
0.820709
0.767633
0.713565
0.657933
0.600273
0.540219
0.47748
0.41183
0.34307
0.270977
0.195157
0.114534
0.0398458
0.00966867
0.00195088
0.00037264
7.01477e-005
1.31717e-005
2.44059e-006
1.51073
1.40732
1.31746
1.23853
1.16833
1.105
1.0469
0.992579
0.940527
0.890146
0.840836
0.7912
0.740741
0.688911
0.635258
0.579416
0.521091
0.46005
0.396102
0.329064
0.258704
0.184579
0.105542
0.0365542
0.00920111
0.00197952
0.000405128
8.167e-005
1.60411e-005
1.49763
1.39837
1.31221
1.23665
1.16958
1.10922
1.05402
1.00264
0.953959
0.906593
0.860092
0.813448
0.766171
0.717725
0.667667
0.615631
0.561319
0.504493
0.444956
0.382542
0.317077
0.248329
0.175868
0.0974995
0.0339416
0.00890495
0.00203879
0.000445887
9.38366e-005
1.48344
1.38836
1.30593
1.23373
1.16977
1.1123
1.05985
1.01109
0.964866
0.920004
0.876167
0.832695
0.788679
0.743614
0.697075
0.648712
0.598235
0.545405
0.49003
0.431947
0.371009
0.307059
0.239889
0.169434
0.0899469
0.031719
0.00870013
0.00211653
0.000482207
1.46838
1.37751
1.29882
1.23
1.16912
1.11454
1.06483
1.01876
0.975269
0.933484
0.892397
0.851698
0.810334
0.76813
0.724662
0.679573
0.632567
0.583397
0.531861
0.47779
0.421042
0.361481
0.298968
0.233396
0.165212
0.0841037
0.0301015
0.00862347
0.00217072
1.45264
1.36599
1.29107
1.22562
1.16783
1.11611
1.06911
1.02565
0.984738
0.945507
0.906975
0.868658
0.830175
0.790894
0.750435
0.708473
0.66473
0.618973
0.571003
0.520653
0.467781
0.412261
0.353978
0.292836
0.22889
0.162601
0.0800632
0.0291893
0.00852425
1.43634
1.35394
1.28278
1.22072
1.16599
1.11711
1.07275
1.0318
0.993281
0.956314
0.920106
0.884357
0.848527
0.812009
0.774425
0.735454
0.694826
0.652311
0.607714
0.560869
0.511634
0.459887
0.405521
0.348445
0.288624
0.226154
0.161401
0.0780476
0.0284645
1.4196
1.34146
1.27407
1.21539
1.16373
1.11766
1.07594
1.0375
1.00142
0.966927
0.933389
0.900053
0.866707
0.832568
0.797518
0.761237
0.723449
0.68392
0.64245
0.598868
0.553026
0.504799
0.454077
0.400769
0.34481
0.286187
0.224982
0.161701
0.0769151
1.40247
1.32859
1.26499
1.20969
1.16109
1.11783
1.07872
1.04276
1.00908
0.976932
0.945709
0.914698
0.883541
0.85195
0.819474
0.785831
0.750771
0.714075
0.675551
0.635031
0.592367
0.54743
0.50011
0.450309
0.397951
0.342987
0.285428
0.22526
0.161923
1.38498
1.31537
1.25557
1.20365
1.15811
1.11764
1.08113
1.04762
1.01626
0.986369
0.957313
0.928538
0.899666
0.870467
0.840457
0.809356
0.776922
0.742941
0.707227
0.669614
0.629956
0.588122
0.543997
0.497483
0.448493
0.396964
0.342862
0.286148
0.226877
1.36714
1.30181
1.24579
1.19725
1.15477
1.1171
1.08318
1.0521
1.02306
0.995404
0.96854
0.941957
0.915439
0.88851
0.860816
0.832117
0.802173
0.770773
0.737731
0.702881
0.666073
0.627175
0.586069
0.542649
0.496824
0.448518
0.397674
0.344245
0.288103
1.34893
1.28785
1.23562
1.19048
1.15106
1.11619
1.08486
1.05621
1.02951
1.00413
0.979542
0.955342
0.930971
0.906314
0.880801
0.854372
0.82679
0.797842
0.76734
0.735115
0.701015
0.664902
0.626653
0.586156
0.543313
0.498038
0.450261
0.399915
0.346882
1.33028
1.27346
1.22501
1.18326
1.1469
1.11484
1.08611
1.05991
1.03553
1.0124
0.990021
0.967968
0.945772
0.923163
0.900008
0.875931
0.850727
0.824203
0.796182
0.766501
0.735008
0.701565
0.666043
0.628327
0.58831
0.545899
0.501012
0.453572
0.403482
1.31113
1.25854
1.21387
1.17551
1.14222
1.11297
1.08685
1.06311
1.04107
1.0202
1
0.98008
0.960049
0.939662
0.91876
0.896984
0.874124
0.84999
0.824408
0.797215
0.76826
0.737402
0.704509
0.669459
0.63214
0.592452
0.550301
0.505604
0.458273
1.2914
1.243
1.2021
1.16711
1.1369
1.11048
1.08699
1.06572
1.04605
1.02747
1.0095
0.991772
0.973896
0.955868
0.937237
0.917727
0.897176
0.875397
0.852217
0.82747
0.801002
0.772667
0.742328
0.709857
0.675133
0.638048
0.5985
0.556399
0.511656
1.27098
1.22675
1.18959
1.15797
1.13083
1.10725
1.08641
1.06765
1.05039
1.03414
1.01849
1.00309
0.987681
0.971825
0.955514
0.938215
0.919958
0.900533
0.879754
0.857449
0.833454
0.807617
0.779793
0.749843
0.71764
0.683065
0.646008
0.60637
0.564061
1.24983
1.20971
1.17625
1.14799
1.12392
1.10317
1.08501
1.06878
1.05397
1.0401
1.02679
1.01372
1.00061
0.98704
0.972901
0.958107
0.942321
0.925368
0.907077
0.887277
0.865802
0.842493
0.817195
0.789759
0.760045
0.727924
0.693274
0.655988
0.61597
1.22791
1.19184
1.16204
1.1371
1.11608
1.09818
1.0827
1.06904
1.0567
1.04525
1.03432
1.0236
1.01278
1.00156
0.989922
0.977645
0.964393
0.949998
0.934287
0.917087
0.898224
0.877528
0.854827
0.829959
0.802765
0.773097
0.74082
0.705811
0.667967
1.2053
1.17319
1.14699
1.12534
1.10735
1.09229
1.07949
1.06841
1.05857
1.04958
1.04108
1.03279
1.02444
1.01577
1.00669
0.99699
0.986258
0.97447
0.96143
0.946947
0.930828
0.912884
0.892922
0.870753
0.846191
0.819062
0.789201
0.756465
0.720733
1.18222
1.15397
1.1313
1.11288
1.0979
1.08565
1.07554
1.06703
1.05971
1.05318
1.04714
1.04132
1.03549
1.02948
1.02283
1.01567
1.0076
0.998557
0.98833
0.976719
0.96352
0.948522
0.931508
0.912256
0.890542
0.866148
0.83887
0.808521
0.774947
1.15905
1.13455
1.11533
1.10009
1.08807
1.07862
1.07117
1.06523
1.06039
1.05631
1.05269
1.04928
1.04586
1.04221
1.03807
1.03337
1.02814
1.02193
1.01462
1.00601
0.995891
0.984046
0.970227
0.954174
0.935617
0.914279
0.889891
0.862202
0.830998
1.13642
1.11554
1.09968
1.08757
1.07848
1.07179
1.06695
1.06352
1.0611
1.05936
1.05803
1.05688
1.05571
1.05434
1.05256
1.05039
1.04762
1.04408
1.03959
1.03398
1.02702
1.01847
1.00807
0.995517
0.980483
0.962618
0.941568
0.916986
0.888563
1.11518
1.09778
1.0852
1.07614
1.06992
1.06592
1.06362
1.06256
1.06238
1.06275
1.06343
1.06421
1.06494
1.06549
1.0658
1.06555
1.06489
1.06371
1.06182
1.05904
1.05515
1.04993
1.04309
1.03429
1.02315
1.00923
0.992068
0.971198
0.946169
1.09636
1.08229
1.07287
1.06677
1.06332
1.06188
1.06192
1.06297
1.06466
1.0667
1.06884
1.07093
1.07287
1.07458
1.07603
1.07711
1.07791
1.07869
1.07895
1.07861
1.07752
1.07547
1.07217
1.06728
1.06034
1.05083
1.03819
1.02177
1.00093
1.08105
1.07011
1.06369
1.06041
1.05953
1.06038
1.06238
1.06504
1.06797
1.07087
1.07357
1.07597
1.07803
1.07977
1.08123
1.08241
1.08428
1.08603
1.08762
1.08904
1.0902
1.09096
1.09104
1.09006
1.08755
1.08288
1.07539
1.06427
1.04859
1.07018
1.06214
1.05849
1.05774
1.05907
1.06172
1.06502
1.06844
1.07157
1.07415
1.07606
1.07728
1.07795
1.07813
1.07854
1.07944
1.08051
1.08179
1.08353
1.08578
1.08842
1.09144
1.09455
1.09738
1.09937
1.09983
1.09815
1.09329
1.08388
1.06435
1.05889
1.05763
1.05895
1.06188
1.06554
1.06915
1.0721
1.07399
1.07458
1.07393
1.07206
1.06968
1.06767
1.06538
1.06349
1.06208
1.06143
1.06207
1.06411
1.0672
1.07181
1.07747
1.08383
1.09022
1.09571
1.10054
1.10308
1.10101
1.06358
1.06028
1.06089
1.06359
1.06727
1.07085
1.07342
1.07432
1.07317
1.06979
1.06463
1.05885
1.05182
1.04415
1.0369
1.03042
1.025
1.02134
1.01963
1.0201
1.02294
1.02807
1.03534
1.0445
1.05508
1.06659
1.07827
1.08664
1.09345
1.06727
1.06562
1.0674
1.07064
1.07399
1.07616
1.07615
1.07323
1.06722
1.05863
1.04749
1.03431
1.01997
1.00535
0.991504
0.979137
0.968662
0.960617
0.955263
0.95312
0.954218
0.958627
0.966334
0.977207
0.99096
1.00725
1.02576
1.04373
1.05688
1.07426
1.07371
1.0759
1.07872
1.08057
1.07997
1.07589
1.0675
1.05566
1.03931
1.01979
0.998219
0.975708
0.953357
0.932096
0.912801
0.896093
0.882478
0.872344
0.86609
0.863894
0.865924
0.872297
0.883038
0.898084
0.917409
0.941024
0.967683
0.99132
1.08314
1.08312
1.08499
1.08647
1.08578
1.0812
1.07215
1.05738
1.03738
1.01268
0.984664
0.954496
0.923563
0.893125
0.864232
0.837759
0.814355
0.794515
0.778617
0.766998
0.759908
0.757597
0.760316
0.768221
0.781485
0.800589
0.826231
0.857974
0.892141
1.09252
1.09256
1.09347
1.0929
1.08893
1.07981
1.06467
1.0428
1.01501
0.982249
0.946038
0.90791
0.869367
0.831719
0.796014
0.763055
0.733418
0.707508
0.685623
0.668011
0.654898
0.646549
0.643287
0.645227
0.652666
0.666676
0.688843
0.719222
0.759262
1.1013
1.10105
1.1006
1.09762
1.08996
1.076
1.05475
1.02627
0.991429
0.951626
0.908613
0.864111
0.819673
0.77657
0.735756
0.697902
0.663441
0.632635
0.605642
0.58257
0.563527
0.548676
0.538269
0.531995
0.530471
0.53528
0.547849
0.568955
0.604027
1.10881
1.10807
1.10614
1.10061
1.08937
1.07079
1.04426
1.01015
0.969655
0.924515
0.876654
0.827877
0.779714
0.733336
0.689562
0.648906
0.611649
0.577902
0.547674
0.520923
0.497596
0.477683
0.461218
0.448133
0.438026
0.43256
0.432586
0.438708
0.459932
1.11477
1.11348
1.11013
1.10228
1.0879
1.06555
1.03487
0.996577
0.952185
0.903652
0.853008
0.802064
0.752273
0.704684
0.659981
0.618542
0.580525
0.545933
0.514672
0.486598
0.461544
0.439363
0.419874
0.403424
0.388816
0.376692
0.367053
0.357147
0.3613
1.11918
1.1174
1.11289
1.10323
1.08648
1.06142
1.02796
0.987086
0.940545
0.890429
0.838798
0.787415
0.737636
0.690396
0.646268
0.605539
0.568292
0.534475
0.503954
0.476553
0.452069
0.430322
0.411054
0.394426
0.379825
0.368348
0.356311
0.341606
0.330114
1.12222
1.1201
1.11483
1.104
1.08582
1.05925
1.02439
0.982434
0.935255
0.885
0.833704
0.783061
0.734338
0.688384
0.6457
0.606524
0.570908
0.538789
0.510038
0.484494
0.46198
0.442354
0.425388
0.411258
0.399006
0.391709
0.382734
0.379791
0.350733
1.12413
1.12187
1.11631
1.10506
1.08644
1.05951
1.02451
0.982713
0.936051
0.886658
0.836522
0.787276
0.740125
0.695869
0.65498
0.61768
0.584027
0.553972
0.527414
0.504232
0.484298
0.467538
0.453811
0.443414
0.435423
0.433484
0.429597
0.438976
0.394743
1.12518
1.12298
1.11766
1.10673
1.08861
1.06237
1.02828
0.987607
0.942256
0.894327
0.845769
0.798181
0.752746
0.71026
0.671196
0.635794
0.604134
0.576201
0.55193
0.531247
0.514085
0.500443
0.490288
0.48405
0.481026
0.485226
0.488328
0.505961
0.461944
5.80607e-005
5.80604e-005
5.80599e-005
5.80596e-005
5.80597e-005
5.80601e-005
5.80609e-005
5.80612e-005
5.80608e-005
5.806e-005
5.806e-005
5.80607e-005
5.8061e-005
5.80609e-005
5.80611e-005
5.80615e-005
5.8061e-005
5.80604e-005
5.806e-005
5.80613e-005
5.80622e-005
5.80624e-005
5.80608e-005
5.80598e-005
5.80599e-005
5.8061e-005
5.80611e-005
5.80612e-005
5.8062e-005
5.80626e-005
5.80614e-005
5.80599e-005
5.80591e-005
5.80602e-005
5.80608e-005
5.80608e-005
5.80608e-005
5.80608e-005
5.80608e-005
5.80608e-005
5.80608e-005
5.80608e-005
5.80608e-005
5.80609e-005
5.80609e-005
5.80609e-005
5.80609e-005
5.80609e-005
5.80609e-005
5.80609e-005
5.8061e-005
5.8061e-005
5.8061e-005
5.8061e-005
5.8061e-005
5.80611e-005
5.80611e-005
5.80611e-005
5.80611e-005
5.80611e-005
5.80612e-005
5.80612e-005
5.80612e-005
5.80612e-005
5.80612e-005
5.80613e-005
5.80613e-005
5.80613e-005
5.80613e-005
5.80613e-005
5.80614e-005
5.80613e-005
5.80614e-005
5.80614e-005
5.80614e-005
5.80614e-005
5.80614e-005
5.80615e-005
5.80615e-005
5.80617e-005
5.80617e-005
5.80617e-005
5.80617e-005
5.80614e-005
5.80616e-005
5.80616e-005
5.80619e-005
5.80615e-005
5.80615e-005
5.80617e-005
5.80618e-005
5.80617e-005
5.80617e-005
5.80617e-005
5.80618e-005
5.80619e-005
5.80619e-005
5.80619e-005
5.80619e-005
5.80619e-005
5.80619e-005
5.80619e-005
5.80619e-005
5.80619e-005
5.80619e-005
5.80619e-005
5.80619e-005
5.80619e-005
5.80619e-005
5.80619e-005
5.80619e-005
5.80619e-005
5.80619e-005
5.80619e-005
5.80619e-005
5.80619e-005
5.8062e-005
5.8062e-005
5.8062e-005
5.8062e-005
5.8062e-005
5.8062e-005
5.8062e-005
5.8062e-005
5.8062e-005
5.8062e-005
5.8062e-005
5.8062e-005
5.8062e-005
5.8062e-005
5.80621e-005
5.80623e-005
5.80622e-005
5.80625e-005
5.80623e-005
5.80627e-005
5.80625e-005
5.80634e-005
5.9321e-005
4.60825e-006
4.60744e-006
4.60643e-006
4.60601e-006
4.60627e-006
4.60754e-006
4.60896e-006
4.60932e-006
4.60809e-006
4.60674e-006
4.60722e-006
4.60877e-006
4.60911e-006
4.60862e-006
4.60915e-006
4.6098e-006
4.60879e-006
4.60752e-006
4.60689e-006
4.60989e-006
4.61165e-006
4.61177e-006
4.60835e-006
4.60628e-006
4.60697e-006
4.60914e-006
4.60918e-006
4.60974e-006
4.61136e-006
4.61244e-006
4.60969e-006
4.60646e-006
4.60512e-006
4.60765e-006
4.60888e-006
4.60888e-006
4.60885e-006
4.60885e-006
4.60885e-006
4.60887e-006
4.60889e-006
4.60891e-006
4.60894e-006
4.60898e-006
4.60902e-006
4.60905e-006
4.60908e-006
4.60912e-006
4.60912e-006
4.6092e-006
4.60927e-006
4.60931e-006
4.60936e-006
4.60941e-006
4.60946e-006
4.6095e-006
4.60956e-006
4.6096e-006
4.60965e-006
4.60969e-006
4.60974e-006
4.60979e-006
4.60982e-006
4.60989e-006
4.60992e-006
4.60999e-006
4.61001e-006
4.61011e-006
4.61011e-006
4.61016e-006
4.61023e-006
4.61022e-006
4.61037e-006
4.61033e-006
4.61043e-006
4.61039e-006
4.61047e-006
4.61054e-006
4.61063e-006
4.61108e-006
4.61099e-006
4.61103e-006
4.61102e-006
4.61045e-006
4.61077e-006
4.61087e-006
4.61135e-006
4.61063e-006
4.61077e-006
4.61111e-006
4.61121e-006
4.61106e-006
4.61102e-006
4.61111e-006
4.61129e-006
4.61143e-006
4.61144e-006
4.61144e-006
4.61144e-006
4.61145e-006
4.61145e-006
4.61146e-006
4.61147e-006
4.61147e-006
4.61147e-006
4.61147e-006
4.61148e-006
4.61149e-006
4.6115e-006
4.61151e-006
4.61152e-006
4.61153e-006
4.61154e-006
4.61155e-006
4.61155e-006
4.61157e-006
4.61157e-006
4.61157e-006
4.61157e-006
4.61156e-006
4.61154e-006
4.61152e-006
4.6115e-006
4.61149e-006
4.61152e-006
4.61154e-006
4.61154e-006
4.61155e-006
4.61156e-006
4.61164e-006
4.61173e-006
4.61215e-006
4.61196e-006
4.61266e-006
4.61223e-006
4.61301e-006
4.61327e-006
4.61786e-006
5.10784e-006
7.23952e-007
7.23774e-007
7.23722e-007
7.23791e-007
7.24162e-007
7.2459e-007
7.24583e-007
7.24127e-007
7.23717e-007
7.23913e-007
7.24549e-007
7.24761e-007
7.24377e-007
7.24146e-007
7.24406e-007
7.24481e-007
7.24186e-007
7.2394e-007
7.24191e-007
7.2494e-007
7.25062e-007
7.24653e-007
7.24063e-007
7.23904e-007
7.2447e-007
7.24684e-007
7.24714e-007
7.25019e-007
7.25353e-007
7.25083e-007
7.24408e-007
7.24027e-007
7.24288e-007
7.24965e-007
7.24969e-007
7.24974e-007
7.24991e-007
7.25006e-007
7.25023e-007
7.25044e-007
7.25066e-007
7.2509e-007
7.25118e-007
7.25149e-007
7.2518e-007
7.25204e-007
7.25229e-007
7.2525e-007
7.25302e-007
7.25318e-007
7.25323e-007
7.2534e-007
7.25372e-007
7.25405e-007
7.25436e-007
7.25464e-007
7.255e-007
7.25525e-007
7.25559e-007
7.25584e-007
7.25613e-007
7.25645e-007
7.25666e-007
7.25702e-007
7.25722e-007
7.25757e-007
7.25772e-007
7.25815e-007
7.25819e-007
7.25855e-007
7.25889e-007
7.25881e-007
7.2595e-007
7.25941e-007
7.25987e-007
7.25989e-007
7.26061e-007
7.26099e-007
7.26106e-007
7.26171e-007
7.26172e-007
7.26266e-007
7.26217e-007
7.26163e-007
7.26148e-007
7.26213e-007
7.26177e-007
7.26093e-007
7.26263e-007
7.26345e-007
7.26293e-007
7.2628e-007
7.26316e-007
7.26346e-007
7.26359e-007
7.2634e-007
7.26351e-007
7.26361e-007
7.26371e-007
7.26384e-007
7.26389e-007
7.26393e-007
7.26393e-007
7.26395e-007
7.26394e-007
7.2639e-007
7.26388e-007
7.26386e-007
7.26386e-007
7.26381e-007
7.26382e-007
7.26374e-007
7.26371e-007
7.26357e-007
7.26355e-007
7.2633e-007
7.26326e-007
7.26294e-007
7.26278e-007
7.26246e-007
7.26209e-007
7.26171e-007
7.26132e-007
7.26104e-007
7.26089e-007
7.26078e-007
7.26064e-007
7.26025e-007
7.26049e-007
7.26035e-007
7.25941e-007
7.26086e-007
7.26139e-007
7.2609e-007
7.25815e-007
7.30826e-007
7.13906e-007
6.4148e-007
1.27709e-006
2.12911e-007
2.12916e-007
2.12929e-007
2.13027e-007
2.13166e-007
2.13142e-007
2.12986e-007
2.12916e-007
2.13043e-007
2.13281e-007
2.13332e-007
2.13175e-007
2.13037e-007
2.13182e-007
2.13378e-007
2.13398e-007
2.13236e-007
2.13109e-007
2.13238e-007
2.13383e-007
2.13326e-007
2.13121e-007
2.13051e-007
2.13147e-007
2.13395e-007
2.13442e-007
2.13467e-007
2.13544e-007
2.13538e-007
2.13364e-007
2.1325e-007
2.13256e-007
2.13454e-007
2.13587e-007
2.13596e-007
2.13616e-007
2.13639e-007
2.13658e-007
2.13677e-007
2.13698e-007
2.13719e-007
2.1374e-007
2.13765e-007
2.1379e-007
2.13814e-007
2.13833e-007
2.13853e-007
2.13868e-007
2.13877e-007
2.13894e-007
2.13925e-007
2.13953e-007
2.13972e-007
2.13991e-007
2.14012e-007
2.14032e-007
2.14056e-007
2.14075e-007
2.14097e-007
2.14116e-007
2.14137e-007
2.14158e-007
2.14175e-007
2.14198e-007
2.14215e-007
2.14237e-007
2.14253e-007
2.14278e-007
2.1429e-007
2.14313e-007
2.14335e-007
2.14344e-007
2.14384e-007
2.14389e-007
2.14409e-007
2.14427e-007
2.14438e-007
2.14468e-007
2.145e-007
2.14507e-007
2.14535e-007
2.14567e-007
2.14572e-007
2.14561e-007
2.14566e-007
2.14578e-007
2.14563e-007
2.14541e-007
2.14566e-007
2.14569e-007
2.1458e-007
2.14586e-007
2.14581e-007
2.1458e-007
2.14586e-007
2.14608e-007
2.14626e-007
2.14654e-007
2.14664e-007
2.14672e-007
2.14678e-007
2.14682e-007
2.14684e-007
2.14687e-007
2.14685e-007
2.14686e-007
2.14683e-007
2.14681e-007
2.14679e-007
2.14676e-007
2.14672e-007
2.14665e-007
2.1466e-007
2.14648e-007
2.14641e-007
2.14626e-007
2.14619e-007
2.14601e-007
2.14586e-007
2.14565e-007
2.14541e-007
2.14512e-007
2.14483e-007
2.14454e-007
2.14427e-007
2.14384e-007
2.14354e-007
2.14323e-007
2.14294e-007
2.14271e-007
2.14264e-007
2.1433e-007
2.13704e-007
2.18098e-007
2.17127e-007
1.66017e-007
3.62924e-007
7.32255e-005
0.00640237
1.03715e-007
1.03721e-007
1.03753e-007
1.03811e-007
1.03824e-007
1.03774e-007
1.03756e-007
1.03833e-007
1.03942e-007
1.03969e-007
1.03899e-007
1.03838e-007
1.03883e-007
1.04036e-007
1.04087e-007
1.04036e-007
1.03918e-007
1.03905e-007
1.03954e-007
1.0398e-007
1.03949e-007
1.0389e-007
1.03916e-007
1.03994e-007
1.04071e-007
1.04107e-007
1.04144e-007
1.04166e-007
1.04126e-007
1.04068e-007
1.04076e-007
1.04119e-007
1.04223e-007
1.0425e-007
1.04272e-007
1.04294e-007
1.04314e-007
1.0433e-007
1.04346e-007
1.04363e-007
1.04381e-007
1.044e-007
1.04421e-007
1.04443e-007
1.04463e-007
1.0448e-007
1.04495e-007
1.04511e-007
1.04537e-007
1.0456e-007
1.04572e-007
1.04577e-007
1.04593e-007
1.04616e-007
1.04636e-007
1.04654e-007
1.04673e-007
1.0469e-007
1.04709e-007
1.04726e-007
1.04744e-007
1.04762e-007
1.04778e-007
1.04797e-007
1.04813e-007
1.0483e-007
1.04846e-007
1.04864e-007
1.04877e-007
1.04896e-007
1.04909e-007
1.04925e-007
1.04945e-007
1.04956e-007
1.04971e-007
1.04984e-007
1.04983e-007
1.04996e-007
1.05016e-007
1.05015e-007
1.05037e-007
1.05049e-007
1.05063e-007
1.05066e-007
1.05084e-007
1.05083e-007
1.05072e-007
1.0508e-007
1.05096e-007
1.05119e-007
1.05141e-007
1.05142e-007
1.05144e-007
1.05155e-007
1.05174e-007
1.05185e-007
1.05192e-007
1.05189e-007
1.05192e-007
1.05196e-007
1.05197e-007
1.05201e-007
1.05202e-007
1.05205e-007
1.05205e-007
1.05206e-007
1.05205e-007
1.05202e-007
1.05197e-007
1.05194e-007
1.05188e-007
1.0518e-007
1.0517e-007
1.05157e-007
1.05146e-007
1.05132e-007
1.05122e-007
1.05107e-007
1.05094e-007
1.05077e-007
1.0506e-007
1.05039e-007
1.05019e-007
1.04995e-007
1.04982e-007
1.05016e-007
1.05002e-007
1.04804e-007
1.04841e-007
1.05059e-007
1.04711e-007
1.04226e-007
1.08625e-007
8.67384e-008
9.00424e-008
7.31592e-007
9.00418e-005
0.00626085
0.0709029
7.06247e-008
7.06271e-008
7.06527e-008
7.06814e-008
7.0676e-008
7.06643e-008
7.06919e-008
7.07657e-008
7.07953e-008
7.07692e-008
7.07238e-008
7.07326e-008
7.08124e-008
7.0891e-008
7.0891e-008
7.08232e-008
7.07666e-008
7.07852e-008
7.08373e-008
7.08583e-008
7.0842e-008
7.08301e-008
7.08537e-008
7.09171e-008
7.09605e-008
7.099e-008
7.10134e-008
7.10176e-008
7.0994e-008
7.09828e-008
7.09941e-008
7.10383e-008
7.10974e-008
7.11177e-008
7.11454e-008
7.1163e-008
7.11794e-008
7.11944e-008
7.12101e-008
7.12263e-008
7.12433e-008
7.12622e-008
7.1282e-008
7.12995e-008
7.13151e-008
7.13334e-008
7.1355e-008
7.13691e-008
7.13796e-008
7.13853e-008
7.14019e-008
7.14311e-008
7.14611e-008
7.14776e-008
7.1491e-008
7.15064e-008
7.1523e-008
7.15396e-008
7.15567e-008
7.1573e-008
7.15903e-008
7.16059e-008
7.16233e-008
7.16383e-008
7.16551e-008
7.16695e-008
7.16868e-008
7.16994e-008
7.17148e-008
7.17305e-008
7.17392e-008
7.17606e-008
7.17693e-008
7.17865e-008
7.17945e-008
7.1813e-008
7.18157e-008
7.18255e-008
7.18455e-008
7.18433e-008
7.18563e-008
7.18643e-008
7.18804e-008
7.18994e-008
7.19202e-008
7.1919e-008
7.19037e-008
7.19069e-008
7.19205e-008
7.19314e-008
7.19464e-008
7.1954e-008
7.19714e-008
7.1988e-008
7.19939e-008
7.19926e-008
7.1992e-008
7.19947e-008
7.19989e-008
7.20129e-008
7.20128e-008
7.20189e-008
7.20182e-008
7.20196e-008
7.20237e-008
7.20218e-008
7.20276e-008
7.20192e-008
7.20221e-008
7.20099e-008
7.20116e-008
7.19966e-008
7.19954e-008
7.19758e-008
7.19757e-008
7.19586e-008
7.19562e-008
7.1939e-008
7.19321e-008
7.19184e-008
7.19057e-008
7.18836e-008
7.18705e-008
7.18419e-008
7.17807e-008
7.15886e-008
7.15784e-008
7.19921e-008
7.16024e-008
7.12983e-008
7.17258e-008
7.35787e-008
6.00818e-008
1.28012e-007
3.10543e-006
0.000222509
0.00856569
0.0818581
0.275209
5.78417e-008
5.78871e-008
5.79211e-008
5.79229e-008
5.79196e-008
5.79292e-008
5.79593e-008
5.79802e-008
5.7984e-008
5.79864e-008
5.79977e-008
5.80216e-008
5.80545e-008
5.80685e-008
5.80619e-008
5.80428e-008
5.80574e-008
5.80726e-008
5.80866e-008
5.81039e-008
5.81231e-008
5.81542e-008
5.81719e-008
5.81836e-008
5.81973e-008
5.82245e-008
5.82546e-008
5.82727e-008
5.82744e-008
5.82774e-008
5.82821e-008
5.83086e-008
5.83386e-008
5.837e-008
5.83969e-008
5.84157e-008
5.84342e-008
5.84519e-008
5.84678e-008
5.84846e-008
5.85027e-008
5.85205e-008
5.85378e-008
5.85574e-008
5.85783e-008
5.85971e-008
5.86072e-008
5.86118e-008
5.86257e-008
5.86545e-008
5.86831e-008
5.86993e-008
5.87033e-008
5.87142e-008
5.87345e-008
5.87568e-008
5.87741e-008
5.87928e-008
5.88088e-008
5.88264e-008
5.88423e-008
5.88587e-008
5.8875e-008
5.8891e-008
5.89064e-008
5.89217e-008
5.89386e-008
5.89513e-008
5.89683e-008
5.89823e-008
5.89916e-008
5.90119e-008
5.90184e-008
5.90352e-008
5.90424e-008
5.90573e-008
5.90619e-008
5.90666e-008
5.90834e-008
5.90852e-008
5.90932e-008
5.91048e-008
5.9116e-008
5.91309e-008
5.91488e-008
5.91516e-008
5.91484e-008
5.91564e-008
5.91637e-008
5.91702e-008
5.91872e-008
5.9209e-008
5.92219e-008
5.92252e-008
5.92287e-008
5.92316e-008
5.92385e-008
5.92492e-008
5.92535e-008
5.9257e-008
5.92609e-008
5.92643e-008
5.92667e-008
5.92687e-008
5.92682e-008
5.92673e-008
5.92652e-008
5.9265e-008
5.92627e-008
5.92585e-008
5.92534e-008
5.92444e-008
5.92384e-008
5.92263e-008
5.92209e-008
5.92109e-008
5.92038e-008
5.91917e-008
5.91821e-008
5.91712e-008
5.91589e-008
5.91427e-008
5.91274e-008
5.91189e-008
5.92089e-008
5.94023e-008
5.92876e-008
5.84335e-008
5.931e-008
5.92943e-008
5.94002e-008
5.54632e-008
1.7726e-007
9.6525e-006
0.000525417
0.0149045
0.110417
0.330795
0.589858
5.19671e-008
5.19698e-008
5.20014e-008
5.20302e-008
5.20387e-008
5.20423e-008
5.20697e-008
5.2101e-008
5.21e-008
5.20849e-008
5.20908e-008
5.21278e-008
5.21797e-008
5.22018e-008
5.21883e-008
5.2151e-008
5.2153e-008
5.21955e-008
5.22762e-008
5.23115e-008
5.22905e-008
5.22601e-008
5.22707e-008
5.23291e-008
5.24032e-008
5.24207e-008
5.242e-008
5.2407e-008
5.23926e-008
5.23905e-008
5.24098e-008