/*--------------------------------*- C++ -*----------------------------------*\
| =========                 |                                                 |
| \\      /  F ield         | OpenFOAM: The Open Source CFD Toolbox           |
|  \\    /   O peration     | Version:  5.x                                   |
|   \\  /    A nd           | Web:      www.OpenFOAM.org                      |
|    \\/     M anipulation  |                                                 |
\*---------------------------------------------------------------------------*/
/*   Windows 32 and 64 bit porting by blueCAPE: http://www.bluecape.com.pt   *\
|  Based on Windows porting (2.0.x v4) by Symscape: http://www.symscape.com   |
\*---------------------------------------------------------------------------*/
FoamFile
{
    version     2.0;
    format      ascii;
    class       volScalarField;
    location    "380";
    object      p;
}
// * * * * * * * * * * * * * * * * * * * * * * * * * * * * * * * * * * * * * //

dimensions      [0 2 -2 0 0 0 0];

internalField   nonuniform List<scalar> 
43900
(
0.33736
0.33701
0.336969
0.336841
0.336637
0.336411
0.336207
0.335878
0.335636
0.335311
0.334986
0.334655
0.334307
0.333945
0.333574
0.333193
0.332802
0.332402
0.331996
0.33158
0.331157
0.330729
0.330293
0.329851
0.329404
0.328952
0.328496
0.328035
0.327569
0.33537
0.343457
0.337314
0.340608
0.338093
0.338848
0.337932
0.337752
0.337299
0.336866
0.336466
0.336031
0.335599
0.335173
0.334742
0.334308
0.33387
0.333429
0.332984
0.332534
0.332084
0.331627
0.331166
0.330703
0.330234
0.329762
0.329285
0.328803
0.328318
0.32857
0.350374
0.339271
0.345531
0.340438
0.343019
0.340632
0.340969
0.339879
0.339466
0.338875
0.338311
0.337771
0.337237
0.336709
0.336184
0.335666
0.335151
0.334639
0.334131
0.333619
0.333109
0.332603
0.332091
0.331577
0.331063
0.330544
0.33003
0.329513
0.323771
0.35142
0.344697
0.344489
0.344134
0.343707
0.342615
0.342572
0.341775
0.341398
0.340828
0.340307
0.33978
0.339249
0.338717
0.338185
0.33765
0.337115
0.336581
0.336043
0.335505
0.334969
0.33443
0.333889
0.333351
0.33281
0.332267
0.331719
0.331167
0.326351
0.350193
0.345184
0.344571
0.344548
0.344117
0.34392
0.343687
0.343159
0.342851
0.342418
0.341995
0.34157
0.341128
0.340673
0.340207
0.339733
0.339249
0.338754
0.338252
0.337744
0.337226
0.336702
0.336174
0.335635
0.335089
0.334543
0.333987
0.333428
0.331512
0.349556
0.346531
0.34622
0.346145
0.345734
0.34546
0.345211
0.344992
0.34472
0.344348
0.344004
0.343631
0.343243
0.34284
0.342423
0.34199
0.341544
0.341087
0.340613
0.340128
0.339629
0.339117
0.338591
0.338056
0.337511
0.336952
0.33638
0.335799
0.337657
0.351634
0.349813
0.349276
0.349226
0.349081
0.348746
0.348289
0.347962
0.347726
0.347389
0.347023
0.346651
0.346255
0.345844
0.345422
0.344989
0.344535
0.344064
0.343587
0.343091
0.342581
0.342059
0.341524
0.340976
0.340411
0.339835
0.339252
0.338657
0.3446
0.355782
0.354645
0.354031
0.353849
0.353705
0.353487
0.353131
0.352663
0.352215
0.351873
0.351503
0.351088
0.350662
0.350219
0.349762
0.34929
0.348802
0.348297
0.347773
0.347238
0.346691
0.346124
0.345542
0.344942
0.344334
0.34371
0.343067
0.342412
0.352561
0.361493
0.3608
0.360165
0.359881
0.359668
0.359416
0.359106
0.358711
0.358192
0.357672
0.357253
0.356813
0.35633
0.355831
0.355319
0.35479
0.354235
0.353663
0.353077
0.352469
0.351844
0.351206
0.350543
0.349866
0.349171
0.348458
0.347736
0.347
0.361636
0.368578
0.368172
0.367526
0.367162
0.36688
0.366568
0.366212
0.365811
0.365341
0.364761
0.36414
0.363607
0.363074
0.362505
0.361917
0.361315
0.360689
0.36004
0.359365
0.358676
0.357963
0.357222
0.356473
0.355693
0.354902
0.354103
0.353269
0.352418
0.371114
0.377053
0.37676
0.37609
0.37566
0.375313
0.374941
0.374522
0.37406
0.373549
0.372973
0.3723
0.371562
0.370905
0.37025
0.369573
0.368876
0.368154
0.367402
0.366637
0.365848
0.365025
0.36418
0.36331
0.362431
0.361538
0.360604
0.35966
0.358695
0.381196
0.38663
0.386388
0.385684
0.385197
0.384793
0.384363
0.383883
0.383355
0.382774
0.382136
0.38143
0.380638
0.379777
0.378963
0.378163
0.377356
0.376525
0.375656
0.374762
0.373851
0.37291
0.371942
0.370945
0.369918
0.368872
0.367803
0.366694
0.365582
0.392423
0.397168
0.396956
0.39623
0.395692
0.395233
0.394747
0.39421
0.393619
0.392971
0.39226
0.391482
0.390627
0.389681
0.388662
0.387676
0.386719
0.385752
0.384758
0.383723
0.382649
0.381565
0.380437
0.379276
0.378104
0.376892
0.37565
0.3744
0.3731
0.404405
0.408632
0.408425
0.407673
0.407085
0.40657
0.406027
0.40543
0.404774
0.404055
0.403267
0.402406
0.401465
0.400436
0.399305
0.398106
0.396932
0.39579
0.394616
0.39341
0.39218
0.390913
0.389618
0.388282
0.386904
0.385526
0.384113
0.382645
0.381167
0.417048
0.42091
0.420691
0.419906
0.419265
0.418694
0.418092
0.41743
0.416705
0.41591
0.415039
0.414086
0.413046
0.411916
0.410685
0.409342
0.40793
0.406548
0.405195
0.403793
0.402368
0.40092
0.399422
0.397897
0.396323
0.39471
0.393089
0.391416
0.3897
0.43029
0.433906
0.433665
0.432843
0.432151
0.431523
0.430861
0.430134
0.429338
0.428466
0.42751
0.426463
0.42532
0.424079
0.422734
0.421279
0.419706
0.418064
0.416445
0.414844
0.41319
0.411509
0.409798
0.408025
0.406227
0.404389
0.402503
0.400583
0.398624
0.444044
0.447505
0.447239
0.446377
0.445635
0.444951
0.444229
0.443437
0.442569
0.441617
0.440573
0.439428
0.438178
0.436817
0.435343
0.433752
0.432036
0.430192
0.42828
0.426374
0.42447
0.422508
0.420521
0.418495
0.416405
0.414295
0.412136
0.409944
0.407735
0.4582
0.461583
0.461291
0.460385
0.459592
0.458854
0.458071
0.457212
0.45627
0.455237
0.454102
0.452857
0.451495
0.450011
0.448401
0.446663
0.444791
0.442777
0.440629
0.438404
0.436186
0.433961
0.431679
0.429385
0.427039
0.424633
0.422199
0.419712
0.417193
0.472675
0.476039
0.475724
0.474773
0.473931
0.47314
0.472299
0.471376
0.470362
0.469247
0.468023
0.466679
0.465208
0.463605
0.461864
0.459982
0.457958
0.455786
0.453461
0.450993
0.448453
0.445916
0.443357
0.440732
0.43809
0.435381
0.432592
0.429784
0.426899
0.487348
0.490743
0.490405
0.489409
0.488518
0.487676
0.486776
0.485786
0.484697
0.483501
0.482186
0.480741
0.479158
0.477431
0.475553
0.47352
0.471331
0.468984
0.466474
0.463794
0.460963
0.458054
0.455123
0.452146
0.449101
0.44601
0.442864
0.439653
0.436431
0.502099
0.505571
0.505214
0.504171
0.503232
0.502338
0.501381
0.500327
0.499164
0.497882
0.49647
0.494917
0.493213
0.491352
0.489326
0.487131
0.484763
0.48222
0.479499
0.476597
0.473506
0.470252
0.46691
0.463536
0.460097
0.45662
0.453118
0.449545
0.445926
0.516837
0.520426
0.520052
0.518961
0.517974
0.51703
0.516015
0.514892
0.513651
0.512282
0.510775
0.509114
0.507291
0.505296
0.503123
0.500766
0.498221
0.495485
0.492556
0.489433
0.486112
0.482589
0.478898
0.475105
0.471251
0.467351
0.463385
0.45935
0.455252
0.531449
0.535191
0.534803
0.533665
0.532631
0.531637
0.530565
0.529377
0.528061
0.526606
0.524997
0.523223
0.521274
0.51914
0.516815
0.514291
0.511563
0.50863
0.505487
0.502136
0.498575
0.4948
0.490809
0.486626
0.48233
0.477947
0.473498
0.468979
0.464407
0.545854
0.549781
0.549382
0.548197
0.547117
0.546073
0.544942
0.543684
0.542285
0.540735
0.539021
0.537131
0.535051
0.532773
0.530286
0.527585
0.524665
0.521521
0.518152
0.514557
0.510735
0.506689
0.502415
0.497901
0.493194
0.488343
0.483412
0.478405
0.473326
0.55996
0.564102
0.563694
0.56246
0.561333
0.560238
0.559047
0.557716
0.556236
0.554592
0.552771
0.550757
0.548538
0.546103
0.543445
0.540557
0.537432
0.534067
0.530459
0.526607
0.522511
0.518174
0.5136
0.508785
0.503724
0.498449
0.493022
0.487476
0.481844
0.573701
0.578088
0.577672
0.576389
0.575216
0.574071
0.572818
0.571414
0.569846
0.568101
0.56616
0.564011
0.561642
0.559042
0.556201
0.553112
0.549768
0.546165
0.5423
0.538173
0.533783
0.529134
0.524229
0.519074
0.51367
0.508009
0.502114
0.496039
0.489821
0.587016
0.591672
0.59125
0.589917
0.588699
0.587502
0.586185
0.584703
0.583043
0.581187
0.579122
0.576833
0.574306
0.571528
0.56849
0.565183
0.5616
0.557739
0.553595
0.549168
0.544458
0.539468
0.534203
0.52867
0.522876
0.516825
0.510507
0.503955
0.497189
0.599851
0.604799
0.604371
0.602989
0.601724
0.600475
0.599091
0.597528
0.595769
0.593801
0.591606
0.589167
0.586469
0.5835
0.580247
0.576704
0.572864
0.568722
0.564274
0.559521
0.554463
0.549104
0.543448
0.537503
0.531279
0.524787
0.518031
0.511015
0.503777
0.612165
0.617425
0.616991
0.61556
0.614249
0.612948
0.611497
0.60985
0.60799
0.605903
0.603568
0.600967
0.598085
0.594908
0.591427
0.58763
0.58351
0.579063
0.574284
0.569174
0.563735
0.557969
0.551884
0.545488
0.538792
0.531809
0.524551
0.517025
0.509268
0.623922
0.62951
0.62907
0.627591
0.626237
0.624884
0.623365
0.621632
0.619667
0.617455
0.614973
0.612202
0.609126
0.605731
0.602003
0.597932
0.593509
0.58873
0.58359
0.57809
0.572231
0.566019
0.559461
0.552568
0.545353
0.537831
0.530021
0.521937
0.51358
0.635092
0.641022
0.640576
0.63905
0.637655
0.636251
0.634664
0.632842
0.63077
0.628428
0.625793
0.622845
0.619566
0.615939
0.61195
0.607585
0.602837
0.597698
0.592166
0.58624
0.579922
0.573219
0.56614
0.558697
0.550906
0.542787
0.53436
0.525649
0.516664
0.645656
0.651934
0.651481
0.649911
0.648478
0.647025
0.64537
0.64346
0.641279
0.638804
0.636013
0.632882
0.629391
0.625519
0.621251
0.616574
0.611477
0.605953
0.599997
0.593609
0.58679
0.579549
0.571895
0.563844
0.555414
0.546628
0.537513
0.528098
0.518406
0.655595
0.662226
0.661764
0.660154
0.658688
0.65719
0.655468
0.653473
0.651183
0.648576
0.645626
0.642305
0.638592
0.634464
0.629905
0.624899
0.619432
0.613496
0.607084
0.600195
0.592832
0.585002
0.576718
0.567996
0.558859
0.549333
0.539451
0.529248
0.51876
0.664902
0.671882
0.671409
0.669765
0.668271
0.666731
0.664947
0.662867
0.660471
0.657732
0.65462
0.651107
0.647167
0.642777
0.637916
0.632565
0.626708
0.620333
0.613434
0.606007
0.598054
0.589584
0.58061
0.571152
0.561235
0.550891
0.540159
0.52908
0.517703
0.673569
0.680894
0.680408
0.678734
0.677218
0.675641
0.673799
0.671639
0.669137
0.666267
0.662994
0.659287
0.655117
0.650459
0.645287
0.639577
0.633311
0.626474
0.619056
0.611054
0.602467
0.593304
0.583579
0.573314
0.56254
0.551294
0.539621
0.527573
0.515208
0.681596
0.689257
0.688756
0.68706
0.685529
0.683921
0.682024
0.679787
0.677184
0.674184
0.670752
0.666852
0.662451
0.657519
0.652025
0.645943
0.639251
0.63193
0.623966
0.615352
0.606086
0.596175
0.585635
0.57449
0.562776
0.550535
0.537822
0.5247
0.511239
0.688986
0.696977
0.696457
0.694746
0.693208
0.691574
0.689628
0.687319
0.684619
0.681494
0.677905
0.673813
0.66918
0.663969
0.658147
0.651683
0.644551
0.636724
0.628185
0.618922
0.608931
0.598216
0.586793
0.574688
0.561942
0.548606
0.534745
0.520433
0.50576
0.695742
0.704064
0.703521
0.701802
0.700266
0.698611
0.696621
0.694243
0.691451
0.688205
0.684462
0.680178
0.675312
0.669821
0.663669
0.656817
0.649231
0.640879
0.631738
0.62179
0.611025
0.599447
0.587068
0.573918
0.560041
0.545497
0.530364
0.514735
0.498717
0.701869
0.710535
0.709964
0.708245
0.706716
0.705045
0.703015
0.700574
0.697693
0.694329
0.690434
0.685961
0.680863
0.675094
0.668608
0.661361
0.65331
0.644417
0.634649
0.623982
0.612398
0.599895
0.586484
0.572194
0.557074
0.541195
0.524651
0.507556
0.490044
0.707371
0.716415
0.715807
0.714092
0.712577
0.710895
0.708828
0.706328
0.703362
0.699884
0.695841
0.691183
0.685857
0.679811
0.672991
0.665345
0.656821
0.647374
0.636959
0.62554
0.613092
0.599602
0.585075
0.569541
0.553052
0.535691
0.517572
0.498837
0.479654
0.712253
0.721731
0.721073
0.719365
0.717868
0.716178
0.714077
0.711522
0.708476
0.704887
0.700702
0.695865
0.690316
0.683997
0.676847
0.668805
0.659809
0.649802
0.638725
0.626528
0.613171
0.598631
0.582903
0.566011
0.548011
0.528997
0.509108
0.488522
0.467455
0.716522
0.726514
0.725785
0.724084
0.722609
0.720912
0.718781
0.716173
0.71305
0.709357
0.705036
0.700026
0.694263
0.687682
0.680214
0.671787
0.662329
0.651766
0.640023
0.627032
0.612734
0.597087
0.580073
0.561703
0.542032
0.521168
0.499276
0.476582
0.453367
0.720193
0.730792
0.729964
0.728267
0.726817
0.725115
0.722955
0.720299
0.717105
0.713316
0.708868
0.703698
0.697737
0.690913
0.683149
0.67436
0.664462
0.653363
0.640968
0.627184
0.611928
0.595131
0.576752
0.556783
0.535271
0.512331
0.48816
0.463042
0.437346
0.723294
0.734592
0.733626
0.731932
0.730509
0.728803
0.726618
0.723921
0.720666
0.716792
0.712235
0.706927
0.700795
0.693761
0.685737
0.676627
0.666331
0.654738
0.641725
0.627172
0.610963
0.592996
0.573191
0.551511
0.527981
0.502714
0.475939
0.448013
0.419417
0.725867
0.737929
0.736782
0.735096
0.733703
0.731997
0.729795
0.727068
0.723768
0.719831
0.715191
0.709779
0.703518
0.696322
0.688093
0.678725
0.6681
0.656078
0.642511
0.627246
0.610124
0.590997
0.569736
0.546254
0.520534
0.492671
0.46292
0.431714
0.399686
0.727976
0.740816
0.739449
0.73778
0.736427
0.734728
0.732523
0.729786
0.726466
0.722498
0.717817
0.712351
0.706018
0.698724
0.690368
0.680829
0.669966
0.657613
0.643593
0.627711
0.60976
0.589529
0.566823
0.541481
0.513422
0.482691
0.449551
0.414498
0.37836
0.729696
0.743268
0.741647
0.740021
0.738718
0.737042
0.734856
0.732138
0.728835
0.724883
0.720215
0.714758
0.708428
0.701128
0.692746
0.683144
0.672162
0.659609
0.645273
0.628911
0.610258
0.589031
0.564947
0.537742
0.507229
0.47337
0.436414
0.396862
0.355763
0.731109
0.745305
0.743413
0.741865
0.740629
0.738997
0.736861
0.7342
0.730962
0.727081
0.722494
0.717128
0.710898
0.703698
0.695407
0.685874
0.674914
0.662313
0.647822
0.631151
0.611971
0.589915
0.564592
0.5356
0.502603
0.465398
0.424157
0.379348
0.332335
0.732293
0.746964
0.744797
0.743373
0.742224
0.740661
0.738611
0.736051
0.732929
0.729184
0.724755
0.719569
0.713536
0.706547
0.698467
0.68913
0.678337
0.665848
0.651381
0.6346
0.61511
0.592456
0.566121
0.535531
0.50015
0.459483
0.413547
0.362543
0.308478
0.73331
0.748295
0.745863
0.744609
0.743565
0.7421
0.74017
0.737754
0.734799
0.73125
0.727046
0.722114
0.716357
0.709662
0.701886
0.692856
0.682355
0.670128
0.655862
0.639182
0.619631
0.596662
0.569632
0.537759
0.500264
0.456212
0.405389
0.347178
0.284635
0.7342
0.749357
0.746671
0.745634
0.744705
0.74336
0.741579
0.739339
0.736588
0.733274
0.729333
0.72469
0.719249
0.712892
0.705474
0.696814
0.68669
0.674831
0.660908
0.644512
0.625139
0.602156
0.574802
0.542071
0.502929
0.455822
0.400253
0.33398
0.261415
0.734985
0.75021
0.74728
0.746494
0.745682
0.744471
0.742854
0.740802
0.738266
0.735191
0.731513
0.727158
0.722027
0.716003
0.708938
0.70065
0.690916
0.679461
0.665944
0.649936
0.630901
0.608141
0.580801
0.547654
0.507445
0.457823
0.398035
0.323163
0.239248
0.735678
0.750913
0.747743
0.747229
0.746525
0.745451
0.743996
0.742124
0.739785
0.736924
0.733478
0.72937
0.724501
0.718754
0.711983
0.704006
0.694604
0.683499
0.670349
0.654716
0.636044
0.613586
0.586425
0.553128
0.512298
0.460665
0.397328
0.313615
0.217249
0.736285
0.751516
0.748106
0.747871
0.747258
0.746311
0.744999
0.743281
0.741106
0.738416
0.735148
0.731221
0.726539
0.720985
0.714412
0.706644
0.697461
0.686588
0.673681
0.658296
0.639865
0.6176
0.59054
0.557042
0.515652
0.462097
0.395452
0.302444
0.191719
0.736729
0.751981
0.748332
0.748364
0.747814
0.746972
0.745771
0.744168
0.742109
0.739536
0.736382
0.732566
0.727991
0.722539
0.716066
0.708395
0.699307
0.688526
0.675704
0.660387
0.641993
0.619687
0.592473
0.558479
0.516217
0.460278
0.389731
0.285377
0.155258
0.736757
0.752061
0.748169
0.748427
0.747898
0.747113
0.745965
0.744413
0.742403
0.739876
0.736764
0.732986
0.728444
0.723018
0.716562
0.708899
0.699803
0.688996
0.676121
0.660707
0.642151
0.619565
0.591908
0.557071
0.513543
0.454572
0.379282
0.259196
0.10309
0.73649
0.751802
0.747679
0.748094
0.747541
0.746755
0.745589
0.744009
0.741964
0.739399
0.736249
0.732432
0.727848
0.722376
0.715868
0.708139
0.698962
0.688045
0.675022
0.659402
0.640553
0.61753
0.589239
0.553336
0.508334
0.44609
0.366208
0.227736
0.0392414
0.738559
0.753772
0.749614
0.750159
0.749681
0.748989
0.747909
0.746398
0.744395
0.741841
0.738668
0.7348
0.73014
0.724572
0.71795
0.710092
0.700769
0.689689
0.676475
0.660622
0.64148
0.618057
0.589211
0.552433
0.506206
0.441634
0.359435
0.212995
0.00392024
0.748842
0.76435
0.760692
0.761584
0.761722
0.761775
0.761545
0.760915
0.75975
0.757931
0.75536
0.751948
0.747609
0.742247
0.735739
0.72793
0.718613
0.707515
0.694279
0.678418
0.659297
0.635951
0.607215
0.570753
0.524394
0.461175
0.380256
0.267999
0.191805
0.327015
0.32637
0.325719
0.325062
0.324398
0.323728
0.323053
0.32237
0.321682
0.32099
0.320293
0.319589
0.318879
0.318165
0.317445
0.316719
0.315987
0.315253
0.314516
0.313773
0.313019
0.312259
0.31151
0.310752
0.309995
0.309234
0.308469
0.307698
0.306925
0.306154
0.305383
0.304627
0.303868
0.303096
0.302328
0.301564
0.300802
0.300041
0.299281
0.298523
0.297766
0.297011
0.296257
0.295506
0.294757
0.294011
0.293269
0.292529
0.291795
0.291065
0.290338
0.289616
0.288897
0.288184
0.287476
0.286773
0.286075
0.285383
0.284696
0.284016
0.283341
0.282673
0.282012
0.281357
0.280709
0.280068
0.279435
0.278808
0.27819
0.277579
0.276976
0.276381
0.275795
0.275216
0.274647
0.274085
0.273533
0.27299
0.272455
0.271931
0.271417
0.27091
0.270413
0.269926
0.26945
0.268981
0.268524
0.268077
0.26764
0.267214
0.266795
0.266388
0.265993
0.265608
0.265234
0.26487
0.264517
0.264176
0.263846
0.263528
0.263221
0.262925
0.26264
0.262366
0.262103
0.261852
0.261611
0.261381
0.261162
0.260954
0.260758
0.260572
0.260398
0.260235
0.260082
0.25994
0.259808
0.259686
0.259574
0.259472
0.259378
0.259293
0.259216
0.259147
0.259087
0.259033
0.258988
0.25895
0.258918
0.258896
0.258878
0.258871
0.25887
0.258873
0.258897
0.258912
0.258973
0.258981
0.259137
0.327742
0.327071
0.326394
0.325707
0.325015
0.324316
0.323609
0.322897
0.322181
0.321458
0.320726
0.319991
0.319248
0.318501
0.317752
0.317
0.316248
0.315485
0.314715
0.313947
0.313209
0.312468
0.31169
0.310907
0.310124
0.309349
0.308574
0.307805
0.307061
0.306301
0.305516
0.304718
0.303922
0.303142
0.302359
0.30157
0.300782
0.299997
0.299214
0.298432
0.297653
0.296877
0.296104
0.295333
0.294566
0.293802
0.293041
0.292282
0.29152
0.290756
0.289997
0.289247
0.28851
0.287779
0.287053
0.286331
0.285614
0.284903
0.284197
0.283497
0.282803
0.282115
0.281434
0.28076
0.280093
0.279433
0.278781
0.278136
0.2775
0.276871
0.27625
0.275637
0.275033
0.274438
0.273851
0.273272
0.272695
0.272122
0.271566
0.271023
0.270488
0.26996
0.269443
0.268939
0.268444
0.267961
0.26749
0.267031
0.266583
0.266144
0.265718
0.2653
0.264891
0.264491
0.2641
0.263727
0.263374
0.263035
0.262709
0.262391
0.262084
0.261788
0.261503
0.261229
0.260967
0.260717
0.260479
0.260253
0.260039
0.259837
0.259647
0.259468
0.259301
0.259146
0.259002
0.258869
0.258746
0.258634
0.258531
0.258438
0.258354
0.258279
0.258214
0.258157
0.258109
0.258073
0.25804
0.258019
0.258
0.257984
0.257977
0.257955
0.25797
0.257922
0.25797
0.257899
0.25795
0.257874
0.257836
0.32889
0.328172
0.327446
0.326713
0.325977
0.325233
0.324486
0.323736
0.322976
0.322213
0.321442
0.320691
0.319937
0.319166
0.318387
0.317598
0.316805
0.316024
0.315257
0.314476
0.313651
0.31283
0.312023
0.311247
0.310457
0.309634
0.308824
0.308015
0.307172
0.306333
0.30551
0.30469
0.303876
0.303057
0.302233
0.301419
0.300608
0.299797
0.298984
0.298171
0.297359
0.296548
0.295738
0.294931
0.294126
0.293323
0.292522
0.291726
0.290936
0.29015
0.289369
0.288587
0.287801
0.287017
0.286242
0.285475
0.284714
0.28396
0.283213
0.282473
0.28174
0.281013
0.280295
0.279583
0.278879
0.278183
0.277495
0.276816
0.276145
0.275484
0.274832
0.27419
0.273557
0.272934
0.27232
0.271717
0.271131
0.270558
0.269987
0.269419
0.268859
0.268314
0.26778
0.267248
0.266728
0.26622
0.265718
0.265225
0.264743
0.264275
0.263824
0.263387
0.262964
0.26256
0.26217
0.261793
0.261425
0.261063
0.260716
0.260383
0.260067
0.259765
0.259476
0.259201
0.25894
0.258693
0.258458
0.258237
0.25803
0.257835
0.257652
0.257483
0.257325
0.257181
0.257048
0.256928
0.25682
0.256724
0.256641
0.256571
0.256512
0.256467
0.256434
0.256413
0.256404
0.256404
0.256417
0.25644
0.256482
0.256524
0.256593
0.256642
0.256723
0.256802
0.256831
0.256997
0.256876
0.257261
0.25691
0.330522
0.329779
0.329026
0.328269
0.327509
0.326743
0.325964
0.325179
0.324392
0.32363
0.322866
0.322038
0.321195
0.320366
0.319542
0.318748
0.317935
0.317081
0.316214
0.315341
0.314485
0.313626
0.312757
0.311873
0.310993
0.310127
0.309254
0.308366
0.307474
0.306597
0.305723
0.304845
0.303962
0.303072
0.302184
0.301301
0.300423
0.299546
0.298672
0.297801
0.296931
0.296063
0.295196
0.294331
0.293466
0.292602
0.291739
0.290874
0.290011
0.28915
0.288292
0.287438
0.286596
0.28578
0.284975
0.28417
0.283367
0.282569
0.281775
0.280987
0.280206
0.279431
0.278664
0.277905
0.277154
0.276412
0.275679
0.274955
0.274241
0.273536
0.272842
0.272156
0.271476
0.270805
0.270138
0.269473
0.268821
0.268174
0.267539
0.266921
0.266321
0.265735
0.265161
0.264612
0.264077
0.263557
0.263055
0.262566
0.262092
0.261632
0.261175
0.260732
0.260301
0.259877
0.25948
0.259087
0.258689
0.258304
0.257931
0.257581
0.257246
0.256928
0.256626
0.25634
0.256072
0.255817
0.255576
0.255349
0.255135
0.254936
0.254754
0.254584
0.25443
0.254292
0.254172
0.254067
0.253981
0.253912
0.253862
0.253828
0.253815
0.253819
0.253843
0.253887
0.253949
0.254032
0.254131
0.254246
0.254388
0.254532
0.254696
0.254984
0.254961
0.255625
0.255006
0.256587
0.254979
0.257849
0.254574
0.33276
0.331976
0.331188
0.330394
0.329583
0.328761
0.32794
0.327107
0.326256
0.325367
0.324474
0.323604
0.322756
0.321889
0.320987
0.320054
0.319125
0.318222
0.317317
0.316401
0.315471
0.314535
0.313603
0.312667
0.311724
0.310771
0.309801
0.308838
0.3079
0.306958
0.305993
0.305016
0.304041
0.303069
0.302106
0.301149
0.300191
0.299231
0.298273
0.297314
0.296356
0.295401
0.294451
0.293504
0.292563
0.291627
0.290693
0.289763
0.288842
0.287926
0.287019
0.286118
0.285216
0.2843
0.283388
0.282495
0.281615
0.280745
0.279883
0.27903
0.278186
0.27735
0.276523
0.275705
0.274895
0.274094
0.273302
0.272517
0.27174
0.270969
0.270208
0.269454
0.268716
0.26799
0.267279
0.266589
0.26591
0.26525
0.264608
0.263975
0.263351
0.262734
0.26213
0.261527
0.260936
0.260365
0.259804
0.259256
0.258722
0.258191
0.257685
0.257201
0.256731
0.256283
0.255841
0.255415
0.255018
0.254646
0.25429
0.253945
0.253606
0.253284
0.252974
0.252675
0.252392
0.252121
0.251871
0.251635
0.251417
0.251214
0.25103
0.250864
0.250718
0.250589
0.250481
0.250393
0.250328
0.250286
0.250265
0.250271
0.250297
0.250349
0.250424
0.250523
0.250646
0.250794
0.250979
0.251172
0.251409
0.251754
0.251805
0.252683
0.252039
0.254362
0.251893
0.257262
0.250833
0.261993
0.246841
0.335107
0.334301
0.33347
0.332618
0.331756
0.330887
0.330008
0.329107
0.328196
0.327284
0.326358
0.325415
0.324442
0.323471
0.322508
0.321537
0.320559
0.319559
0.318539
0.317529
0.316519
0.315504
0.314479
0.313435
0.312387
0.31135
0.310322
0.309301
0.308266
0.307208
0.306158
0.305122
0.304079
0.30304
0.301995
0.300928
0.299855
0.298791
0.297733
0.296678
0.295627
0.294583
0.293543
0.292508
0.291477
0.290448
0.289419
0.28839
0.287364
0.286353
0.285348
0.284351
0.283361
0.282375
0.281402
0.28044
0.279486
0.278537
0.277596
0.276666
0.275745
0.274834
0.273932
0.273041
0.272159
0.271288
0.270424
0.269571
0.268728
0.267895
0.267074
0.266262
0.265464
0.264679
0.263919
0.263181
0.262457
0.261749
0.26104
0.260335
0.259653
0.258981
0.258322
0.257691
0.257077
0.256465
0.255866
0.255283
0.25471
0.254164
0.253626
0.253096
0.252591
0.252098
0.251604
0.25113
0.250682
0.250242
0.249824
0.249418
0.249039
0.248675
0.248332
0.248015
0.247707
0.247432
0.247169
0.246932
0.246714
0.246519
0.246343
0.246193
0.246059
0.245954
0.245864
0.245801
0.245755
0.245732
0.245734
0.245754
0.245802
0.245873
0.245975
0.246108
0.246274
0.246469
0.24672
0.247051
0.247205
0.24801
0.247636
0.249513
0.247792
0.251669
0.247602
0.254363
0.245668
0.260476
0.230751
0.337936
0.337073
0.336196
0.335311
0.334404
0.333465
0.332509
0.331551
0.330572
0.32956
0.328539
0.327533
0.326517
0.325465
0.324399
0.32331
0.322215
0.321125
0.320038
0.318932
0.317803
0.316664
0.315525
0.314406
0.31329
0.312133
0.310968
0.309806
0.30864
0.307465
0.30629
0.305113
0.303932
0.302758
0.301597
0.300443
0.299297
0.298149
0.296994
0.29584
0.294688
0.293537
0.292387
0.291238
0.290089
0.288942
0.287805
0.286679
0.285558
0.284445
0.283342
0.282244
0.281161
0.280097
0.279032
0.277975
0.276934
0.275905
0.274886
0.273876
0.272874
0.271881
0.270896
0.269921
0.268958
0.268008
0.267073
0.266151
0.265241
0.264344
0.26346
0.262591
0.261736
0.260891
0.260054
0.259225
0.258406
0.257603
0.256822
0.256065
0.255324
0.254607
0.253909
0.253212
0.252536
0.251886
0.25125
0.25063
0.250044
0.249467
0.248904
0.248362
0.247829
0.247305
0.246808
0.246335
0.245864
0.245409
0.244959
0.24453
0.244117
0.243721
0.243343
0.242977
0.24264
0.242307
0.242005
0.241719
0.241457
0.241217
0.241001
0.240803
0.240634
0.24048
0.240356
0.24025
0.240172
0.240119
0.240086
0.240094
0.240115
0.24018
0.240266
0.240388
0.240547
0.240723
0.240887
0.24126
0.241193
0.242006
0.241429
0.242884
0.241743
0.243624
0.242473
0.243788
0.24256
0.250429
0.217757
0.341625
0.340713
0.339761
0.338771
0.337765
0.336752
0.335711
0.334626
0.333538
0.332456
0.331333
0.33016
0.328975
0.327796
0.326614
0.325432
0.324227
0.323002
0.321764
0.320505
0.319278
0.318056
0.316787
0.315488
0.314187
0.3129
0.311619
0.310317
0.309019
0.307736
0.306439
0.305139
0.303852
0.302554
0.301261
0.299987
0.298714
0.297432
0.296154
0.294882
0.293613
0.292344
0.291079
0.289819
0.288566
0.287314
0.286071
0.28484
0.283622
0.282423
0.281224
0.280035
0.278841
0.277656
0.276478
0.275299
0.274141
0.273004
0.271877
0.270757
0.26964
0.268529
0.267432
0.26635
0.265287
0.26424
0.263211
0.262201
0.261213
0.260245
0.259299
0.258373
0.257467
0.256584
0.25571
0.25485
0.254011
0.253174
0.252346
0.251538
0.25075
0.249959
0.249173
0.248407
0.24766
0.246928
0.246203
0.245503
0.244814
0.244143
0.243499
0.242874
0.242265
0.241685
0.241135
0.240586
0.24007
0.239577
0.23911
0.238672
0.238249
0.237847
0.237459
0.237096
0.236747
0.236421
0.236109
0.235815
0.235548
0.235293
0.23506
0.234845
0.234652
0.234477
0.234329
0.2342
0.234096
0.234014
0.233962
0.23392
0.233913
0.233904
0.233936
0.233952
0.233995
0.234077
0.234022
0.23428
0.234054
0.234518
0.234167
0.234744
0.234465
0.234757
0.23535
0.234972
0.235121
0.242074
0.211989
0.346106
0.345038
0.343959
0.342871
0.341743
0.340569
0.3394
0.338225
0.337004
0.335749
0.334511
0.333271
0.331995
0.330696
0.329364
0.328018
0.326653
0.325296
0.323949
0.322561
0.321128
0.319698
0.318283
0.316875
0.315459
0.314016
0.312593
0.311228
0.309821
0.308361
0.306902
0.30545
0.303992
0.302537
0.301081
0.299623
0.298166
0.296718
0.295285
0.293862
0.292446
0.29104
0.289649
0.288267
0.286901
0.285534
0.284148
0.282767
0.281397
0.280035
0.278688
0.277357
0.276053
0.274757
0.273479
0.272213
0.270955
0.269716
0.268483
0.267271
0.266082
0.264913
0.263754
0.262607
0.261468
0.26034
0.259223
0.258116
0.257019
0.255932
0.254858
0.253799
0.252751
0.25172
0.250718
0.24973
0.248767
0.247843
0.246942
0.246055
0.245198
0.244386
0.243586
0.2428
0.242042
0.241305
0.24058
0.239866
0.239173
0.238497
0.237819
0.237159
0.236525
0.235898
0.235271
0.234671
0.234085
0.233519
0.232995
0.232473
0.231962
0.231468
0.231004
0.230564
0.230152
0.229774
0.229414
0.229082
0.228758
0.228465
0.22819
0.227934
0.227698
0.227486
0.227289
0.227112
0.226955
0.226809
0.226674
0.226568
0.226448
0.226375
0.226284
0.226227
0.226147
0.226158
0.226034
0.226155
0.225986
0.226216
0.226013
0.226304
0.22633
0.226067
0.226542
0.225583
0.224281
0.231314
0.204847
0.351407
0.350234
0.349
0.347717
0.346449
0.345172
0.34383
0.342453
0.341076
0.339696
0.338253
0.336784
0.335313
0.333834
0.332343
0.330844
0.32932
0.327762
0.326207
0.324646
0.323093
0.321532
0.319935
0.318331
0.316728
0.315118
0.313479
0.3118
0.310138
0.308523
0.30692
0.305308
0.303701
0.302091
0.300494
0.298922
0.297354
0.295785
0.294213
0.292635
0.291058
0.289489
0.287925
0.28636
0.284775
0.283196
0.281672
0.280191
0.278705
0.277242
0.275795
0.274345
0.272914
0.271487
0.270074
0.268676
0.267277
0.26588
0.264506
0.263148
0.261809
0.2605
0.259218
0.25796
0.256725
0.255518
0.254334
0.253176
0.252041
0.250931
0.249842
0.248773
0.247724
0.246684
0.245659
0.244652
0.243648
0.242649
0.241666
0.240686
0.239714
0.238761
0.237833
0.236923
0.236027
0.235169
0.234341
0.23354
0.232762
0.231998
0.231281
0.230586
0.229907
0.229253
0.228633
0.228031
0.22744
0.226886
0.226317
0.225775
0.225263
0.224768
0.224285
0.223825
0.223374
0.222934
0.222511
0.222105
0.221724
0.221368
0.221018
0.2207
0.220395
0.220109
0.219839
0.21959
0.219351
0.219133
0.218926
0.218727
0.218558
0.218373
0.218221
0.218078
0.217925
0.217848
0.21767
0.217689
0.217476
0.217583
0.217406
0.217405
0.217676
0.217378
0.217441
0.216692
0.215266
0.221488
0.198431
0.357519
0.356151
0.35475
0.353328
0.351842
0.350318
0.348798
0.347249
0.345644
0.34402
0.342391
0.340743
0.339072
0.337366
0.335657
0.333942
0.332205
0.330458
0.328688
0.326909
0.325107
0.323296
0.321497
0.319695
0.317888
0.316072
0.314246
0.312416
0.310593
0.308772
0.306988
0.305267
0.303515
0.301694
0.299871
0.298056
0.296259
0.294478
0.292705
0.290939
0.289187
0.287443
0.285704
0.283987
0.282305
0.280654
0.279035
0.277383
0.275747
0.27414
0.272522
0.270931
0.269357
0.267797
0.266251
0.264736
0.263241
0.261769
0.260322
0.258895
0.25749
0.25609
0.254704
0.25333
0.251978
0.25064
0.24932
0.248021
0.246737
0.245486
0.244254
0.243043
0.241855
0.240704
0.239571
0.238457
0.237397
0.236373
0.235357
0.234385
0.233444
0.232513
0.23159
0.230682
0.229789
0.228902
0.228023
0.227155
0.226317
0.225509
0.224711
0.223938
0.223184
0.222462
0.221742
0.22105
0.220404
0.219761
0.219131
0.218538
0.217971
0.217421
0.216908
0.216409
0.215938
0.215463
0.215009
0.214577
0.214171
0.213764
0.213388
0.213021
0.212675
0.212336
0.212015
0.211702
0.211405
0.21112
0.210852
0.2106
0.21036
0.210154
0.209933
0.209792
0.209571
0.209499
0.209283
0.209272
0.209089
0.20909
0.209011
0.208869
0.209001
0.208409
0.208027
0.207407
0.206239
0.211637
0.191404
0.364261
0.362661
0.361013
0.359358
0.357675
0.355949
0.354185
0.352414
0.350635
0.348816
0.346938