/*--------------------------------*- C++ -*----------------------------------*\
| =========                 |                                                 |
| \\      /  F ield         | OpenFOAM: The Open Source CFD Toolbox           |
|  \\    /   O peration     | Version:  5.x                                   |
|   \\  /    A nd           | Web:      www.OpenFOAM.org                      |
|    \\/     M anipulation  |                                                 |
\*---------------------------------------------------------------------------*/
/*   Windows 32 and 64 bit porting by blueCAPE: http://www.bluecape.com.pt   *\
|  Based on Windows porting (2.0.x v4) by Symscape: http://www.symscape.com   |
\*---------------------------------------------------------------------------*/
FoamFile
{
    version     2.0;
    format      ascii;
    class       surfaceScalarField;
    location    "380";
    object      phi;
}
// * * * * * * * * * * * * * * * * * * * * * * * * * * * * * * * * * * * * * //

dimensions      [0 3 -1 0 0 0 0];

internalField   nonuniform List<scalar> 
87341
(
0.366475
39.5566
0.531039
39.7585
0.498568
39.9555
0.605605
39.816
0.643151
39.8855
0.688832
39.8774
0.727124
39.8847
0.766585
39.8836
0.804529
39.8851
0.837661
39.8899
0.870407
39.8903
0.89945
39.894
0.928571
39.8939
0.956326
39.8953
0.980991
39.8984
1.00308
39.9009
1.02515
39.901
1.04994
39.8982
1.07158
39.9014
1.08862
39.906
1.10614
39.9055
1.12368
39.9055
1.13866
39.9081
1.14856
39.9131
1.15738
39.9142
1.17572
39.9047
1.20224
39.8965
1.22654
39.8987
39.912
1.23757
0.970588
38.586
1.36298
39.3661
1.47423
39.8443
1.61088
39.6794
1.65009
39.8463
1.80816
39.7193
1.90845
39.7845
2.03846
39.7536
2.13424
39.7893
2.23839
39.7858
2.33428
39.7944
2.42442
39.8039
2.50644
39.8119
2.58548
39.8162
2.65962
39.8242
2.72436
39.8362
2.78691
39.8384
2.84672
39.8384
2.90083
39.8473
2.95365
39.8532
2.99976
39.8594
3.03587
39.8694
3.06807
39.8759
3.10983
39.8714
3.16346
39.8606
3.20967
39.8585
3.22886
39.8773
3.23198
39.8956
39.8985
3.24546
2.03565
36.5503
3.35254
38.0492
4.1326
39.0642
4.21683
39.5951
4.37479
39.6883
4.30993
39.7841
4.34133
39.753
4.31415
39.7808
4.33503
39.7684
4.34932
39.7715
4.36973
39.774
4.39789
39.7757
4.43052
39.7793
4.4639
39.7829
4.49934
39.7888
4.54511
39.7904
4.58949
39.794
4.62492
39.803
4.6669
39.8053
4.71452
39.8055
4.76168
39.8122
4.81758
39.8135
4.88252
39.8109
4.94098
39.8129
4.97387
39.8277
4.98995
39.8424
5.02031
39.847
5.07886
39.8371
39.8261
5.15128
1.70112
34.8492
3.50677
36.2435
4.96273
37.6082
5.85562
38.7022
6.16162
39.3823
6.25422
39.6915
6.27503
39.7322
6.31289
39.7429
6.33653
39.7448
6.35813
39.7499
6.37759
39.7545
6.39327
39.76
6.41175
39.7608
6.43096
39.7637
6.45193
39.7678
6.47441
39.768
6.50721
39.7612
6.54931
39.7609
6.5846
39.77
6.61498
39.7752
6.65589
39.7713
6.70395
39.7654
6.74315
39.7717
6.77111
39.785
6.81072
39.7881
6.86915
39.784
6.93788
39.7783
6.99582
39.7791
39.7848
7.03711
1.09491
33.7543
2.46783
34.8706
4.04702
36.0291
5.51836
37.2309
6.59609
38.3046
7.19093
39.0967
7.40523
39.5179
7.45445
39.6937
7.50183
39.6974
7.55165
39.7
7.60052
39.7057
7.6551
39.7054
7.711
39.7049
7.75686
39.7178
7.80551
39.7192
7.85932
39.7141
7.90042
39.7201
7.94211
39.7192
7.99254
39.7196
8.04758
39.7201
8.09516
39.7238
8.12685
39.7337
8.16325
39.7353
8.21529
39.7329
8.27686
39.7265
8.33786
39.723
8.39
39.7261
8.4332
39.7359
39.7423
8.47571
0.859073
32.8952
1.8776
33.8521
3.05301
34.8537
4.38993
35.894
5.75174
36.9428
6.89621
37.9522
7.63112
38.783
7.99157
39.3332
8.12667
39.5623
8.21307
39.6136
8.30566
39.6131
8.39527
39.6158
8.48019
39.62
8.57238
39.6256
8.65698
39.6346
8.74307
39.6281
8.83363
39.6296
8.91111
39.6417
8.9895
39.6412
9.0715
39.6381
9.15591
39.6393
9.24948
39.6402
9.34456
39.6402
9.43527
39.6422
9.51921
39.6426
9.59505
39.6471
9.66417
39.657
9.7451
39.655
39.6515
9.83589
0.757105
32.1381
1.61504
32.9942
2.57671
33.892
3.64594
34.8247
4.8123
35.7764
6.0365
36.728
7.16074
37.6588
8.00235
38.4916
8.47289
39.0918
8.68133
39.4052
8.80275
39.4917
8.92924
39.4893
9.05625
39.4929
9.18026
39.5016
9.30999
39.5048
9.43582
39.5022
9.55811
39.5073
9.68668
39.5132
9.80814
39.5197
9.9196
39.5267
10.034
39.5249
10.1561
39.5181
10.2793
39.5171
10.3933
39.5282
10.4996
39.5363
10.6065
39.5403
10.7114
39.5521
10.8163
39.5501
39.5533
10.9145
0.704164
31.434
1.47802
32.2203
2.32501
33.045
3.24754
33.9022
4.24315
34.7808
5.30298
35.6682
6.41185
36.5499
7.49795
37.4055
8.38309
38.2066
8.95025
38.838
9.22231
39.2196
9.36925
39.3424
9.51549
39.3467
9.66327
39.3538
9.80419
39.3639
9.94541
39.361
10.0951
39.3575
10.2396
39.3688
10.3847
39.3746
10.5377
39.3736
10.6745
39.3882
10.8019
39.3906
10.9257
39.3933
11.0592
39.3947
11.1921
39.4034
11.3222
39.4102
11.4596
39.4147
11.6006
39.4091
39.4062
11.7477
0.675508
30.7584
1.40226
31.4935
2.18384
32.2634
3.02224
33.0638
3.91697
33.8861
4.86458
34.7206
5.85762
35.5569
6.88034
36.3828
7.90322
37.1838
8.80083
37.9404
9.43796
38.5825
9.77211
39.0083
9.95711
39.1617
10.1368
39.1741
10.3205
39.1802
10.4912
39.1903
10.6596
39.1892
10.8397
39.1886
11.021
39.1933
11.1886
39.206
11.3717
39.2051
11.5466
39.2157
11.7095
39.2304
11.8636
39.2406
12.0295
39.2375
12.2048
39.2349
12.3674
39.2521
12.5116
39.2648
39.2766
12.6413
0.659402
30.099
1.36097
30.792
2.10498
31.5194
2.89303
32.2758
3.72524
33.0539
4.6
33.8458
5.51348
34.6434
6.45863
35.4376
7.42378
36.2186
8.38998
36.9742
9.28579
37.6867
9.97242
38.3216
10.3691
38.765
10.5935
38.9497
10.8042
38.9696
11.0125
38.982
11.2202
38.9815
11.4207
38.9881
11.6169
38.997
11.8241
38.9989
12.0242
39.005
12.2295
39.0104
12.4401
39.0198
12.6488
39.0319
12.8339
39.0524
13.0035
39.0653
13.1944
39.0612
13.3987
39.0605
39.0887
13.5866
0.655638
29.4434
1.34589
30.1017
2.0711
30.7942
2.83201
31.5149
3.62854
32.2573
4.45961
33.0148
5.32289
33.7801
6.21453
34.546
7.12846
35.3047
8.05523
36.0475
8.97842
36.7635
9.86327
37.4368
10.5741
38.0542
11.0137
38.5101
11.2724
38.7109
11.5137
38.7407
11.7463
38.7489
11.9894
38.7451
12.2212
38.7651
12.4402
38.7799
12.6653
38.7799
12.8847
38.7911
13.1014
38.803
13.3252
38.8081
13.5474
38.8302
13.76
38.8527
13.9499
38.8713
14.1165
38.8939
38.8943
14.3109
0.660597
28.7828
1.34983
29.4125
2.0694
30.0746
2.81959
30.7647
3.6001
31.4768
4.4099
32.205
5.24715
32.9429
6.10909
33.6841
6.9917
34.4221
7.88906
35.1501
8.79204
35.8605
9.68475
36.5441
10.5506
37.1883
11.2792
37.7815
11.7529
38.2372
12.0538
38.4398
12.325
38.4777
12.5844
38.4857
12.865
38.4845
13.1208
38.5241
13.3584
38.5423
13.6085
38.541
13.8436
38.568
14.0601
38.5916
14.2914
38.5988
14.5296
38.6146
14.7744
38.6265
15.018
38.6503
38.6858
15.2265
0.667033
28.1158
1.36085
28.7187
2.08159
29.3539
2.82925
30.017
3.60345
30.7026
4.40333
31.4051
5.22734
32.1189
6.07326
32.8381
6.93807
33.5573
7.81767
34.2705
8.70638
34.9718
9.59597
35.6545
10.4739
36.3104
11.3266
36.9288
12.0648
37.499
12.5552
37.9494
12.882
38.1509
13.1808
38.1869
13.4569
38.2084
13.7641
38.2169
14.0488
38.2576
14.3163
38.2735
14.598
38.2862
14.8801
38.3095
15.1413
38.3376
15.3888
38.3672
15.6243
38.391
15.8694
38.4052
38.4192
16.1359
0.676986
27.4388
1.37833
28.0173
2.10431
28.6279
2.85485
29.2665
3.62921
29.9283
4.42651
30.6078
5.24549
31.2999
6.08424
31.9994
6.94032
32.7012
7.81062
33.4002
8.69111
34.0913
9.57645
34.7691
10.4592
35.4276
11.3285
36.0595
12.1727
36.6548
12.9169
37.2052
13.4174
37.6504
13.762
37.8422
14.0895
37.8809
14.395
37.9114
14.7173
37.9353
15.0258
37.965
15.3199
37.9921
15.6201
38.0094
15.9152
38.0425
16.2155
38.0668
16.5079
38.0986
16.7779
38.1351
38.1609
17.0363
0.689884
26.7489
1.40238
27.3048
2.13763
27.8926
2.89569
28.5084
3.67593
29.148
4.4772
29.8065
5.2983
30.4788
6.13771
31.16
6.99337
31.8455
7.86278
32.5308
8.7428
33.2113
9.62952
33.8824
10.5178
34.5393
11.4008
35.1766
12.2681
35.7875
13.1105
36.3628
13.8619
36.899
14.3667
37.3375
14.726
37.5216
15.0824
37.555
15.4112
37.6065
15.7455
37.6307
16.0822
37.6554
16.4032
37.6884
16.7108
37.7349
17.0024
37.7753
17.2995
37.8015
17.5957
37.8389
37.8875
17.8691
0.703656
26.0452
1.42874
26.5798
2.17522
27.1461
2.94292
27.7407
3.73151
28.3594
4.53997
28.9981
5.36681
29.6519
6.21059
30.3162
7.06958
30.9865
7.94164
31.6587
8.82418
32.3287
9.71408
32.9925
10.6074
33.646
11.4992
34.2849
12.3824
34.9042
13.2469
35.4983
14.0865
36.0594
14.837
36.587
15.3405
37.0181
15.7079
37.1876
16.0868
37.2277
16.4258
37.2916
16.7699
37.3112
17.1099
37.3483
17.4544
37.3904
17.7848
37.4449
18.0892
37.4971
18.4088
37.5194
37.5741
18.7222
0.71761
25.3276
1.45584
25.8415
2.21453
26.3875
2.9933
26.9619
3.7917
27.561
4.60905
28.1807
5.44406
28.8169
6.29508
29.4652
7.16042
30.1212
8.03812
30.781
8.9259
31.4409
9.82112
32.0973
10.7206
32.7465
11.6206
33.3849
12.516
34.0088
13.4005
34.6138
14.2652
35.1947
15.1063
35.7459
15.8577
36.2667
16.3629
36.6823
16.7502
36.8404
17.1473
36.8946
17.5005
36.958
17.8566
36.9922
18.1982
37.0489
18.559
37.084
18.8888
37.1673
19.1966
37.2115
37.2404
19.5303
0.731831
24.5958
1.48364
25.0897
2.25526
25.6158
3.0463
26.1709
3.85611
26.7512
4.68397
27.3529
5.52894
27.972
6.38955
28.6046
7.26419
29.2466
8.15109
29.8941
9.04819
30.5438
9.95315
31.1923
10.8633
31.8363
11.7756
32.4726
12.6864
33.098
13.5912
33.709
14.4841
34.3018
15.3579
34.872
16.2094
35.4152
16.9613
35.9304
17.4714
36.3304
17.8763
36.4897
18.2647
36.5696
18.6298
36.6271
18.9941
36.6846
19.331
36.7472
19.7085
36.7898
20.0443
36.8758
36.9459
20.3387
0.744793
23.851
1.50917
24.3253
2.29291
24.8321
3.09557
25.3682
3.91652
25.9303
4.75491
26.5145
5.6098
27.1171
6.47992
27.7344
7.36366
28.3628
8.25936
28.9984
9.16524
29.638
10.0792
30.2783
10.9989
30.9166
11.9218
31.5497
12.8448
32.175
13.7644
32.7895
14.6761
33.3901
15.5746
33.9735
16.4537
34.5362
17.3083
35.0758
18.049
35.5897
18.5542
35.9845
18.9659
36.1579
19.3539
36.239
19.7302
36.3083
20.0959
36.3815
20.4337
36.452
20.8298
36.4797
36.5603
21.2154
0.756392
23.0946
1.53207
23.5497
2.32675
24.0374
3.13998
24.555
3.97111
25.0991
4.81931
25.6663
5.68356
26.2528
6.56274
26.8553
7.45537
27.4702
8.35969
28.0941
9.274
28.7237
10.1964
29.356
11.1247
29.9882
12.0566
30.6178
12.9896
31.242
13.9206
31.8585
14.8462
32.4646
15.7621
33.0575
16.6637
33.6346
17.5462
34.1932
18.4034
34.7325
19.1369
35.2509
19.6508
35.644
20.0775
35.8124
20.4821
35.9037
20.913
35.9506
21.3105
36.0545
21.6322
36.158
36.2053
21.9872
0.766812
22.3278
1.55264
22.7638
2.35721
23.2328
3.18008
23.7321
4.02061
24.2586
4.87796
24.8089
5.75111
25.3797
6.63894
25.9674
7.54018
26.569
8.45322
27.1811
9.37634
27.8006
10.3078
28.4246
11.2455
29.0504
12.1876
29.6757
13.1316
30.298
14.0751
30.915
15.0153
31.5244
15.9489
32.1239
16.8724
32.7112
17.7817
33.2839
18.6739
33.8402
19.5425
34.3824
20.2803
34.9062
20.7916
35.301
21.2143
35.481
21.5897
35.5752
22.0074
35.6367
22.4204
35.745
35.8811
22.7446
0.775537
21.5523
1.56993
21.9694
2.38288
22.4199
3.21394
22.9011
4.06249
23.4101
4.92771
23.9437
5.80864
24.4987
6.70413
25.0719
7.61293
25.6601
8.53362
26.2604
9.46453
26.8696
10.404
27.4851
11.3501
28.1043
12.301
28.7248
13.2545
29.3444
14.2085
29.961
15.1606
30.5724
16.1079
31.1766
17.0474
31.7716
17.9759
32.3554
18.8899
32.9263
19.7886
33.4837
20.6629
34.032
21.3908
34.5732
21.9075
34.9643
22.3289
35.1538
22.7016
35.264
23.1039
35.3427
35.49
23.495
0.782694
20.7696
1.58404
21.1681
2.40377
21.6002
3.24144
22.0634
4.09644
22.5551
4.96799
23.0721
5.85511
23.6116
6.75669
24.1704
7.67146
24.7454
8.5981
25.3337
9.53502
25.9327
10.4806
26.5396
11.4331
27.1518
12.3906
27.7673
13.3513
28.3837
14.3131
28.9992
15.2738
29.6117
16.2309
30.2194
17.182
30.8206
18.1241
31.4133
19.0544
31.996
19.9706
32.5674
20.8747
33.1279
21.7615
33.6863
22.4879
34.2379
22.9939
34.6478
23.4216
34.8363
23.7852
34.9792
35.0987
24.1765
0.788041
19.9815
1.5946
20.3615
2.41937
20.7754
3.26193
21.2209
4.12169
21.6953
4.99789
22.1959
5.8896
22.7199
6.79574
23.2642
7.71508
23.826
8.64629
24.4025
9.58785
24.9912
10.5381
25.5893
11.4954
26.1945
12.4579
26.8047
13.4239
27.4178
14.3913
28.0318
15.3581
28.6449
16.3222
29.2553
17.2814
29.8614
18.2332
30.4615
19.175
31.0541
20.1045
31.6379
21.0202
32.2122
21.9288
32.7778
22.8218
33.3449
23.5468
33.9229
24.0275
34.3556
24.4369
34.5697
34.7123
24.8234
0.791984
19.1896
1.60229
19.5512
2.43065
19.947
3.27666
20.3749
4.13973
20.8322
5.01913
21.3165
5.91393
21.8251
6.82305
22.3551
7.74525
22.9038
8.67921
23.4686
9.62351
24.0469
10.5766
24.6362
11.5367
25.2344
12.5022
25.8392
13.4712
26.4487
14.442
27.0611
15.4124
27.6744
16.3805
28.2872
17.3443
28.8977
18.3014
29.5044
19.2495
30.106
20.1864
30.701
21.11
31.2887
22.019
31.8687
22.923
32.4409
23.8232
33.0227
24.5458
33.633
25.0151
34.1004
34.3286
25.3988
0.794447
18.3951
1.60704
18.7386
2.4375
19.1166
3.28545
19.5269
4.15031
19.9674
5.03138
20.4355
5.92774
20.9287
6.83833
21.4445
7.76193
21.9802
8.69722
22.5333
9.64277
23.1013
10.597
23.682
11.5582
24.2732
12.5248
24.8726
13.495
25.4786
14.4669
26.0892
15.4385
26.7027
16.4081
27.3176
17.3735
27.9323
18.3326
28.5453
19.2832
29.1553
20.2233
29.7609
21.1508
30.3612
22.0639
30.9555
22.9613
31.5436
23.8585
32.1255
24.7652
32.7262
25.4943
33.3713
33.8671
25.9558
0.795584
17.5995
1.60912
17.9251
2.44033
18.2854
3.28886
18.6784
4.15417
19.102
5.03557
19.5541
5.93216
20.0321
6.84292
20.5338
7.76665
21.0565
8.70204
21.5979
9.64764
22.1557
10.6019
22.7278
11.5631
23.312
12.5295
23.9062
13.4994
24.5088
14.4708
25.1178
15.4419
25.7316
16.4108
26.3487
17.3756
26.9676
18.3341
27.5868
19.2845
28.205
20.2245
28.8209
21.1523
29.4335
22.0661
30.0417
22.9644
30.6452
23.8459
31.244
24.7332
31.839
25.6422
32.4623
33.1381
26.3711
0.795587
16.8039
1.6089
17.1118
2.4397
17.4545
3.28767
17.8304
4.15231
18.2374
5.03294
18.6735
5.92871
19.1364
6.83857
19.6239
7.76135
20.1337
8.69568
20.6636
9.64012
21.2113
10.5931
21.7748
11.553
22.3521
12.518
22.9412
13.4863
23.5404
14.4561
24.148
15.4253
24.7623
16.3922
25.3819
17.3546
26.0051
18.3107
26.6307
19.2583
27.2574
20.1955
27.8837
21.1203
28.5086
22.031
29.1311
22.9258
29.7503
23.8038
30.366
24.6643
30.9785
25.5378
31.5888
32.2439
26.4321
0.794437
16.0095
1.60636
16.2999
2.43557
16.6253
3.28181
16.9842
4.14461
17.3746
5.02333
17.7947
5.91715
18.2426
6.82504
18.716
7.74582
19.2129
8.67816
19.7312
9.62057
20.2689
10.5715
20.8239
11.5293
21.3943
12.492
21.9785
13.458
22.5745
14.4252
23.1808
15.3917
23.7958
16.3554
24.4181
17.3144
25.0461
18.2667
25.6785
19.2101
26.314
20.1426
26.9512
21.0623
27.5889
21.9674
28.226
22.8561
28.8616
23.7274
29.4948
24.5806
30.1252
25.4167
30.7527
31.3843
26.2762
0.792116
15.2174
1.60145
15.4905
2.42787
15.7989
3.27117
16.1409
4.13096
16.5148
5.00665
16.9191
5.89744
17.3518
6.80236
17.8111
7.72024
18.295
8.64978
18.8017
9.58949
19.3292
10.5378
19.8756
11.4929
20.4392
12.453
21.0184
13.4161
21.6113
14.3803
22.2166
15.3435
22.8327
16.3036
23.458
17.2585
24.0912
18.206
24.731
19.1441
25.3759
20.0707
26.0246
20.9836
26.676
21.881
27.3287
22.761
27.9816
23.6221
28.6336
24.4633
29.284
25.2839
29.9321
30.5771
26.0911
0.788596
14.4288
1.59411
14.685
2.41651
14.9765
3.25567
15.3017
4.1113
15.6592
4.98285
16.0475
5.86961
16.465
6.77063
16.9101
7.68479
17.3809
8.61078
17.8757
9.54713
18.3928
10.4922
18.9305
11.4442
19.4872
12.4013
20.0613
13.3613
20.6513
14.3223
21.2556
15.2821
21.8729
16.2383
22.5017
17.1889
23.1406
18.1315
23.7884
19.0639
24.4435
19.9838
25.1048
20.8889
25.7708
21.7773
26.4403
22.6469
27.112
23.4958
27.7846
24.3228
28.4571
25.1265
29.1283
29.7968
25.9069
0.783789
13.645
1.58418
13.8846
2.40123
14.1595
3.23497
14.468
4.08518
14.809
4.95143
15.1812
5.83307
15.5834
6.72921
16.0139
7.63876
16.4713
8.56044
16.954
9.49274
17.4605
10.434
17.9892
11.3825
18.5387
12.3361
19.1076
13.293
19.6945
14.2508
20.2978
15.2072
20.9165
16.16
21.549
17.1065
22.1941
18.0445
22.8504
18.9714
23.5166
19.8848
24.1914
20.7821
24.8734
21.6612
25.5612
22.5198
26.2534
23.3557
26.9487
24.1673
27.6455
24.953
28.3426
29.0382
25.7115
0.777569
12.8674
1.57138
13.0908
2.38165
13.3492
3.20854
13.6411
4.05196
13.9656
4.91159
14.3216
5.78686
14.7081
6.67696
15.1238
7.58087
15.5674
8.49734
16.0376
9.42489
16.5329
10.3619
17.0522
11.3065
17.5941
12.2568
18.1574
13.2104
18.7408
14.1653
19.343
15.1188
19.9629
16.0685
20.5993
17.0117
21.2509
17.9457
21.9163
18.8678
22.5945
19.7754
23.2839
20.6656
23.9832
21.5359
24.6909
22.3838
25.4056
23.2069
26.1256
24.003
26.8494
24.7704
27.5752
28.3013
25.5073
0.76982
12.0976
1.55552
12.3051
2.35746
12.5472
3.17598
12.8226
4.01115
13.1304
4.86276
13.47
5.73035
13.8405
6.61322
14.241
7.51041
14.6702
8.42075
15.1272
9.34283
15.6109
10.275
16.12
11.2155
16.6537
12.1621
17.2107
13.1128
17.7902
14.0649
18.3909
15.016
19.0119
15.9633
19.652
16.9039
20.3102
17.835
20.9853
18.7534
21.676
19.6563
22.381
20.5405
23.099
21.4031
23.8283
22.2412
24.5675
23.0521
25.3147
23.8334
26.0681
24.5828
26.8258
27.5858
25.2983
0.760441
11.3372
1.5364
11.5292
2.32841
11.7552
3.13699
12.014
3.96238
12.305
4.80452
12.6279
5.66308
12.982
6.53746
13.3666
7.42682
13.7809
8.33005
14.224
9.24582
14.6951
10.1725
15.1933
11.1083
15.7179
12.0511
16.2679
12.9986
16.8427
13.9483
17.4412
14.8973
18.0628
15.843
18.7064
16.782
19.3711
17.7113
20.056
18.6275
20.7598
19.5272
21.4814
20.4069
22.2193
21.2633
22.9719
22.0931
23.7377
22.8931
24.5146
23.6605
25.3007
24.3926
26.0937
26.8912
25.0872
0.749335
10.5878
1.51386
10.7646
2.29428
10.9748
3.09131
11.217
3.90536
11.4909
4.73653
11.7967
5.58462
12.1339
6.44917
12.502
7.32945
12.9006
8.22445
13.329
9.13291
13.7866
10.0533
14.273
10.9837
14.7874
11.9222
15.3295
12.8663
15.8985
13.8136
16.4939
14.7612
17.1152
15.706
17.7616
16.6446
18.4325
17.5735
19.1271
18.489
19.8443
19.3873
20.5831
20.2645
21.3421
21.1166
22.1198
21.9398
22.9145
22.7306
23.7239
23.4854
24.5459
24.2014
25.3777
26.2168
24.8758
0.736423
9.85141
1.48779
10.0133
2.25493
10.2077
3.03877
10.4331
3.83988
10.6898
4.6585
10.9781
5.4946
11.2978
6.34784
11.6488
7.21763
12.0308
8.10309
12.4435
9.00305
12.8867
9.91608
13.3599
10.8404
13.8631
11.7741
14.3958
12.7148
14.9578
13.6599
15.5489
14.6064
16.1687
15.5511
16.817
16.4903
17.4933
17.4203
18.1971
18.3369
18.9277
19.2359
19.6842
20.1126
20.4653
20.9627
21.2698
21.7816
22.0955
22.5651
22.9404
23.3092
23.8018
24.0102
24.6767
25.5618
24.6651
0.721652
9.12976
1.45812
9.27681
2.2103
9.45549
2.97928
9.66415
3.7658
9.90331
4.57026
10.1736
5.39275
10.4753
6.23312
10.8084
7.09091
11.173
7.9654
11.569
8.85558
11.9965
9.76015
12.4554
10.6775
12.9457
11.6058
13.4675
12.5426
14.021
13.4854
14.6061
14.4311
15.223
15.3763
15.8717
16.3173
16.5523
17.25
17.2644
18.1697
18.008
19.0716
18.7822
19.9506
19.5863
20.8014
20.4189
21.6187
21.2782
22.3974
22.1617
23.1327
23.0666
23.8203
23.9892
24.9255
24.4566
0.705
8.42476
1.42482
8.55699
2.16034
8.71997
2.91275
8.91174
3.68294
9.13312
4.47147
9.38508
5.27859
9.66817
6.10432
9.9827
6.94838
10.3289
7.81023
10.7072
8.68905
11.1177
9.5837
11.5607
10.4927
12.0366
11.4144
12.5458
12.3465
13.0889
13.2865
13.6661
14.2314
14.2781
15.1778
14.9253
16.1218
15.6083
17.0589
16.3274
17.9841
17.0828
18.8919
17.8744
19.7764
18.7018
20.6315
19.5639
21.4507
20.4589
22.2279
21.3845
22.9572
22.3373
23.6333
23.3131
24.3069
24.2519
0.686476
7.73828
1.3879
7.85557
2.10495
8.00292
2.83892
8.17776
3.59086
8.38119
4.36144
8.6145
5.15111
8.87849
5.96007
9.17374
6.78824
9.50078
7.63528
9.86015
8.50057
10.2524
9.38322
10.6781
10.282
11.1379
11.1954
11.6325
12.1214
12.1628
13.0578
12.7297
14.0016
13.3342
14.9495
13.9774
15.8975
14.6603
16.8409
15.384
17.7741
16.1495
18.6912
16.9574
19.5853
17.8077
20.4491
18.7001
21.275
19.6331
22.0552
20.6043
22.7825
21.61
23.4502
22.6454
23.7042
24.053
0.666121
7.07216
1.34731
7.17438
2.04393
7.3063
2.75736
7.46433
3.48876
7.64979
4.239
7.86427
5.00868
8.10881
5.7982
8.38422
6.60771
8.69127
7.43709
9.03077
8.286
9.40348
9.15381
9.81026
10.0396
10.252
10.9423
10.7299
11.8602
11.2449
12.7912
11.7987
13.7329
12.3926
14.6819
13.0283
15.6344
13.7078
16.5854
14.433
17.5292
15.2057
18.4591
16.0274
19.3674
16.8994
20.2455
17.822
21.0841
18.7945
21.8736
19.8147
22.6047
20.8789
23.2688
21.9813
23.1141
23.8588
0.643992
6.42817
1.30296
6.51541
1.97691
6.63236
2.66731
6.77392
3.37549
6.9416
4.10247
7.13729
4.84906
7.36222
5.61585
7.61742
6.40323
7.9039
7.21136
8.22264
8.04019
8.57465
8.88946
8.96099
9.75868
9.38282
10.6471
9.84146
11.5535
10.3385
12.4765
10.8757
13.4137
11.4554
14.3623
12.0797
15.3187
12.7515
16.278
13.4737
17.2343
14.2493
18.1804
15.0814
19.1076
15.9722
20.006
16.9236
20.8644
17.9361
21.6709
19.0082
22.4135
20.1364
23.0808
21.314
22.5315
23.6634
0.620119
5.80805
1.25465
5.88088
1.90331
5.9837
2.56781
6.10942
3.24962
6.2598
3.94992
6.43699
4.66973
6.64241
5.40988
6.87728
6.17097
7.1428
6.95349
7.44012
7.75773
7.77041
8.58386
8.13486
9.43185
8.53482
10.3015
8.97185
11.1921
9.44782
12.1028
9.965
13.0322
10.5261
13.9777
11.1342
14.9361
11.7931
15.9029
12.5068
16.8723
13.28
17.8368
14.1169
18.7869
15.0221
19.7113
15.9992
20.597
17.0504
21.429
18.1762
22.1921
19.3733
22.8713
20.6348
21.9494
23.4534
0.59446
5.21359
1.20203
5.27332
1.82249
5.36323
2.45787
5.47404
3.10981
5.60786
3.77967
5.76713
4.46866
5.95342
5.17781
6.16812
5.90803
6.41258
6.66011
6.68805
7.43475
6.99577
8.23258
7.33703
9.05412
7.71328
9.89974
8.12623
10.7695
8.57801
11.6633
9.07123
12.5802
9.60919
13.5184
10.1959
14.4754
10.8361
15.4472
11.535
16.4284
12.2987
17.4116
13.1338
18.3869
14.0468
19.3419
15.0442
20.2613
16.131
21.1274
17.3101
21.9206
18.5801
22.6211
19.9343
21.3595
23.211
0.566871
4.64672
1.14474
4.69544
1.73394
4.77403
2.3369
4.87108
2.95543
4.98933
3.59105
5.13151
4.24515
5.29932
4.91901
5.49427
5.61381
5.71778
6.33069
5.97117
7.0708
6.25566
7.83527
6.57256
8.6252
6.92334
9.44163
7.30981
10.2853
7.73429
11.1568
8.19977
12.0558
8.71023
12.9814
9.2703
13.932
9.88547
14.9047
10.5624
15.8945
11.3089
16.8946
12.1337
17.8951
13.0463
18.8829
14.0564
19.8409
15.173
20.7481
16.4029
21.5805
17.7477
22.3119
19.2029
20.7536
22.9178
0.537162
4.10956
1.08261
4.14999
1.63765
4.219
2.20519
4.30354
2.78714
4.40739
3.38515
4.5335
4.0008
4.68366
4.63561
4.85946
5.29107
5.06232
5.96869
5.29355
6.67005
5.5543
7.39685
5.84576
8.15072
6.16947
8.93323
6.5273
9.74574
6.92178
10.5893
7.35623
11.4646
7.83491
12.3719
8.36297
13.3105
8.94687
14.2784
9.5945
15.2719
10.3154
16.2849
11.1207
17.3082
12.023
18.3283
13.0362
19.3271
14.1742
20.2806
15.4494
21.1598
16.8686
21.9308
18.4318
20.124
22.5604
0.505238
3.60432
1.0159
3.63933
1.53448
3.70042
2.0643
3.77371
2.60729
3.8644
3.16521
3.97558
3.73984
4.10903
4.33292
4.26638
4.94624
4.449
5.5817
4.65808
6.24133
4.89467
6.92722
5.15987
7.64142
5.45527
8.38588
5.78284
9.1626
6.14507
9.97341
6.54542
10.8199
6.98839
11.7033
7.47963
12.6237
8.02644
13.5804
8.63776
14.5711
9.32468
15.591
10.1008
16.6321
10.982
17.6815
11.9868
18.7208
13.135
19.7233
14.4468
20.6549
15.937
21.4729
17.6138
19.4638
22.1331
0.471278
3.13304
0.945549
3.16506
1.4263
3.21967
1.91714
3.28288
2.41991
3.36163
2.93649
3.459
3.46881
3.57671
4.01881
3.71638
4.5886
3.87921
5.18041
4.06627
5.79653
4.27854
6.43927
4.51713
7.11116
4.78338
7.81475
5.07925
8.55251
5.40731
9.32685
5.77109
10.14
6.1752
10.994
6.6257
11.89
7.13038
12.8287
7.6991
13.8091
8.34426
14.8283
9.08156
15.8802
9.93012
16.9535
10.9134
18.0304
12.0581
19.0823
13.395
20.0706
14.9487
20.9418
16.7426
18.7664
21.6392
0.435863
2.69718
0.873148
2.72777
1.31584
2.77698
1.76761
2.83111
2.23016
2.89909
2.70544
2.98372
3.19551
3.08664
3.70251
3.20938
4.2287
3.35301
4.77649
3.51849
5.34846
3.70658
5.94731
3.91828
6.57588
4.15482
7.23705
4.41808
7.93364
4.71072
8.66848
5.03624
9.44438
5.3993
10.264
5.80609
11.1297
6.26467
12.0433
6.78551
13.0055
7.382
14.0156
8.07148
15.0699
8.87588
16.1596
9.82372
17.2689
10.9488
18.3688
12.295
19.4179
13.8996
20.348
15.8125
18.0247
21.0897
0.399939
2.29724
0.800738
2.32697
1.20624
2.37147
1.61998
2.41737
2.04345
2.47562
2.47867
2.5485
2.92774
2.63756
3.39293
2.7442
3.87655
2.86939
4.38129
3.01375
4.90992
3.17795
5.46534
3.36285
6.05052
3.56964
6.6685
3.8001
7.32241
4.05681
8.01541
4.34324
8.75076
4.66395
9.53177
5.02508
10.3617
5.43473
11.2437
5.90357
12.1801
6.44555
13.1724
7.07917
14.2198
7.82845
15.3169
8.72667
16.4517
9.81398
17.5964
11.1503
18.7102
12.7859
19.7064
14.8162
17.2284
20.5027
0.364629
1.93261
0.7304
1.9612
1.10051
2.00136
1.47816
2.03973
1.86461
2.08917
2.26191
2.1512
2.67213
2.22734
3.0976
2.31873
3.54081
2.42617
4.00448
2.55009
4.49141
2.69102
5.00457
2.84969
5.54698
3.02722
6.12179
3.22529
6.73228
3.44632
7.38188
3.69364
8.0742
3.97163
8.8131
4.28618
9.60266
4.64517
10.4471
5.05913
11.3506
5.54204
12.3168
6.113
13.3481
6.79715
14.4429
7.6319
15.5952
8.66162
16.78
9.96552
17.9628
11.603
19.0351
13.744
16.3596
19.9038
0.330991
1.60162
0.663892
1.6283
1.00106
1.66419
1.34514
1.69565
1.69722
1.73708
2.05932
1.7891
2.43351
1.85315
2.8221
1.93014
3.22761
2.02066
3.6527
2.125
4.10015
2.24357
4.57285
2.37699
5.07382
2.52626
5.60619
2.69291
6.17331
2.8792
6.77876
3.08819
7.42645
3.32395
8.12065
3.59197
8.86616
3.89966
9.66825
4.25704
10.5327
4.67762
11.4652
5.18048
12.4716
5.79076
13.5546
6.54887
14.7163
7.49991
15.9361
8.74573
17.1945
10.3447
18.3585
12.58
15.3865
19.3317
0.299818
1.3018
0.602406
1.32571
0.909435
1.35716
1.22278
1.38231
1.54344
1.41642
1.87338
1.45916
2.21464
1.5119
2.56945
1.57533
2.94026
1.64985
3.32961
1.73565
3.74016
1.83302
4.17469
1.94246
4.63609
2.06486
5.12742
2.20159
5.65199
2.35463
6.21346
2.52672
6.81589
2.72152
7.46391
2.94395
8.16286
3.2007
8.91895
3.50096
9.73933
3.85723
10.6319
4.28789
11.6059
4.8168
12.669
5.4858
13.8325
6.33641
15.0837
7.49454
16.4268
9.00156
17.7125
11.2942
14.252
18.847
0.271555
1.03025
0.546523
1.05074
0.826342
1.07734
1.11183
1.09682
1.40407
1.12417
1.70493
1.1583
2.01635
1.20048
2.34048
1.2512
2.67961
1.31072
3.03614
1.37912
3.41255
1.4566
3.81144
1.54357
4.23552
1.64078
4.68772
1.74939
5.17125
1.8711
5.68972
2.00825
6.24728
2.16396
6.84878
2.34246
7.49996
2.54951
8.20776
2.79316
8.9806
3.0844
9.82851
3.43997
10.764
3.88132
11.8002
4.44961
12.9577
5.17891
14.239
6.21327
15.6746
7.56588
17.1419
9.82699
12.8699
18.5239
0.246327
0.783919
0.496304
0.800767
0.751763
0.821883
1.01214
0.836441
1.27882
0.857499
1.55348
0.88363
1.83798
0.915982
2.13431
0.954865
2.44464
1.0004
2.77115
1.05261
3.11612
1.11162
3.48193
1.17776
3.87109
1.25162
4.28633
1.33415
4.73073
1.42671
5.20779
1.53119
5.72163
1.65012
6.27717
1.78691
6.88042
1.94626
7.53883
2.13475
8.26174
2.36149
9.06111
2.6406
9.95235
2.99008
10.9546
3.44738
12.0959
4.03759
13.404
4.90521
14.9294
6.04047
16.6803
8.0761
11.1413
18.4089
0.22412
0.5598
0.451448
0.573438
0.685172
0.588159
0.922936
0.598678
1.16662
0.613815
1.41769
0.632559
1.67787
0.655799
1.94904
0.683701
2.23314
0.7163
2.53217
0.753575
2.8482
0.795603
3.18334
0.842616
3.5399
0.895059
3.9204
0.953645
4.32772
1.0194
4.76519
1.09371
5.23683
1.17848
5.74749
1.27625
6.30324
1.39052
6.91174
1.52625
7.5829
1.69033
8.32993
1.89358
9.17024
2.14977
10.1286
2.48898
11.2381
2.92811
12.5547
3.58867
14.1463
4.44879
16.247
5.97541
8.97639
18.4119
0.204887
0.354912
0.411373
0.366953
0.625712
0.37382
0.843042
0.381347
1.06599
0.390866
1.29574
0.402813
1.5339
0.41764
1.78218
0.435417
2.04235
0.456131
2.31618
0.479741
2.6055
0.506285
2.9122
0.535912
3.23835
0.568917
3.58622
0.605769
3.95848
0.64714
4.35824
0.693945
4.78931
0.747413
5.25635
0.809205
5.76527
0.881607
6.32366
0.967858
6.94148
1.07251
7.63241
1.20265
8.41463
1.36754
9.31617
1.58744
10.3724
1.87188
11.6569
2.30418
13.2602
2.84551
15.5974
3.63815
6.39042
18.1834
0.188242
0.16667
0.375269
0.179927
0.5724
0.176689
0.771105
0.182642
0.975244
0.186727
1.18559
0.192469
1.40368
0.199547
1.63107
0.208033
1.86931
0.21789
2.11996
0.22909
2.3846
0.241641
2.6649
0.255617
2.96265
0.271161
3.27992
0.288503
3.61909
0.30797
3.98303
0.330005
4.37524
0.3552
4.80009
0.384353
5.26313
0.41857
5.7716
0.45939
6.33504
0.509068
6.96682
0.57087
7.68474
0.649624
8.51742
0.754765
9.49847
0.890825
10.7039
1.09878
12.2102
1.3392
14.4884
1.35998
3.56719
17.3116
0.16667
0.346597
0.523286
0.705928
0.892655
1.08512
1.28467
1.4927
1.71059
1.93968
2.18132
2.43694
2.7081
2.99661
3.30458
3.63458
3.98978
4.37414
4.79271
5.2521
5.76116
6.33203
6.98166
7.73642
8.62725
9.72603
11.0652
12.4252
15.9924
1.2427
54.1351
1.25608
54.1269
1.28295
54.1134
1.31591
54.1073
1.34929
54.1069
1.37102
54.1185
1.3744
54.1369
1.36697
54.1477
1.3696
54.1376
1.39177
54.1181
1.41566
54.1163
1.42264
54.1333
1.42071
54.1422
1.42145
54.1395
1.41658
54.1451
1.40283
54.154
1.40002
54.143
1.4129
54.1274
1.4376
54.1155
1.42935
54.1485
1.39883
54.1707
1.36058
54.1785
1.36302
54.1378
1.3914
54.1119
1.41719
54.1144
1.41491
54.1425
1.41206
54.1431
1.40469
54.1476
1.37977
54.1652
1.33617
54.1838
1.32232
54.1541
1.34859
54.114
1.39625
54.0926
1.41705
54.1194
1.42002
54.1373
1.42273
54.1375
1.4258
54.1372
1.42891
54.1371
1.43195
54.1372
1.43488
54.1373
1.43766
54.1375
1.44025
54.1376
1.44257
54.1379
1.44458
54.1382
1.44623
54.1386
1.44761
54.1389
1.44868
54.1392
1.44931
54.1396
1.4505
54.139
1.4508
54.1399
1.44982
54.1412
1.44819
54.1419
1.4461
54.1423
1.44359
54.1427
1.44061
54.1432
1.43723
54.1436
1.43329
54.1442
1.42898
54.1445
1.42414
54.1451
1.41894
54.1454
1.41328
54.1459
1.40709
54.1464
1.40053
54.1468
1.39332
54.1475
1.38582
54.1477
1.37761
54.1484
1.36916
54.1487
1.35967
54.1497
1.35015
54.1498
1.34013
54.1503
1.32939
54.151
1.3187
54.1509
1.30652
54.1524
1.29469
54.1521
1.28195
54.153
1.26951
54.1527
1.25675
54.153
1.24316
54.1538
1.2281
54.1553
1.20763
54.1607
1.18841
54.1595
1.16967
54.159
1.15012
54.1598
1.13787
54.1525
1.12086
54.1572
1.10314
54.158
1.07825
54.1651
1.06257
54.1559
1.04725
54.1556
1.02845
54.159
1.00741
54.1613
0.988149
54.1595
0.969874
54.1585
0.95072
54.1594
0.929278
54.1617
0.90525
54.1643
0.881019
54.1645
0.85664
54.1646
0.832337
54.1645
0.808054
54.1645
0.78373
54.1646
0.759335
54.1646
0.734875
54.1647
0.710373
54.1647
0.685848
54.1648
0.661321
54.1648
0.636715
54.1648
0.611971
54.165
0.587106
54.1651
0.562097
54.1652
0.536965
54.1654
0.511679
54.1655
0.486262
54.1657
0.46068
54.1658
0.434961
54.166
0.408957
54.1662
0.382827
54.1664
0.356546
54.1665
0.330165
54.1666
0.303741
54.1667
0.277369
54.1666
0.25108
54.1665
0.224854
54.1665
0.198696
54.1664
0.172095
54.1668