/*--------------------------------*- C++ -*----------------------------------*\
| =========                 |                                                 |
| \\      /  F ield         | OpenFOAM: The Open Source CFD Toolbox           |
|  \\    /   O peration     | Version:  5.x                                   |
|   \\  /    A nd           | Web:      www.OpenFOAM.org                      |
|    \\/     M anipulation  |                                                 |
\*---------------------------------------------------------------------------*/
/*   Windows 32 and 64 bit porting by blueCAPE: http://www.bluecape.com.pt   *\
|  Based on Windows porting (2.0.x v4) by Symscape: http://www.symscape.com   |
\*---------------------------------------------------------------------------*/
FoamFile
{
    version     2.0;
    format      ascii;
    class       volVectorField;
    location    "380";
    object      U;
}
// * * * * * * * * * * * * * * * * * * * * * * * * * * * * * * * * * * * * * //

dimensions      [0 1 -1 0 0 0 0];

internalField   nonuniform List<vector> 
43900
(
(1.16162 -0.000740194 -1.60693e-027)
(1.16713 0.00218483 -4.30623e-027)
(1.16971 0.000365329 1.4397e-030)
(1.16837 0.0018405 2.82824e-030)
(1.16974 0.000799597 3.67253e-030)
(1.16991 0.00201261 3.67581e-030)
(1.17013 0.00118845 5.7484e-027)
(1.17052 0.00190865 -1.14765e-026)
(1.17048 0.00165615 9.70474e-030)
(1.17016 0.00184063 -1.14485e-026)
(1.17014 0.00192814 1.14712e-026)
(1.16996 0.00199244 1.16019e-029)
(1.16994 0.00202249 -1.14124e-026)
(1.17012 0.00210132 2.50819e-029)
(1.16996 0.00217644 2.56954e-029)
(1.16989 0.00221815 2.63747e-029)
(1.17019 0.0022502 -2.27178e-026)
(1.17025 0.00232547 5.51254e-029)
(1.1699 0.00237885 2.27453e-026)
(1.1698 0.00239448 2.8683e-029)
(1.16989 0.00246875 2.91089e-029)
(1.16989 0.00248328 2.95492e-029)
(1.16968 0.00252321 3.0016e-029)
(1.16967 0.00257112 3.03771e-029)
(1.17017 0.0025538 3.0736e-029)
(1.17061 0.0026167 -2.24482e-026)
(1.17056 0.00264572 6.27154e-029)
(1.17005 0.0027165 6.34203e-029)
(1.16959 0.00276776 8.96005e-026)
(1.15867 0.0114636 0)
(1.16549 -0.00497717 0)
(1.17141 0.0090694 0)
(1.16655 -0.000175456 0)
(1.16839 0.00619887 0)
(1.16799 0.00275274 0)
(1.16829 0.00491009 0)
(1.16763 0.0046541 0)
(1.16809 0.00463637 0)
(1.16847 0.0053615 0)
(1.16857 0.00534704 0)
(1.16885 0.00553265 0)
(1.1688 0.00585853 0)
(1.16866 0.00601869 0)
(1.16895 0.00617343 0)
(1.16914 0.00634585 0)
(1.16883 0.0065014 0)
(1.1686 0.00665359 0)
(1.16909 0.00673749 0)
(1.16944 0.00694689 0)
(1.16932 0.00700858 0)
(1.1693 0.00708967 0)
(1.16963 0.00723267 0)
(1.16992 0.00724587 0)
(1.16951 0.00739517 0)
(1.16853 0.00753035 0)
(1.16809 0.00757766 0)
(1.16868 0.00763544 0)
(1.16986 0.00761627 0)
(1.10196 0.0321411 0)
(1.14466 -0.0175891 0)
(1.16301 0.0288163 0)
(1.16319 -0.0037009 0)
(1.1663 0.0208946 0)
(1.16422 0.00398186 0)
(1.16572 0.0150315 0)
(1.1664 0.00834216 0)
(1.16651 0.011836 0)
(1.16652 0.0105248 0)
(1.16673 0.010702 0)
(1.16684 0.0110281 0)
(1.16719 0.0109608 0)
(1.16725 0.0110483 0)
(1.16717 0.0111427 0)
(1.1675 0.0112319 0)
(1.16772 0.0113957 0)
(1.16772 0.0114375 0)
(1.1676 0.0115887 0)
(1.1675 0.0116484 0)
(1.16781 0.0117347 0)
(1.1682 0.0119797 0)
(1.16808 0.0120206 0)
(1.16745 0.0122081 0)
(1.16713 0.0123878 0)
(1.16782 0.0123385 0)
(1.16922 0.0124662 0)
(1.16964 0.0125407 0)
(1.16864 0.012686 1.57543e-027)
(1.04078 0.0199754 0)
(1.08663 -0.00669536 0)
(1.12953 0.0201124 0)
(1.15551 0.00822761 0)
(1.16323 0.022299 0)
(1.1659 0.0107754 0)
(1.16472 0.0206507 0)
(1.16357 0.0137132 0)
(1.16462 0.0182286 0)
(1.16484 0.0158484 0)
(1.16503 0.0169773 0)
(1.16544 0.016717 0)
(1.16545 0.0167735 0)
(1.16567 0.0168377 0)
(1.16608 0.0168647 0)
(1.16585 0.0169818 0)
(1.16577 0.0169797 0)
(1.16624 0.0171642 0)
(1.16652 0.0171769 0)
(1.16649 0.0173099 0)
(1.16651 0.0174432 0)
(1.16617 0.0174789 0)
(1.16603 0.0176232 0)
(1.16673 0.0177814 0)
(1.16782 0.0177627 0)
(1.16792 0.017937 0)
(1.16679 0.0181193 0)
(1.16577 0.0182552 0)
(1.16606 0.0184257 1.6809e-027)
(1.00329 0.0102066 3.36926e-027)
(1.0388 -0.000892391 0)
(1.07566 0.0108498 0)
(1.11395 0.012937 0)
(1.14433 0.0183638 0)
(1.15993 0.0174105 0)
(1.16328 0.0229071 0)
(1.16433 0.01864 0)
(1.16334 0.0217658 0)
(1.1635 0.0204469 0)
(1.16358 0.0209172 0)
(1.16352 0.0212642 0)
(1.16386 0.0212414 0)
(1.16382 0.0213711 0)
(1.16386 0.0215268 0)
(1.16421 0.0216271 0)
(1.16409 0.0218761 0)
(1.1638 0.0218484 0)
(1.1641 0.0220593 0)
(1.16459 0.022218 0)
(1.16442 0.0222905 0)
(1.16443 0.0224704 0)
(1.16504 0.022573 0)
(1.16511 0.0225941 0)
(1.16423 0.0228091 0)
(1.16395 0.0230176 0)
(1.1647 0.023145 0)
(1.16572 0.0232907 0)
(1.16578 0.0234079 -7.07945e-027)
(0.975979 0.00683516 -3.51617e-027)
(1.00584 0.000686184 0)
(1.03706 0.00760604 0)
(1.06944 0.0110598 0)
(1.10188 0.0149378 0)
(1.1322 0.0182498 0)
(1.15261 0.0222063 0)
(1.16094 0.0223448 0)
(1.16217 0.0246286 0)
(1.16179 0.0230777 0)
(1.16175 0.0244572 0)
(1.1619 0.0243301 0)
(1.16168 0.0246025 0)
(1.16201 0.0248764 0)
(1.16212 0.0251673 0)
(1.16175 0.0254408 0)
(1.16209 0.0255755 0)
(1.16247 0.0260026 0)
(1.16213 0.0260823 0)
(1.16169 0.026373 0)
(1.1622 0.0266392 0)
(1.1628 0.0268661 0)
(1.16246 0.0270958 0)
(1.16222 0.0274692 0)
(1.1627 0.0276957 0)
(1.16294 0.0279145 0)
(1.16233 0.0280674 0)
(1.16202 0.0283448 0)
(1.16251 0.0285462 3.74673e-027)
(0.952731 0.00529713 0)
(0.979058 0.00143553 0)
(1.00664 0.00647206 0)
(1.03529 0.0097057 0)
(1.06443 0.0130472 0)
(1.09336 0.0166885 0)
(1.12142 0.0204637 0)
(1.14476 0.0233703 0)
(1.15634 0.0260625 0)
(1.15947 0.0266399 0)
(1.1593 0.0265766 0)
(1.15898 0.0275056 0)
(1.15934 0.0277128 0)
(1.15904 0.0280184 0)
(1.15921 0.0285227 0)
(1.15957 0.0289014 0)
(1.15921 0.0293281 0)
(1.15945 0.02958 0)
(1.15973 0.0300834 0)
(1.16008 0.0304686 0)
(1.15973 0.0306327 0)
(1.15923 0.0311893 0)
(1.15972 0.0314846 0)
(1.16003 0.0318864 0)
(1.15967 0.0321501 0)
(1.15977 0.0325306 0)
(1.16085 0.0328747 0)
(1.16136 0.0332604 0)
(1.16086 0.0334945 0)
(0.931523 0.00444236 0)
(0.955468 0.001921 0)
(0.980571 0.00604632 0)
(1.00666 0.00911757 0)
(1.03336 0.0121818 0)
(1.06025 0.0154959 0)
(1.08681 0.0190612 0)
(1.11229 0.022649 0)
(1.13554 0.0259883 0)
(1.15031 0.0283984 0)
(1.15541 0.0302282 0)
(1.15554 0.0299299 0)
(1.15515 0.0308062 0)
(1.15559 0.0311952 0)
(1.15541 0.0316763 0)
(1.15526 0.0322043 0)
(1.15588 0.0324697 0)
(1.15571 0.0332568 0)
(1.15587 0.0334406 0)
(1.15595 0.0340359 0)
(1.15611 0.0346087 0)
(1.15629 0.0349335 0)
(1.1558 0.0353042 0)
(1.15598 0.0357901 0)
(1.15691 0.0361954 0)
(1.15705 0.0367542 0)
(1.15646 0.0368877 0)
(1.15607 0.0375798 0)
(1.15669 0.0378732 0)
(0.911434 0.00386235 0)
(0.933644 0.00233483 0)
(0.956926 0.00595388 0)
(0.981131 0.00895697 0)
(1.00598 0.0119175 0)
(1.03115 0.0150503 0)
(1.05629 0.0183901 0)
(1.08098 0.0218837 0)
(1.1047 0.0254362 0)
(1.12675 0.0287293 0)
(1.14353 0.0315627 0)
(1.15027 0.0336424 0)
(1.15084 0.0336767 0)
(1.15049 0.0345249 0)
(1.1508 0.0351183 0)
(1.15115 0.0358493 0)
(1.15064 0.0363842 0)
(1.15124 0.0367697 0)
(1.1512 0.0376692 0)
(1.15116 0.0382021 0)
(1.15179 0.0385722 0)
(1.1518 0.0395496 0)
(1.15252 0.0399033 0)
(1.15227 0.0404985 0)
(1.15191 0.0410363 0)
(1.15224 0.0415655 0)
(1.15309 0.042264 0)
(1.15344 0.0428695 0)
(1.15274 0.0431486 0)
(0.891968 0.00340093 0)
(0.912838 0.00273145 0)
(0.934719 0.0060632 0)
(0.957468 0.00906035 0)
(0.980856 0.0120049 0)
(1.00464 0.0150758 0)
(1.02854 0.018316 0)
(1.05227 0.0216995 0)
(1.07551 0.0251908 0)
(1.09781 0.0287227 0)
(1.11856 0.0320887 0)
(1.13631 0.0350721 0)
(1.14433 0.0375801 0)
(1.14527 0.0378828 0)
(1.14498 0.0388428 0)
(1.14505 0.0395739 0)
(1.14583 0.0403746 0)
(1.14528 0.0411692 0)
(1.14544 0.0416308 0)
(1.14619 0.042542 0)
(1.14571 0.0434196 0)
(1.1463 0.0437997 0)
(1.14649 0.044893 0)
(1.14738 0.0454486 0)
(1.14755 0.0462365 0)
(1.14707 0.0470307 0)
(1.14719 0.0473311 0)
(1.14766 0.0483471 0)
(1.14899 0.048757 -9.90627e-027)
(0.872726 0.00321834 0)
(0.892522 0.00305179 0)
(0.913305 0.00632333 0)
(0.934919 0.00938131 0)
(0.957168 0.0123799 0)
(0.979839 0.0154769 0)
(1.00271 0.0187182 0)
(1.02555 0.0220861 0)
(1.04811 0.0255561 0)
(1.07009 0.0291029 0)
(1.09111 0.0326749 0)
(1.11056 0.0361138 0)
(1.12814 0.0392452 0)
(1.1376 0.0420629 0)
(1.13862 0.0425508 0)
(1.13874 0.0438204 0)
(1.13845 0.0445942 0)
(1.1394 0.0453928 0)
(1.13951 0.0464416 0)
(1.13904 0.0473828 0)
(1.13996 0.0478906 0)
(1.13969 0.0492085 0)
(1.14019 0.0496937 0)
(1.14004 0.0505447 0)
(1.14103 0.0517372 0)
(1.14222 0.0520276 0)
(1.14207 0.0532804 0)
(1.14184 0.0539307 0)
(1.14223 0.0543215 1.0459e-026)
(0.853514 0.00318443 0)
(0.872374 0.00336705 0)
(0.892203 0.00669793 0)
(0.912854 0.00987965 0)
(0.934149 0.0129974 0)
(0.955899 0.0161974 0)
(0.977909 0.0195261 0)
(0.99998 0.0229697 0)
(1.02191 0.0265075 0)
(1.04347 0.0301196 0)
(1.06441 0.0337807 0)
(1.08441 0.0374404 0)
(1.10301 0.0409726 0)
(1.11994 0.0442621 0)
(1.13012 0.0472063 0)
(1.13099 0.0481702 0)
(1.13182 0.0496638 0)
(1.13113 0.0503128 0)
(1.13198 0.0515106 0)
(1.13304 0.0525717 0)
(1.13257 0.0538635 0)
(1.13344 0.0542334 0)
(1.13363 0.0559166 0)
(1.13433 0.0564575 0)
(1.13445 0.057162 0)
(1.1345 0.0586891 0)
(1.13578 0.0590217 0)
(1.13688 0.0602643 0)
(1.13701 0.0614071 1.14835e-026)
(0.834073 0.00311119 0)
(0.852125 0.0037269 0)
(0.871128 0.00714722 0)
(0.890946 0.0104833 0)
(0.911414 0.0137612 0)
(0.932365 0.0171116 0)
(0.953625 0.0205799 0)
(0.975016 0.0241552 0)
(0.996362 0.0278197 0)
(1.01748 0.0315567 0)
(1.03818 0.0353477 0)
(1.05824 0.0391669 0)
(1.07738 0.0429666 0)
(1.09522 0.0466402 0)
(1.11149 0.0500884 0)
(1.12193 0.0532047 0)
(1.1226 0.0544764 0)
(1.12393 0.0560442 0)
(1.12319 0.0568414 0)
(1.12403 0.0582022 0)
(1.12565 0.0594927 0)
(1.12512 0.0609518 0)
(1.12627 0.0614755 0)
(1.12688 0.0632209 0)
(1.12731 0.0643644 0)
(1.12829 0.0650483 0)
(1.1281 0.0665675 0)
(1.12869 0.0675376 0)
(1.13047 0.0679606 -1.213e-026)
(0.814408 0.003098 0)
(0.831717 0.00410244 0)
(0.849965 0.00766388 0)
(0.869036 0.0111872 0)
(0.888773 0.0146595 0)
(0.909016 0.0181979 0)
(0.929609 0.0218468 0)
(0.950394 0.0255973 0)
(0.971212 0.0294334 0)
(0.991907 0.033341 0)
(1.01232 0.0373045 0)
(1.03227 0.0413051 0)
(1.05157 0.0453171 0)
(1.06996 0.0492937 0)
(1.0871 0.0531215 0)
(1.10282 0.0567828 0)
(1.11332 0.0600436 0)
(1.11354 0.0616714 0)
(1.11542 0.0630232 0)
(1.11502 0.0642815 0)
(1.1158 0.0660283 0)
(1.11755 0.0670158 0)
(1.11734 0.0690427 0)
(1.11818 0.0695926 0)
(1.11912 0.0712723 0)
(1.1198 0.0730714 0)
(1.12133 0.0735179 0)
(1.12146 0.0752962 0)
(1.12147 0.0768198 -1.33755e-026)
(0.794402 0.00314002 0)
(0.811027 0.00450123 0)
(0.828583 0.00825622 0)
(0.846961 0.012002 0)
(0.866031 0.0157049 0)
(0.885636 0.0194717 0)
(0.905623 0.0233436 0)
(0.925853 0.0273145 0)
(0.946181 0.0313696 0)
(0.966468 0.0354963 0)
(0.986571 0.0396816 0)
(1.00635 0.0439094 0)
(1.02564 0.0481601 0)
(1.04428 0.0524079 0)
(1.06201 0.0566054 0)
(1.07853 0.0606278 0)
(1.09389 0.0645076 0)
(1.10428 0.0680124 0)
(1.10422 0.0698119 0)
(1.10609 0.0710855 0)
(1.10668 0.0729762 0)
(1.10714 0.0747081 0)
(1.10888 0.0756317 0)
(1.10911 0.0781464 0)
(1.11036 0.078924 0)
(1.11087 0.0803879 0)
(1.11174 0.0825441 0)
(1.11393 0.0831404 0)
(1.11483 0.0845594 1.41466e-026)
(0.773988 0.00322509 0)
(0.789969 0.00491797 0)
(0.806882 0.00890641 0)
(0.824615 0.0129046 0)
(0.843051 0.0168637 0)
(0.862061 0.0208879 0)
(0.881491 0.0250158 0)
(0.901202 0.029239 0)
(0.921067 0.0335455 0)
(0.940957 0.0379234 0)
(0.960747 0.042361 0)
(0.980311 0.0468443 0)
(0.999522 0.0513562 0)
(1.01824 0.0558757 0)
(1.0363 0.0603755 0)
(1.0535 0.0648038 0)
(1.06957 0.0690374 0)
(1.08467 0.0731446 0)
(1.09475 0.0768502 0)
(1.09447 0.0786768 0)
(1.09656 0.0801994 0)
(1.09748 0.08226 0)
(1.09792 0.0841837 0)
(1.09948 0.0850712 0)
(1.10054 0.0877974 0)
(1.10251 0.0890389 0)
(1.1028 0.0902179 0)
(1.10347 0.0927646 0)
(1.10628 0.0937128 0)
(0.753174 0.00334647 0)
(0.768541 0.00535422 0)
(0.784843 0.00960884 0)
(0.801976 0.0138878 0)
(0.81982 0.0181294 0)
(0.83826 0.0224357 0)
(0.857169 0.0268476 0)
(0.876405 0.0313557 0)
(0.895842 0.0359456 0)
(0.915362 0.0406072 0)
(0.93485 0.0453289 0)
(0.954197 0.0500978 0)
(0.973291 0.0548987 0)
(0.992019 0.0597135 0)
(1.01026 0.0645209 0)
(1.02786 0.0692922 0)
(1.04465 0.07397 0)
(1.06044 0.0784411 0)
(1.07533 0.0828633 0)
(1.08477 0.0866337 0)
(1.0847 0.0887474 0)
(1.08729 0.0904289 0)
(1.0881 0.092657 0)
(1.08907 0.0948731 0)
(1.09059 0.0958657 0)
(1.09172 0.0983724 0)
(1.09513 0.100388 0)
(1.09558 0.101367 0)
(1.09567 0.103773 0)
(0.731939 0.00350223 0)
(0.746713 0.00581517 0)
(0.762425 0.0103679 0)
(0.77898 0.0149557 0)
(0.796266 0.0195091 0)
(0.814163 0.0241269 0)
(0.832558 0.0288511 0)
(0.85133 0.033675 0)
(0.870355 0.0385837 0)
(0.88952 0.0435666 0)
(0.908717 0.048613 0)
(0.927845 0.0537109 0)
(0.946805 0.0588462 0)
(0.965497 0.0640029 0)
(0.98382 0.0691626 0)
(1.00166 0.0743044 0)
(1.0189 0.0793986 0)
(1.03539 0.0843857 0)
(1.05101 0.0891881 0)
(1.06576 0.0938817 0)
(1.07448 0.0979289 0)
(1.0749 0.100164 0)
(1.07785 0.102022 0)
(1.07873 0.104314 0)
(1.08086 0.106867 0)
(1.08177 0.107848 0)
(1.08305 0.110346 0)
(1.08648 0.112949 0)
(1.08806 0.113747 0)
(0.710298 0.0036832 4.06139e-026)
(0.724492 0.00629282 0)
(0.739632 0.0111668 0)
(0.755626 0.016084 0)
(0.772371 0.0209689 0)
(0.789752 0.0259205 0)
(0.807658 0.0309802 0)
(0.825978 0.036142 0)
(0.844594 0.0413912 0)
(0.863396 0.046716 0)
(0.882288 0.0521078 0)
(0.901176 0.0575543 0)
(0.919968 0.0630427 0)
(0.938576 0.0685582 0)
(0.95691 0.074084 0)
(0.97488 0.0796013 0)
(0.992386 0.0850881 0)
(1.00932 0.0905131 0)
(1.02557 0.0958172 0)
(1.04107 0.100919 0)
(1.05563 0.105939 0)
(1.0637 0.110103 0)
(1.06513 0.112432 0)
(1.06771 0.114363 0)
(1.06895 0.117028 0)
(1.07205 0.119484 0)
(1.07321 0.120845 0)
(1.07401 0.12344 0)
(1.07738 0.126107 0)
(0.688299 0.00388774 1.31643e-027)
(0.701923 0.00678774 0)
(0.716501 0.012004 0)
(0.731947 0.0172696 0)
(0.74816 0.0225041 0)
(0.765034 0.0278085 0)
(0.782462 0.0332236 0)
(0.80034 0.0387439 0)
(0.818566 0.0443562 0)
(0.837029 0.0500476 0)
(0.85563 0.0558067 0)
(0.874284 0.0616237 0)
(0.892904 0.0674854 0)
(0.911412 0.0733778 0)
(0.929728 0.0792852 0)
(0.947774 0.0851903 0)
(0.965468 0.0910734 0)
(0.982721 0.0969122 0)
(0.999444 0.102674 0)
(1.01556 0.108297 0)
(1.03106 0.113732 0)
(1.04568 0.119087 0)
(1.0536 0.123314 0)
(1.05554 0.125977 0)
(1.05827 0.128085 0)
(1.05937 0.131106 0)
(1.06307 0.133793 0)
(1.065 0.135658 0)
(1.06591 0.138374 0)
(0.665975 0.00411602 -4.68564e-026)
(0.679038 0.00730278 0)
(0.693065 0.0128832 0)
(0.707972 0.0185176 0)
(0.723666 0.0241214 0)
(0.740047 0.0297988 0)
(0.757012 0.0355923 0)
(0.774457 0.0414944 0)
(0.792287 0.0474922 0)
(0.810402 0.0535745 0)
(0.828709 0.0597297 0)
(0.847123 0.0659469 0)
(0.865564 0.0722135 0)
(0.883958 0.0785159 0)
(0.902231 0.0848395 0)
(0.920315 0.0911685 0)
(0.938138 0.0974851 0)
(0.955629 0.10377 0)
(0.972711 0.110002 0)
(0.989314 0.116149 0)
(1.0054 0.122149 0)
(1.02109 0.127979 0)
(1.03595 0.133765 0)
(1.04361 0.13802 0)
(1.0466 0.140924 0)
(1.04854 0.143607 0)
(1.0502 0.145841 0)
(1.0545 0.149152 0)
(1.05687 0.151053 0)
(0.643368 0.00436406 0)
(0.655876 0.0078345 0)
(0.669355 0.0137978 0)
(0.683729 0.0198184 0)
(0.698907 0.0258083 0)
(0.714796 0.0318763 0)
(0.731297 0.0380663 0)
(0.748314 0.04437 0)
(0.765752 0.0507742 0)
(0.783524 0.0572684 0)
(0.801536 0.0638407 0)
(0.819705 0.0704789 0)
(0.837955 0.0771717 0)
(0.856215 0.0839055 0)
(0.874418 0.0906658 0)
(0.8925 0.0974375 0)
(0.910397 0.104204 0)
(0.928046 0.110947 0)
(0.945383 0.117648 0)
(0.962347 0.124285 0)
(0.978886 0.130824 0)
(0.995015 0.1372 0)
(1.01094 0.1435 0)
(1.02627 0.149505 0)
(1.03342 0.153998 0)
(1.03699 0.15715 0)
(1.03974 0.159748 0)
(1.0417 0.162233 0)
(1.04662 0.165662 0)
(0.620527 0.00463209 -5.71639e-026)
(0.632486 0.00838398 0)
(0.645424 0.0147484 0)
(0.65927 0.0211718 0)
(0.673939 0.0275639 0)
(0.689342 0.0340386 0)
(0.705387 0.0406414 0)
(0.72198 0.0473644 0)
(0.73903 0.0541923 0)
(0.756451 0.0611142 0)
(0.774158 0.0681193 0)
(0.792072 0.0751956 0)
(0.81012 0.0823307 0)
(0.828235 0.089511 0)
(0.846351 0.0967224 0)
(0.864409 0.10395 0)
(0.88235 0.111178 0)
(0.900116 0.118388 0)
(0.917652 0.125563 0)
(0.934903 0.132683 0)
(0.951818 0.139727 0)
(0.96837 0.146664 0)
(0.9846 0.153458 0)
(1.00098 0.160103 0)
(1.01661 0.166827 0)
(1.02404 0.170943 0)
(1.02791 0.17479 0)
(1.03151 0.177222 0)
(1.03475 0.180121 5.40845e-026)
(0.597503 0.00491719 -1.60095e-027)
(0.608916 0.00894931 0)
(0.621319 0.0157316 0)
(0.634641 0.0225734 0)
(0.648803 0.0293824 0)
(0.663722 0.0362791 0)
(0.679311 0.0433109 0)
(0.69548 0.0504693 0)
(0.712143 0.0577385 0)
(0.729218 0.0651077 0)
(0.746626 0.0725658 0)
(0.764289 0.0800998 0)
(0.782135 0.087696 0)
(0.800098 0.0953413 0)
(0.818117 0.103021 0)
(0.836135 0.110721 0)
(0.854097 0.118424 0)
(0.871951 0.126114 0)
(0.889646 0.133774 0)
(0.907131 0.141385 0)
(0.924361 0.148929 0)
(0.941298 0.156385 0)
(0.957934 0.163741 0)
(0.974331 0.170882 0)
(0.991099 0.178126 0)
(1.00773 0.185053 0)
(1.01532 0.189596 0)
(1.01975 0.193062 0)
(1.02365 0.195971 1.06438e-027)
(0.574344 0.00522122 6.58057e-026)
(0.585218 0.00953447 0)
(0.597088 0.0167536 0)
(0.609891 0.0240311 0)
(0.623551 0.0312737 0)
(0.63799 0.0386094 0)
(0.653126 0.0460874 0)
(0.668874 0.0536986 0)
(0.685151 0.0614267 0)
(0.701878 0.0692592 0)
(0.71898 0.0771851 0)
(0.736384 0.0851913 0)
(0.754021 0.0932643 0)
(0.771828 0.101391 0)
(0.789746 0.109554 0)
(0.807719 0.11774 0)
(0.825693 0.125932 0)
(0.843619 0.134113 0)
(0.861448 0.142266 0)
(0.879135 0.150373 0)
(0.896637 0.158414 0)
(0.913916 0.16637 0)
(0.930947 0.174227 0)
(0.947735 0.18196 0)
(0.964302 0.189496 0)
(0.981658 0.197138 0)
(0.999462 0.20459 0)
(1.00799 0.209194 0)
(1.01195 0.212744 -6.18129e-026)
(0.55109 0.00554236 0)
(0.561429 0.0101391 0)
(0.572773 0.0178135 0)
(0.585061 0.0255435 0)
(0.598223 0.033236 0)
(0.612186 0.041027 0)
(0.626872 0.0489681 0)
(0.642202 0.0570494 0)
(0.658098 0.065254 0)
(0.674483 0.0735683 0)
(0.691284 0.0819805 0)
(0.708433 0.090478 0)
(0.725862 0.0990461 0)
(0.743511 0.107669 0)
(0.761322 0.116332 0)
(0.779243 0.125019 0)
(0.797221 0.133713 0)
(0.81521 0.142396 0)
(0.833164 0.151052 0)
(0.851038 0.159661 0)
(0.868791 0.168204 0)
(0.886387 0.176661 0)
(0.903797 0.185015 0)
(0.921004 0.193253 0)
(0.93801 0.201356 0)
(0.954849 0.209258 0)
(0.972984 0.217285 0)
(0.992095 0.225425 0)
(1.00132 0.230073 0)
(0.527785 0.00588051 0)
(0.537594 0.0107651 0)
(0.548418 0.0189144 0)
(0.560196 0.0271146 0)
(0.572864 0.0352743 0)
(0.586354 0.0435387 0)
(0.600592 0.0519615 0)
(0.615506 0.0605319 0)
(0.63102 0.0692323 0)
(0.647062 0.0780488 0)
(0.663564 0.0869693 0)
(0.68046 0.0959798 0)
(0.697686 0.105064 0)
(0.715181 0.114206 0)
(0.73289 0.123389 0)
(0.750761 0.132596 0)
(0.768745 0.14181 0)
(0.786796 0.151011 0)
(0.80487 0.160182 0)
(0.822924 0.169304 0)
(0.840919 0.178358 0)
(0.858818 0.187323 0)
(0.876589 0.196181 0)
(0.89421 0.204915 0)
(0.911669 0.213512 0)
(0.928976 0.221967 0)
(0.946202 0.23016 0)
(0.965236 0.2388 0)
(0.98507 0.247228 7.25193e-026)
(0.504463 0.00623599 0)
(0.51375 0.0114154 0)
(0.524057 0.0200608 0)
(0.53533 0.0287508 0)
(0.547509 0.0373972 0)
(0.560529 0.0461553 0)
(0.574323 0.0550809 0)
(0.588823 0.0641622 0)
(0.603958 0.0733807 0)
(0.61966 0.082722 0)
(0.635864 0.0921721 0)
(0.652506 0.101716 0)
(0.669528 0.111338 0)
(0.68687 0.121021 0)
(0.70448 0.130746 0)
(0.722307 0.140495 0)
(0.740303 0.150249 0)
(0.758422 0.159989 0)
(0.776621 0.169694 0)
(0.794858 0.179345 0)
(0.813094 0.188921 0)
(0.831293 0.198402 0)
(0.849422 0.207768 0)
(0.867452 0.217 0)
(0.885365 0.226081 0)
(0.903156 0.235002 0)
(0.920849 0.243743 0)
(0.938518 0.252248 0)
(0.958647 0.261487 9.20337e-028)
(0.481157 0.00660742 0)
(0.489928 0.0120903 0)
(0.499725 0.0212529 0)
(0.510498 0.030452 0)
(0.522189 0.0396044 0)
(0.534741 0.0488763 0)
(0.548093 0.0583257 0)
(0.562181 0.0679398 0)
(0.576939 0.0776991 0)
(0.592303 0.0875887 0)
(0.608211 0.0975933 0)
(0.624605 0.107697 0)
(0.641426 0.117884 0)
(0.65862 0.128134 0)
(0.676135 0.138427 0)
(0.693922 0.148744 0)
(0.711934 0.159065 0)
(0.730127 0.169367 0)
(0.748459 0.179629 0)
(0.766888 0.189829 0)
(0.785375 0.199946 0)
(0.803884 0.209958 0)
(0.822378 0.219843 0)
(0.840828 0.229581 0)
(0.859207 0.239154 0)
(0.8775 0.248545 0)
(0.895702 0.257749 0)
(0.913821 0.266711 0)
(0.932236 0.275584 -1.63713e-025)
(0.457902 0.00699334 0)
(0.466164 0.0127898 0)
(0.475457 0.0224904 0)
(0.485733 0.0322174 0)
(0.49694 0.0418949 0)
(0.509027 0.0517009 0)
(0.521937 0.0616957 0)
(0.535611 0.0718653 0)
(0.549991 0.0821897 0)
(0.565016 0.0926532 0)
(0.580629 0.10324 0)
(0.596773 0.113933 0)
(0.613395 0.124715 0)
(0.630443 0.135563 0)
(0.647867 0.146457 0)
(0.66562 0.157374 0)
(0.683657 0.168292 0)
(0.701935 0.179186 0)
(0.720411 0.190034 0)
(0.739046 0.20081 0)
(0.7578 0.211491 0)
(0.776634 0.222053 0)
(0.795513 0.232472 0)
(0.814402 0.242726 0)
(0.83327 0.252792 0)
(0.852091 0.262653 0)
(0.870846 0.272294 0)
(0.889523 0.281715 0)
(0.908143 0.290721 -6.23186e-028)
(0.434731 0.00739193 0)
(0.442492 0.0135135 0)
(0.451288 0.0237724 0)
(0.461071 0.0340454 0)
(0.471796 0.0442669 0)
(0.483417 0.0546278 0)
(0.495883 0.0651903 0)
(0.509143 0.0759395 0)
(0.52314 0.0868548 0)
(0.537822 0.0979199 0)
(0.553134 0.109118 0)
(0.569025 0.120432 0)
(0.585447 0.131841 0)
(0.602348 0.143322 0)
(0.619685 0.154851 0)
(0.63741 0.166404 0)
(0.655481 0.177955 0)
(0.673855 0.189478 0)
(0.692491 0.200946 0)
(0.711349 0.212332 0)
(0.73039 0.223608 0)
(0.749575 0.234748 0)
(0.768866 0.245723 0)
(0.788226 0.256509 0)
(0.807619 0.26708 0)
(0.827013 0.277413 0)
(0.846379 0.28749 0)
(0.86569 0.297303 0)
(0.884915 0.30677 9.1939e-026)
(0.411681 0.0078006 0)
(0.418951 0.0142599 0)
(0.427255 0.0250955 0)
(0.436548 0.0359309 0)
(0.44679 0.0467142 0)
(0.457943 0.0576496 0)
(0.469962 0.0688013 0)
(0.482801 0.0801538 0)
(0.496411 0.0916859 0)
(0.510743 0.103381 0)
(0.525749 0.115221 0)
(0.541382 0.127187 0)
(0.557597 0.139257 0)
(0.57435 0.151406 0)
(0.591596 0.163608 0)
(0.609295 0.175838 0)
(0.627405 0.188065 0)
(0.645885 0.20026 0)
(0.664695 0.212393 0)
(0.683797 0.224431 0)
(0.70315 0.236343 0)
(0.722715 0.248097 0)
(0.742454 0.259663 0)
(0.762326 0.27101 0)
(0.782292 0.282108 0)
(0.802315 0.29293 0)
(0.822358 0.303452 0)
(0.842383 0.313655 0)
(0.862346 0.323514 9.7575e-026)
(0.388791 0.00821593 0)
(0.395579 0.0150257 0)
(0.403398 0.0264541 0)
(0.412203 0.0378655 0)
(0.421962 0.0492258 0)
(0.432643 0.0607531 0)
(0.444208 0.0725136 0)
(0.456618 0.084491 0)
(0.46983 0.0966638 0)
(0.483802 0.109015 0)
(0.498491 0.121528 0)
(0.513856 0.13418 0)
(0.529857 0.146948 0)
(0.546453 0.159807 0)
(0.563605 0.172728 0)
(0.581274 0.18568 0)
(0.599423 0.198631 0)
(0.618014 0.211548 0)
(0.63701 0.224395 0)
(0.656373 0.237136 0)
(0.676062 0.249734 0)
(0.69604 0.262152 0)
(0.716265 0.274354 0)
(0.736696 0.286302 0)
(0.75729 0.297962 0)
(0.778005 0.309302 0)
(0.798796 0.32029 0)
(0.81962 0.330899 0)
(0.840425 0.34111 -1.02906e-025)
(0.366104 0.00863427 0)
(0.372421 0.0158073 0)
(0.379761 0.0278413 0)
(0.38808 0.0398396 0)
(0.397354 0.0517897 0)
(0.407556 0.0639243 0)
(0.418659 0.0763114 0)
(0.430629 0.0889341 0)
(0.44343 0.101771 0)
(0.457027 0.114807 0)
(0.471383 0.128022 0)
(0.486463 0.141395 0)
(0.502233 0.154902 0)
(0.518657 0.168514 0)
(0.535702 0.182199 0)
(0.553334 0.195925 0)
(0.57152 0.209654 0)
(0.590225 0.223349 0)
(0.609414 0.236968 0)
(0.629052 0.250471 0)
(0.649101 0.263815 0)
(0.669522 0.276954 0)
(0.690274 0.289847 0)
(0.711312 0.302449 0)
(0.732592 0.314717 0)
(0.754065 0.326613 0)
(0.775683 0.338097 0)
(0.797392 0.349137 0)
(0.819137 0.359704 1.08098e-025)
(0.343667 0.00905191 0)
(0.349524 0.0166 0)
(0.35639 0.0292496 0)
(0.364224 0.0418424 0)
(0.373008 0.0543926 0)
(0.382725 0.0671479 0)
(0.393354 0.0801776 0)
(0.404869 0.0934647 0)
(0.417242 0.106989 0)
(0.430444 0.120735 0)
(0.444445 0.134683 0)
(0.459218 0.148812 0)
(0.474735 0.163097 0)
(0.490968 0.177505 0)
(0.507889 0.192003 0)
(0.525469 0.206555 0)
(0.543681 0.221119 0)
(0.562495 0.235654 0)
(0.58188 0.250112 0)
(0.601803 0.264445 0)
(0.62223 0.278603 0)
(0.643123 0.292534 0)
(0.66444 0.306185 0)
(0.686136 0.319504 0)
(0.708163 0.33244 0)
(0.730468 0.344942 0)
(0.752995 0.356965 0)
(0.775684 0.368466 0)
(0.798472 0.379407 -2.27368e-025)
(0.321529 0.0094653 0)
(0.326936 0.017398 0)
(0.333334 0.0306699 0)
(0.340682 0.0438614 0)
(0.348971 0.0570192 0)
(0.358192 0.0704059 0)
(0.368333 0.0840917 0)
(0.379376 0.0980599 0)
(0.3913 0.112292 0)
(0.404084 0.126772 0)
(0.417707 0.141482 0)
(0.432147 0.156401 0)
(0.447384 0.1715 0)
(0.463399 0.186748 0)
(0.48017 0.202108 0)
(0.497676 0.217541 0)
(0.515894 0.233004 0)
(0.534803 0.248446 0)
(0.554376 0.263816 0)
(0.574587 0.279058 0)
(0.595404 0.294111 0)
(0.616793 0.308915 0)
(0.638712 0.323406 0)
(0.661117 0.33752 0)
(0.683956 0.351194 0)
(0.707171 0.364366 0)
(0.730698 0.37698 0)
(0.754469 0.388981 0)
(0.778411 0.400324 1.10621e-027)
(0.299741 0.00987157 0)
(0.304707 0.0181943 0)
(0.310642 0.0320919 0)
(0.317502 0.045883 0)
(0.325288 0.0596524 0)
(0.334003 0.0736778 0)
(0.343641 0.0880299 0)
(0.354192 0.102692 0)
(0.365644 0.117648 0)
(0.377983 0.132884 0)
(0.391198 0.148382 0)
(0.405274 0.164121 0)
(0.4202 0.180073 0)
(0.435963 0.196204 0)
(0.452552 0.21248 0)
(0.46995 0.228856 0)
(0.488146 0.245283 0)
(0.507126 0.261708 0)
(0.526871 0.27807 0)
(0.547363 0.294306 0)
(0.568575 0.310347 0)
(0.590477 0.326119 0)
(0.613032 0.341545 0)
(0.636195 0.356547 0)
(0.659912 0.371046 0)
(0.68412 0.384966 0)
(0.708747 0.398235 0)
(0.733713 0.410786 0)
(0.758932 0.422559 1.54501e-027)
(0.278358 0.0102692 0)
(0.282888 0.0189807 0)
(0.288362 0.0335046 0)
(0.294732 0.0478921 0)
(0.302008 0.0622733 0)
(0.310203 0.076941 0)
(0.319322 0.0919654 0)
(0.32936 0.107331 0)
(0.340315 0.123024 0)
(0.352181 0.139032 0)
(0.364955 0.155341 0)
(0.37863 0.171929 0)
(0.393204 0.188769 0)
(0.408674 0.20583 0)
(0.425036 0.223073 0)
(0.442287 0.240451 0)
(0.460423 0.257912 0)
(0.47944 0.275397 0)
(0.499331 0.292842 0)
(0.520085 0.310171 0)
(0.541686 0.327304 0)
(0.564111 0.344155 0)
(0.587329 0.360631 0)
(0.611296 0.376634 0)
(0.635959 0.392067 0)
(0.66125 0.406833 0)
(0.687087 0.420838 0)
(0.713376 0.433998 0)
(0.740013 0.446239 1.30155e-025)
(0.257435 0.0106585 0)
(0.261531 0.0197475 0)
(0.266545 0.0348952 0)
(0.272421 0.0498709 0)
(0.279179 0.0648587 0)
(0.286843 0.0801661 0)
(0.295425 0.0958625 0)
(0.304929 0.111934 0)
(0.31536 0.12837 0)
(0.326722 0.145161 0)
(0.339018 0.162296 0)
(0.352252 0.179756 0)
(0.366429 0.197514 0)
(0.381556 0.21554 0)
(0.397642 0.233795 0)
(0.414695 0.252231 0)
(0.432721 0.270796 0)
(0.451728 0.289426 0)
(0.471722 0.30805 0)
(0.492705 0.326584 0)
(0.514675 0.344935 0)
(0.53762 0.363 0)
(0.561518 0.380666 0)
(0.586332 0.397813 0)
(0.61201 0.414318 0)
(0.63848 0.430056 0)
(0.665651 0.444905 0)
(0.69341 0.458756 0)
(0.72163 0.47151 -1.32434e-025)
(0.237026 0.0110419 0)
(0.240686 0.0204836 0)
(0.24524 0.0362486 0)
(0.25062 0.0517969 0)
(0.256855 0.0673772 0)
(0.263976 0.083312 0)
(0.272005 0.0996694 0)
(0.280954 0.116437 0)
(0.290835 0.13361 0)
(0.30166 0.151182 0)
(0.31344 0.169145 0)
(0.326189 0.187483 0)
(0.339921 0.206174 0)
(0.354653 0.225189 0)
(0.370404 0.244491 0)
(0.387194 0.264038 0)
(0.405042 0.283773 0)
(0.423973 0.303633 0)
(0.444008 0.323539 0)
(0.465168 0.343401 0)
(0.487467 0.363111 0)
(0.510911 0.382549 0)
(0.535492 0.401578 0)
(0.561186 0.420051 0)
(0.587946 0.437809 0)
(0.615699 0.45469 0)
(0.644342 0.470535 0)
(0.673744 0.485193 0)
(0.703746 0.498535 1.39508e-025)
(0.217186 0.0114235 0)
(0.220406 0.0211764 0)
(0.224504 0.0375461 0)
(0.229388 0.0536398 0)
(0.235095 0.0697853 0)
(0.241666 0.0863204 0)
(0.249129 0.103311 0)
(0.257503 0.120749 0)
(0.26681 0.138632 0)
(0.277066 0.156961 0)
(0.288294 0.175733 0)
(0.300512 0.194936 0)
(0.313745 0.214553 0)
(0.328019 0.234561 0)
(0.343363 0.25493 0)
(0.359813 0.275621 0)
(0.377403 0.29658 0)
(0.396172 0.317744 0)
(0.416165 0.339031 0)
(0.437422 0.360346 0)
(0.459983 0.38157 0)
(0.483877 0.402563 0)
(0.509121 0.423162 0)
(0.535709 0.443186 0)
(0.563608 0.462431 0)
(0.592749 0.480687 0)
(0.623021 0.497738 0)
(0.654268 0.51338 0)
(0.686292 0.527431 0)
(0.197968 0.0118071 0)
(0.200745 0.0218112 0)
(0.204396 0.0387629 0)
(0.20879 0.055358 0)
(0.213971 0.0720226 0)
(0.219989 0.0891101 0)
(0.226878 0.106684 0)
(0.234664 0.12474 0)
(0.243375 0.143282 0)
(0.253035 0.162317 0)
(0.263672 0.181849 0)
(0.275314 0.201873 0)
(0.287992 0.22238 0)
(0.301739 0.243356 0)
(0.316598 0.264779 0)
(0.332617 0.286616 0)
(0.349848 0.308824 0)
(0.368349 0.331343 0)
(0.388187 0.354097 0)
(0.409432 0.376983 0)
(0.432153 0.399876 0)
(0.456414 0.422618 0)
(0.482263 0.44502 0)
(0.509727 0.46686 0)
(0.5388 0.487884 0)
(0.569425 0.507813 0)
(0.60149 0.526359 0)
(0.634813 0.543237 0)
(0.669148 0.558189 1.41758e-025)
(0.179421 0.0121932 0)
(0.181766 0.0223714 0)
(0.184986 0.0398659 0)
(0.188905 0.0568961 0)
(0.193569 0.0740101 0)
(0.199038 0.0915766 0)
(0.205352 0.109656 0)
(0.212542 0.128248 0)
(0.220642 0.147365 0)
(0.229683 0.167022 0)
(0.239698 0.18723 0)
(0.250719 0.207994 0)
(0.262783 0.229317 0)
(0.275935 0.251195 0)
(0.290223 0.273619 0)
(0.305709 0.296569 0)
(0.322464 0.320017 0)
(0.340565 0.343913 0)
(0.360108 0.368186 0)
(0.381196 0.392737 0)
(0.403936 0.417438 0)
(0.428433 0.442118 0)
(0.454783 0.466563 0)
(0.483061 0.49051 0)
(0.513302 0.513646 0)
(0.545482 0.535611 0)
(0.579498 0.556017 0)
(0.615149 0.574469 0)
(0.652132 0.590593 -5.68936e-027)
(0.161599 0.0125732 0)
(0.163536 0.0228374 0)
(0.166357 0.0408127 0)
(0.169822 0.0581856 0)
(0.173987 0.0756538 0)
(0.178921 0.0935985 0)
(0.184666 0.112076 0)
(0.19126 0.131091 0)
(0.198742 0.150667 0)
(0.207147 0.170826 0)
(0.216511 0.191591 0)
(0.226871 0.212979 0)
(0.238268 0.235005 0)
(0.25075 0.257684 0)
(0.264378 0.28102 0)
(0.279222 0.305015 0)
(0.295367 0.329656 0)
(0.312922 0.354907 0)
(0.332007 0.380709 0)
(0.352762 0.406978 0)
(0.375337 0.433589 0)
(0.399892 0.460367 0)
(0.426583 0.48708 0)
(0.455552 0.513426 0)
(0.486901 0.539029 0)