/*--------------------------------*- C++ -*----------------------------------*\
| =========                 |                                                 |
| \\      /  F ield         | OpenFOAM: The Open Source CFD Toolbox           |
|  \\    /   O peration     | Version:  5.x                                   |
|   \\  /    A nd           | Web:      www.OpenFOAM.org                      |
|    \\/     M anipulation  |                                                 |
\*---------------------------------------------------------------------------*/
/*   Windows 32 and 64 bit porting by blueCAPE: http://www.bluecape.com.pt   *\
|  Based on Windows porting (2.0.x v4) by Symscape: http://www.symscape.com   |
\*---------------------------------------------------------------------------*/
FoamFile
{
    version     2.0;
    format      ascii;
    class       volScalarField;
    location    "240";
    object      epsilon;
}
// * * * * * * * * * * * * * * * * * * * * * * * * * * * * * * * * * * * * * //

dimensions      [0 2 -3 0 0 0 0];

internalField   nonuniform List<scalar> 
43900
(
0.00152925
0.00151909
0.00151979
0.00151971
0.00151967
0.00151966
0.00151967
0.00151967
0.00151967
0.00151968
0.00151968
0.00151968
0.00151968
0.00151968
0.00151968
0.00151968
0.00151968
0.00151969
0.00151969
0.00151969
0.00151969
0.00151969
0.00151969
0.00151969
0.00151969
0.00151969
0.00151969
0.00151969
0.00151969
0.000413602
3.81707e-005
3.16655e-005
3.15192e-005
3.2729e-005
3.27925e-005
3.28038e-005
3.27894e-005
3.27916e-005
3.28002e-005
3.28027e-005
3.28033e-005
3.28038e-005
3.28044e-005
3.28055e-005
3.28081e-005
3.28086e-005
3.28096e-005
3.28112e-005
3.28111e-005
3.28125e-005
3.28134e-005
3.28131e-005
3.28144e-005
3.28147e-005
3.28144e-005
3.28156e-005
3.28156e-005
3.28153e-005
0.050815
0.0057442
0.000288739
1.14296e-005
1.70687e-006
1.32767e-006
1.32669e-006
1.40962e-006
1.41876e-006
1.41758e-006
1.41684e-006
1.41709e-006
1.41746e-006
1.41776e-006
1.41807e-006
1.41841e-006
1.41864e-006
1.41893e-006
1.41917e-006
1.41937e-006
1.41961e-006
1.41974e-006
1.4199e-006
1.42007e-006
1.42014e-006
1.42027e-006
1.42039e-006
1.42043e-006
1.4205e-006
0.146318
0.043638
0.00962744
0.00130983
8.26691e-005
3.37699e-006
3.39761e-007
1.22269e-007
1.08327e-007
1.15844e-007
1.19928e-007
1.20008e-007
1.19496e-007
1.1949e-007
1.19638e-007
1.1968e-007
1.19695e-007
1.19734e-007
1.19774e-007
1.19805e-007
1.19829e-007
1.19855e-007
1.1988e-007
1.19899e-007
1.19918e-007
1.19937e-007
1.19952e-007
1.1997e-007
1.19981e-007
0.198145
0.0847379
0.033971
0.0113071
0.00266414
0.000359465
2.25149e-005
9.57533e-007
8.27187e-008
2.19517e-008
1.64519e-008
1.74221e-008
1.85612e-008
1.85867e-008
1.83924e-008
1.84248e-008
1.84824e-008
1.84772e-008
1.84778e-008
1.84843e-008
1.84912e-008
1.8496e-008
1.84997e-008
1.85044e-008
1.85083e-008
1.85116e-008
1.85153e-008
1.85187e-008
1.85211e-008
0.222831
0.109111
0.0532538
0.0250571
0.0104706
0.00329772
0.000694963
7.43897e-005
3.99596e-006
1.85034e-007
1.79522e-008
5.30282e-009
4.10005e-009
4.48898e-009
4.77181e-009
4.70097e-009
4.65287e-009
4.67903e-009
4.68634e-009
4.68153e-009
4.6801e-009
4.68098e-009
4.68232e-009
4.68337e-009
4.68452e-009
4.68549e-009
4.68638e-009
4.68767e-009
4.6884e-009
0.234775
0.12392
0.0662404
0.035354
0.0183865
0.00890698
0.00354721
0.000962941
0.000148853
1.10773e-005
5.56015e-007
2.98863e-008
4.12546e-009
1.68696e-009
1.55269e-009
1.70366e-009
1.72471e-009
1.68696e-009
1.68906e-009
1.70045e-009
1.70336e-009
1.7037e-009
1.70401e-009
1.70447e-009
1.70499e-009
1.70528e-009
1.70568e-009
1.70617e-009
1.70635e-009
0.238093
0.131587
0.0740629
0.0421048
0.023876
0.0132402
0.00692193
0.00314504
0.00101723
0.00020821
2.12018e-005
1.25113e-006
6.71796e-008
4.72386e-009
1.1063e-009
7.23129e-010
7.77306e-010
8.24273e-010
8.08942e-010
7.96789e-010
7.98726e-010
8.00138e-010
8.00483e-010
8.00688e-010
8.00891e-010
8.0111e-010
8.01298e-010
8.01539e-010
8.01697e-010
0.237545
0.135854
0.0793025
0.0469861
0.028034
0.0166589
0.00969384
0.0053658
0.00266728
0.00100528
0.000238306
2.92994e-005
1.98575e-006
1.14179e-007
7.11664e-009
9.48276e-010
4.50132e-010
4.3106e-010
4.67365e-010
4.6427e-010
4.5777e-010
4.56921e-010
4.57299e-010
4.57513e-010
4.57679e-010
4.57813e-010
4.57959e-010
4.58105e-010
4.58159e-010
0.233316
0.136442
0.0816458
0.0497502
0.0306924
0.0190303
0.0117385
0.00709362
0.00409248
0.00214104
0.000890273
0.000229996
3.15195e-005
2.36417e-006
1.46241e-007
9.31859e-009
9.05807e-010
3.29458e-010
2.63059e-010
2.93587e-010
3.01396e-010
2.99105e-010
2.98109e-010
2.98049e-010
2.98126e-010
2.98213e-010
2.98269e-010
2.98346e-010
2.98439e-010
0.226519
0.134878
0.082133
0.0510314
0.0321991
0.0205207
0.0131169
0.00832771
0.00517452
0.00307011
0.00165867
0.000728651
0.000196302
2.83185e-005
2.28071e-006
1.52165e-007
1.02841e-008
9.09661e-010
2.67622e-010
1.83708e-010
1.96911e-010
2.0409e-010
2.04005e-010
2.03905e-010
2.03986e-010
2.04061e-010
2.04122e-010
2.04269e-010
2.0436e-010
0.218929
0.13226
0.0817644
0.0515956
0.0331155
0.0215255
0.0140967
0.00923747
0.00599904
0.00380521
0.00230096
0.00126669
0.000569939
0.000155022
2.27731e-005
1.95388e-006
1.42428e-007
1.04587e-008
9.27689e-010
2.13515e-010
1.36348e-010
1.36844e-010
1.41561e-010
1.42011e-010
1.4201e-010
1.42083e-010
1.42166e-010
1.42233e-010
1.423e-010
0.210431
0.128742
0.0806111
0.0515164
0.0335343
0.0221453
0.0147748
0.00990741
0.00663157
0.00438817
0.00282866
0.00173328
0.000963577
0.000434977
0.000116899
1.7222e-005
1.57602e-006
1.26361e-007
1.0168e-008
9.33204e-010
1.81791e-010
1.07951e-010
1.0005e-010
1.03466e-010
1.03947e-010
1.03822e-010
1.03836e-010
1.03927e-010
1.04012e-010
0.201098
0.12439
0.0787518
0.0509299
0.0335264
0.0224351
0.0151961
0.0103753
0.00710312
0.00484218
0.00325442
0.00212416
0.00131272
0.0007314
0.00032591
8.5138e-005
1.24433e-005
1.20923e-006
1.05868e-007
9.25936e-009
8.93992e-010
1.61099e-010
9.08827e-011
7.90168e-011
8.09647e-011
8.19043e-011
8.19748e-011
8.19867e-011
8.20249e-011
0.19117
0.119387
0.0763243
0.0498573
0.0331943
0.0224455
0.0153978
0.0106692
0.00743542
0.00518371
0.00358922
0.00244297
0.00160892
0.00099811
0.000553128
0.000239166
5.98725e-005
8.62117e-006
8.85827e-007
8.42201e-008
7.99399e-009
8.2128e-010
1.45904e-010
8.01109e-011
6.93634e-011
6.91566e-011
6.94758e-011
6.9649e-011
6.96931e-011
0.180799
0.11389
0.0734418
0.0484099
0.0325383
0.0222439
0.0154134
0.0108142
0.00764758
0.00542736
0.00384383
0.00269639
0.00185332
0.00122739
0.000760779
0.000416076
0.000171173
4.04805e-005
5.72734e-006
6.20698e-007
6.33183e-008
6.41496e-009
7.00668e-010
1.30764e-010
7.23125e-011
6.45449e-011
6.33399e-011
6.33642e-011
6.33917e-011
0.170117
0.108017
0.0702109
0.0466575
0.031632
0.0218265
0.0152871
0.0108319
0.0077557
0.00558518
0.00402703
0.00289021
0.00204845
0.00141733
0.000940083
0.000578785
0.000309067
0.000117327
2.58499e-005
3.5925e-006
4.08074e-007
4.43329e-008
4.80144e-009
5.65907e-010
1.16191e-010
6.80772e-011
6.25349e-011
6.16993e-011
6.15762e-011
0.159273
0.101889
0.0667233
0.0446783
0.0305289
0.0212432
0.015017
0.0107542
0.00777695
0.00567062
0.00414945
0.00303266
0.00220017
0.00157112
0.0010906
0.000721252
0.000438097
0.000225541
7.58524e-005
1.53911e-005
2.12084e-006
2.54181e-007
2.94459e-008
3.40204e-009
4.37339e-010
1.03626e-010
6.62283e-011
6.20594e-011
6.15997e-011
0.148391
0.095609
0.0630592
0.042533
0.0292814
0.0205343
0.0146379
0.010581
0.00773266
0.00569649
0.00422124
0.0031319
0.00231492
0.00169343
0.00121486
0.000843021
0.000553164
0.000328894
0.000160637
4.70932e-005
8.72075e-006
1.20993e-006
1.53395e-007
1.88945e-008
2.33062e-009
3.3158e-010
9.41453e-011
6.62791e-011
6.29765e-011
0.137595
0.0892737
0.0592921
0.0402764
0.0279299
0.0197341
0.014178
0.0103354
0.0076252
0.00567543
0.00425129
0.00319466
0.00239762
0.00178763
0.00131474
0.000944236
0.000652028
0.000421617
0.000242307
0.000108014
2.79889e-005
4.82428e-006
6.81632e-007
9.08222e-008
1.18714e-008
1.57643e-009
2.56524e-010
8.99481e-011
6.90847e-011
0.126996
0.0829702
0.055488
0.0379579
0.0265116
0.0188705
0.0136613
0.0100381
0.00746951
0.00561402
0.00424676
0.00322803
0.00245491
0.00185959
0.00139506
0.00102844
0.000736642
0.000503502
0.000318051
0.000173542
6.73483e-005
1.5613e-005
2.60346e-006
3.81038e-007
5.35035e-008
7.41268e-009
1.06983e-009
2.08963e-010
9.28032e-011
0.116682
0.0767677
0.0516997
0.0356178
0.0250571
0.017967
0.0131058
0.00970535
0.00728085
0.0055203
0.00421914
0.00323834
0.0024915
0.00191314
0.00145913
0.00109843
0.000809093
0.000575565
0.000387011
0.000236307
0.000119311
3.89099e-005
8.23555e-006
1.37681e-006
2.11873e-007
3.15486e-008
4.65305e-009
7.44368e-010
1.85656e-010
0.106723
0.0707214
0.0479695
0.0332879
0.0235905
0.0170421
0.0125261
0.00934861
0.00706968
0.00540508
0.00416741
0.00323152
0.0025129
0.00195305
0.00151091
0.00115742
0.000871859
0.00063941
0.00044957
0.000295143
0.000171634
7.75479e-005
2.14866e-005
4.28249e-006
7.31845e-007
1.18485e-007
1.87352e-008
2.99273e-009
5.59663e-010
0.0971732
0.0648734
0.0443294
0.0309924
0.0221303
0.01611
0.0119332
0.00897666
0.00684339
0.00527581
0.00410377
0.00321278
0.00252342
0.00198323
0.00155392
0.00120848
0.000927516
0.000697041
0.000506997
0.000350314
0.000222324
0.000120491
4.69966e-005
1.16561e-005
2.26887e-006
4.00072e-007
6.80293e-008
1.14587e-008
2.01139e-009
0.0880754
0.0592567
0.040804
0.0287497
0.02069
0.0151809
0.0113349
0.00859561
0.00660669
0.00513594
0.00402916
0.00318209
0.00252324
0.00200441
0.00158932
0.00125306
0.000977641
0.000749987
0.000560609
0.000402702
0.000271579
0.00016443
8.04283e-005
2.66476e-005
6.1869e-006
1.21654e-006
2.24119e-007
4.02312e-008
7.19748e-009
0.0794623
0.0538966
0.0374125
0.0265738
0.0192801
0.0142624
0.010737
0.00820977
0.00636295
0.00498842
0.00394738
0.00314573
0.00251873
0.00202067
0.00161986
0.00129314
0.00102376
0.000799499
0.000611428
0.000453066
0.000319842
0.000208819
0.000118212
5.0474e-005
1.45164e-005
3.29024e-006
6.68813e-007
1.29844e-007
2.44351e-008
0.0713578
0.0488122
0.0341692
0.0244756
0.0179085
0.0133605
0.0101438
0.0078224
0.00611473
0.00483528
0.00385982
0.00310374
0.00250846
0.00203231
0.00164651
0.0013299
0.00106706
0.00084668
0.00066042
0.000502172
0.000367552
0.000253612
0.000158692
8.19326e-005
3.01648e-005
8.03126e-006
1.81909e-006
3.84665e-007
7.738e-008
0.0637778
0.0440174
0.0310851
0.0224632
0.0165812
0.0124794
0.00955831
0.00743581
0.00586371
0.00467775
0.00376735
0.00305679
0.0024934
0.00203995
0.00166993
0.0013641
0.0011084
0.000892416
0.000708442
0.000550773
0.000415256
0.000298997
0.000200278
0.000118372
5.46138e-005
1.75704e-005
4.53263e-006
1.04986e-006
2.27266e-007
0.0567308
0.039521
0.0281679
0.0205426
0.0153028
0.0116225
0.00898303
0.00705161
0.00561097
0.00451657
0.00367054
0.00300558
0.00247463
0.00204433
0.00169068
0.00139628
0.00114833
0.000937328
0.000756177
0.0005996
0.000463699
0.00034569
0.000243773
0.000157006
8.60259e-005
3.53351e-005
1.05161e-005
2.68744e-006
6.2596e-007
0.050218
0.0353276
0.0254225
0.0187183
0.0140767
0.0107924
0.00841969
0.00667096
0.00535723
0.00435211
0.00356957
0.00295009
0.0024518
0.00204485
0.00170855
0.00142643
0.00118697
0.000981614
0.000803902
0.000649
0.000513299
0.000394169
0.000289814
0.000199194
0.000121907
6.09043e-005
2.23003e-005
6.43471e-006
1.6294e-006
0.044235
0.0314385
0.0228518
0.0169934
0.0129055
0.00999106
0.00786976
0.00629479
0.00510298
0.00418455
0.00346433
0.00289007
0.00242487
0.00204237
0.00172353
0.00145426
0.00122403
0.00102505
0.000851473
0.000698887
0.000563997
0.000444373
0.0003383
0.000244727
0.000163019
9.37834e-005
4.21153e-005
1.42155e-005
3.99189e-006
0.0387719
0.0278514
0.0204569
0.0153698
0.0117914
0.00922026
0.00733452
0.00592396
0.00484871
0.00401407
0.00335484
0.00282543
0.00239355
0.00203599
0.00173534
0.00147956
0.00125925
0.00106738
0.000898644
0.000749057
0.000615621
0.000496117
0.000388964
0.000293154
0.000208103
0.000133743
7.15259e-005
2.90185e-005
9.2093e-006
0.0338138
0.0245614
0.0182371
0.0138486
0.010736
0.00848149
0.00681519
0.00555935
0.00459496
0.00384092
0.00324107
0.00275591
0.00235725
0.0020247
0.00174321
0.00150181
0.00129223
0.00110825
0.000945137
0.000799289
0.000668006
0.000549278
0.000441664
0.00034423
0.000256477
0.000178252
0.000109941
5.43552e-005
1.99326e-005
0.0293418
0.0215609
0.0161902
0.0124299
0.00974016
0.00777605
0.00631292
0.00520183
0.00434229
0.00366538
0.00312307
0.00268133
0.00231576
0.00200854
0.00174647
0.00152039
0.00132248
0.00114729
0.000990639
0.000849344
0.000720986
0.00060376
0.000496368
0.000397951
0.000308075
0.000226569
0.000153867
9.06968e-005
4.02716e-005
0.0253334
0.0188402
0.0143125
0.0111132
0.00880471
0.00710499
0.00582879
0.00485229
0.00409134
0.00348782
0.00300093
0.00260159
0.00226878
0.00198705
0.00174497
0.00153473
0.00134933
0.00118387
0.00103464
0.000898824
0.00077427
0.000659377
0.000552987
0.000454327
0.000363004
0.000278886
0.000202189
0.000134417
7.31485e-005
0.0217634
0.0163876
0.0125994
0.00989716
0.00792986
0.00646921
0.00536382
0.00451164
0.00384281
0.00330868
0.00287487
0.00251671
0.00221626
0.00196032
0.00173917
0.00154501
0.00137263
0.00121764
0.00107671
0.000947286
0.000827464
0.000715807
0.000611286
0.000513212
0.000421226
0.000335253
0.000255298
0.000183172
0.000116555
0.0186043
0.0141899
0.0110451
0.00877971
0.00711548
0.00586939
0.00491894
0.0041808
0.00359743
0.00312847
0.00274518
0.00242676
0.00215802
0.00192768
0.00172729
0.00154994
0.00139157
0.00124797
0.00111627
0.000994212
0.0008801
0.000772649
0.000670937
0.000574351
0.000482567
0.000395548
0.000313288
0.000237049
0.000167055
0.0158273
0.0122327
0.00964276
0.00775826
0.00636104
0.00530602
0.00449503
0.00386068
0.00335601
0.00294781
0.00261221
0.00233184
0.00209387
0.0018887
0.00170897
0.00154887
0.00140527
0.00127401
0.00115255
0.00103892
0.00093159
0.000829409
0.000731542
0.000637437
0.000546802
0.000459613
0.000375963
0.000296462
0.000222984
0.0134025
0.0105005
0.00838498
0.00682963
0.00566565
0.00477934
0.00409286
0.00355221
0.00311941
0.00276737
0.00247644
0.00223219
0.00202389
0.00184344
0.00168465
0.00154283
0.00141392
0.00129547
0.00118505
0.00108083
0.000981364
0.000885585
0.000792698
0.000702174
0.000613734
0.000527345
0.00044318
0.000361527
0.000284344
0.0112995
0.00897722
0.00726349
0.00599005
0.00502803
0.00428939
0.00371307
0.00325626
0.00288852
0.00258793
0.00233844
0.00212818
0.00194821
0.00179175
0.00165357
0.00152961
0.00141572
0.0013112
0.00121287
0.00111915
0.00102874
0.000940611
0.000853971
0.000768281
0.00068323
0.00059875
0.000515025
0.000432292
0.000351858
0.00948794
0.00764607
0.00626946
0.00523521
0.00444645
0.00383589
0.00335616
0.00297366
0.00266423
0.00241031
0.00219889
0.00202026
0.00186705
0.00173359
0.00161548
0.00150918
0.0014117
0.00132106
0.00123543
0.00115318
0.001073
0.000993846
0.000914873
0.000835461
0.000755209
0.000673954
0.000591817
0.000509051
0.000426403
0.00793769
0.00649004
0.00539355
0.00456033
0.00391881
0.00341826
0.0030224
0.00270512
0.00244744
0.00223539
0.00205854
0.00190901
0.00178076
0.00166911
0.00157035
0.00148155
0.0014004
0.00132356
0.00125161
0.00118189
0.00111321
0.00104447
0.000974763
0.000903319
0.00082957
0.000753172
0.000674081
0.000592493
0.000508864
0.00661954
0.00549209
0.00462606
0.00396018
0.00344259
0.00303564
0.00271187
0.00245125
0.00223899
0.00206409
0.00191826
0.00179515
0.00168987
0.00159857
0.00151817
0.0014462
0.00138058
0.00131919
0.00126087
0.00120437
0.0011483
0.00109145
0.00103276
0.000971242
0.00090607
0.000836601
0.000762478
0.000683681
0.000600468
0.00550545
0.00463544
0.00395715
0.0034292
0.00301492
0.00268682
0.00242443
0.0022125
0.00203967
0.00189735
0.00177899
0.00167955
0.00159509
0.00152248
0.00145922
0.00140325
0.00135285
0.00130662
0.00126156
0.00121925
0.00117693
0.00113345
0.00108762
0.00103823
0.000984127
0.000924215
0.000857644
0.000783925
0.000702979
0.00456899
0.00390382
0.00337698
0.00296166
0.00263269
0.0023704
0.00215974
0.00198926
0.0018503
0.00173621
0.00164188
0.00156334
0.00149745
0.00144172
0.00139415
0.00135305
0.00131701
0.0012848
0.00125499
0.00122598
0.00119798
0.00116902
0.00113778
0.00110282
0.0010626
0.00101546
0.000959836
0.000894441
0.000818504
0.00378565
0.00328182
0.00287599
0.00255179
0.00229266
0.00208483
0.0019174
0.0017819
0.00167178
0.00158193
0.00150841
0.00144809
0.00139854
0.0013578
0.00132429
0.00129671
0.00127395
0.00125502
0.00123914
0.00122403
0.00121059
0.00119686
0.00118154
0.0011631
0.00113969
0.00110902
0.00106852
0.00101581
0.000948912
0.00313314
0.00275512
0.00244511
0.00219405
0.00199167
0.00182862
0.00169715
0.00159105
0.00150539
0.0014363
0.0013807
0.00133619
0.00130087
0.00127325
0.00125214
0.00123656
0.00122574
0.00121882
0.00121539
0.00121468
0.00121492
0.00121641
0.00121767
0.00121712
0.00121336
0.00120319
0.00118214
0.00114739
0.00109513
0.0025916
0.00231076
0.00207604
0.00188333
0.0017269
0.00160064
0.00149914
0.00141788
0.00135316
0.00130199
0.00126198
0.00123125
0.00120836
0.00119216
0.00118186
0.00117666
0.00117642
0.0011798
0.00118758
0.00119906
0.00121334
0.00122963
0.00124759
0.00126593
0.001283
0.00129559
0.00129697
0.00128707
0.00125751
0.00214376
0.00193734
0.00176147
0.00161523
0.00149614
0.0014004
0.00132429
0.00126451
0.00121822
0.00118305
0.00115704
0.00113866
0.00112684
0.00112069
0.00111987
0.00112337
0.00113183
0.00114479
0.00116232
0.0011844
0.00121092
0.00124075
0.00127444
0.00131129
0.00135001
0.00138759
0.00141859
0.00143559
0.00142923
0.001775
0.00162519
0.00149527
0.00138631
0.00129805
0.00122833
0.00117459
0.00113437
0.00110526
0.00108528
0.00107268
0.00106602
0.0010647
0.00106761
0.00107498
0.00108662
0.0011027
0.00112357
0.00114953
0.0011809
0.00121718
0.00125917
0.00130698
0.00136119
0.00142134
0.00148477
0.00154775
0.00159944
0.00162585
0.00147333
0.0013664
0.00127263
0.00119417
0.0011323
0.00108593
0.00105325
0.00103231
0.00102066
0.00101664
0.00101824
0.00102386
0.00103339
0.00104581
0.00106135
0.00108039
0.00110345
0.0011306
0.0011629
0.00120118
0.00124649
0.00130009
0.0013619
0.0014327
0.00151378
0.00160325
0.00170039
0.0017897
0.00186439
0.00122913
0.00115477
0.00108998
0.00103742
0.000999405
0.000975588
0.000964451
0.000964617
0.000972671
0.000987686
0.00100655
0.00102737
0.00104888
0.00107129
0.00109516
0.00112132
0.00115087
0.00118521
0.00122532
0.00127244
0.001328
0.00139396
0.00147107
0.00156099
0.00166433
0.00178153
0.00191679
0.00204578
0.0021879
0.00103486
0.000985417
0.000944603
0.000915225
0.000900296
0.000900163
0.000913075
0.000938535
0.000972578
0.00101154
0.00105296
0.00109454
0.00113515
0.00117411
0.00121208
0.00125053
0.00129134
0.00133671
0.00138865
0.00144922
0.00152021
0.00160476
0.00170335
0.00182162
0.00195656
0.00211578
0.00230297
0.00247992
0.00273306
0.00088433
0.000854293
0.000834171
0.000826783
0.000835708
0.000861904
0.000905071
0.000962627
0.00103152
0.00110864
0.0011891
0.00126869
0.00134467
0.00141577
0.00148262
0.00154738
0.00161319
0.00168372
0.00176261
0.00185381
0.00195962
0.00208663
0.00223153
0.00241277
0.00260824
0.00285787
0.00313761
0.00341194
0.00389253
0.000772107
0.000757532
0.000756114
0.000770522
0.00080573
0.000863774
0.000944528
0.00104829
0.00117254
0.00131288
0.001463
0.001616
0.00176608
0.0019101
0.00204776
0.00218186
0.00231754
0.00246152
0.002621
0.00280488
0.00301721
0.00327608
0.00356492
0.00394834
0.00432527
0.00488591
0.00539765
0.00607132
0.00709519
0.000692891
0.000691008
0.000707044
0.000744479
0.000809592
0.000906069
0.00103849
0.0012094
0.00141899
0.00166474
0.00194066
0.00223821
0.00254841
0.00286398
0.00318391
0.0035124
0.00385898
0.0042377
0.00466615
0.00516877
0.00576136
0.00649918
0.00734599
0.00851262
0.00967133
0.0115961
0.0131067
0.0162546
0.0188336
0.000641324
0.000650079
0.000683403
0.000745462
0.000844749
0.000989888
0.00119013
0.00145481
0.00179177
0.00220568
0.00269665
0.00326045
0.00389067
0.00458245
0.00533679
0.00616476
0.00709363
0.00816109
0.00941967
0.0109419
0.0128088
0.0151724
0.0180877
0.0220431
0.026654
0.0338435
0.041072
0.0565206
0.0673447
0.000612235
0.00063011
0.000681027
0.000769342
0.000908338
0.00111193
0.00139822
0.00178809
0.0023038
0.00296662
0.00379466
0.00480215
0.0060015
0.00740858
0.00904976
0.0109706
0.0132426
0.0159697
0.0193073
0.0234554
0.0287105
0.0354334
0.0442145
0.0558277
0.0714862
0.0933143
0.123825
0.174422
0.229683
0.000601571
0.000627262
0.000696364
0.000812822
0.000996187
0.00126805
0.00165885
0.00220692
0.00295811
0.003964
0.00527982
0.00696375
0.00907941
0.0117029
0.0149339
0.0189105
0.0238271
0.0299497
0.0376679
0.0474607
0.0601475
0.0765378
0.0986571
0.127623
0.169882
0.225101
0.320344
0.440686
0.652126
0.00151969
0.00151969
0.00151969
0.00151969
0.00151969
0.00151969
0.00151969
0.00151969
0.00151969
0.00151969
0.00151969
0.00151969
0.00151969
0.00151969
0.00151969
0.0015197
0.0015197
0.0015197
0.0015197
0.0015197
0.0015197
0.0015197
0.0015197
0.0015197
0.0015197
0.0015197
0.0015197
0.00151969
0.00151969
0.0015197
0.0015197
0.0015197
0.0015197
0.0015197
0.0015197
0.0015197
0.0015197
0.0015197
0.0015197
0.0015197
0.0015197
0.0015197
0.0015197
0.0015197
0.0015197
0.0015197
0.0015197
0.0015197
0.0015197
0.0015197
0.0015197
0.0015197
0.0015197
0.0015197
0.0015197
0.0015197
0.0015197
0.0015197
0.0015197
0.0015197
0.0015197
0.0015197
0.0015197
0.0015197
0.0015197
0.0015197
0.0015197
0.0015197
0.0015197
0.0015197
0.0015197
0.00151971
0.00151971
0.00151971
0.00151971
0.00151971
0.00151971
0.00151971
0.00151971
0.00151971
0.00151971
0.00151971
0.00151971
0.00151971
0.00151971
0.00151971
0.00151971
0.00151971
0.00151971
0.00151971
0.00151971
0.00151971
0.00151971
0.00151971
0.00151971
0.00151971
0.00151971
0.00151971
0.00151971
0.00151971
0.00151971
0.00151971
0.00151971
0.00151971
0.00151971
0.00151971
0.00151971
0.00151971
0.00151971
0.00151971
0.00151971
0.00151971
0.00151971
0.00151971
0.00151971
0.00151971
0.00151971
0.00151971
0.00151971
0.00151971
0.00151971
0.00151971
0.00151971
0.00151971
0.00151971
0.00151971
0.00151971
0.00151971
0.00151971
0.00151971
0.00151971
0.00151971
0.00151971
0.00151972
0.00151971
0.00151972
0.00151972
0.00151973
0.00154206
3.28164e-005
3.28158e-005
3.28148e-005
3.28162e-005
3.28185e-005
3.28179e-005
3.28152e-005
3.28145e-005
3.28165e-005
3.28193e-005
3.28193e-005
3.28163e-005
3.2814e-005
3.28148e-005
3.28185e-005
3.28224e-005
3.28247e-005
3.2826e-005
3.28268e-005
3.28273e-005
3.28277e-005
3.28277e-005
3.28274e-005
3.28266e-005
3.28254e-005
3.2824e-005
3.28229e-005
3.28225e-005
3.28225e-005
3.2823e-005
3.28236e-005
3.28242e-005
3.28246e-005
3.2825e-005
3.28254e-005
3.28258e-005
3.28262e-005
3.28265e-005
3.28268e-005
3.28271e-005
3.28272e-005
3.28274e-005
3.28276e-005
3.28278e-005
3.28281e-005
3.28284e-005
3.28287e-005
3.2829e-005
3.28293e-005
3.28296e-005
3.28298e-005
3.28301e-005
3.28303e-005
3.28305e-005
3.28308e-005
3.2831e-005
3.28312e-005
3.28314e-005
3.28317e-005
3.28319e-005
3.28322e-005
3.28325e-005
3.28328e-005
3.28331e-005
3.28334e-005
3.28337e-005
3.28339e-005
3.28342e-005
3.28345e-005
3.28348e-005
3.28351e-005
3.28354e-005
3.28355e-005
3.2836e-005
3.28361e-005
3.28365e-005
3.28367e-005
3.2837e-005
3.28373e-005
3.28375e-005
3.28378e-005
3.2838e-005
3.28384e-005
3.28387e-005
3.28389e-005
3.28391e-005
3.28393e-005
3.28395e-005
3.28396e-005
3.28397e-005
3.28397e-005
3.28398e-005
3.28398e-005
3.28399e-005
3.28399e-005
3.28399e-005
3.28399e-005
3.28399e-005
3.28399e-005
3.28399e-005
3.28399e-005
3.28398e-005
3.28398e-005
3.28397e-005
3.28396e-005
3.28395e-005
3.28394e-005
3.28393e-005
3.28392e-005
3.2839e-005
3.28388e-005
3.28386e-005
3.28383e-005
3.28379e-005
3.28375e-005
3.28371e-005
3.28365e-005
3.2836e-005
3.28358e-005
3.28358e-005
3.28359e-005
3.28362e-005
3.28365e-005
3.28369e-005
3.28373e-005
3.28377e-005
3.28381e-005
3.28388e-005
3.28391e-005
3.284e-005
3.28411e-005
3.28422e-005
3.28431e-005
3.28478e-005
3.28455e-005
3.28507e-005
3.28637e-005
3.28631e-005
3.37112e-005
1.42059e-006
1.42064e-006
1.42076e-006
1.42089e-006
1.42089e-006
1.42085e-006
1.42091e-006
1.42106e-006
1.42121e-006
1.4212e-006
1.42112e-006
1.42109e-006
1.42124e-006
1.42141e-006
1.42158e-006
1.42158e-006
1.42159e-006
1.42164e-006
1.4217e-006
1.42175e-006
1.4218e-006
1.42183e-006
1.42184e-006
1.42184e-006
1.42185e-006
1.4219e-006
1.42197e-006
1.42205e-006
1.42212e-006
1.42216e-006
1.42221e-006
1.42226e-006
1.42231e-006
1.42236e-006
1.42242e-006
1.42247e-006
1.42254e-006
1.4226e-006
1.42266e-006
1.42272e-006
1.42279e-006
1.42285e-006
1.42292e-006
1.42298e-006
1.42304e-006
1.42309e-006
1.42315e-006
1.4232e-006
1.42326e-006
1.42332e-006
1.42337e-006
1.42343e-006
1.42349e-006
1.42354e-006
1.4236e-006
1.42365e-006
1.42371e-006
1.42376e-006
1.42382e-006
1.42387e-006
1.42392e-006
1.42398e-006
1.42403e-006
1.42408e-006
1.42413e-006
1.42418e-006
1.42423e-006
1.42428e-006
1.42432e-006
1.42437e-006
1.42442e-006
1.42446e-006
1.42452e-006
1.42455e-006
1.4246e-006
1.42464e-006
1.42468e-006
1.42472e-006
1.42476e-006
1.4248e-006
1.42484e-006
1.42488e-006
1.4249e-006
1.42494e-006
1.42497e-006
1.42501e-006
1.42504e-006
1.42507e-006
1.4251e-006
1.42512e-006
1.42514e-006
1.42516e-006
1.42517e-006
1.42518e-006
1.42519e-006
1.42519e-006
1.4252e-006
1.4252e-006
1.42521e-006
1.4252e-006
1.4252e-006
1.42519e-006
1.42518e-006
1.42517e-006
1.42516e-006
1.42514e-006
1.42512e-006
1.4251e-006
1.42507e-006
1.42504e-006
1.425e-006
1.42497e-006
1.42492e-006
1.42487e-006
1.42482e-006
1.42476e-006
1.4247e-006
1.42464e-006
1.4246e-006
1.42456e-006
1.42454e-006
1.42451e-006
1.42447e-006
1.42444e-006
1.42439e-006
1.42436e-006
1.42433e-006
1.42423e-006
1.42426e-006
1.42427e-006
1.42421e-006
1.42439e-006
1.42423e-006
1.42473e-006
1.42478e-006
1.42705e-006
1.33974e-006
1.3423e-006
8.05566e-006
1.19997e-007
1.20018e-007
1.20031e-007
1.20043e-007
1.20061e-007
1.20081e-007
1.20097e-007
1.201e-007
1.20108e-007
1.20121e-007
1.20142e-007
1.20158e-007
1.20163e-007
1.20167e-007
1.20179e-007
1.20201e-007
1.20222e-007
1.20236e-007
1.20245e-007
1.20252e-007
1.20258e-007
1.20264e-007
1.20272e-007
1.20284e-007
1.20299e-007
1.20312e-007
1.2032e-007
1.20329e-007
1.2034e-007
1.20354e-007
1.20369e-007
1.20382e-007
1.20395e-007
1.20408e-007
1.2042e-007
1.20432e-007
1.20444e-007
1.20457e-007
1.20469e-007
1.2048e-007
1.20492e-007
1.20503e-007
1.20514e-007
1.20526e-007
1.20539e-007
1.20551e-007
1.20564e-007
1.20577e-007
1.20589e-007
1.20602e-007
1.20614e-007
1.20626e-007
1.20638e-007
1.2065e-007
1.20662e-007
1.20674e-007
1.20685e-007
1.20697e-007
1.20708e-007
1.20719e-007
1.2073e-007
1.20741e-007
1.20752e-007
1.20762e-007
1.20772e-007
1.20782e-007
1.20792e-007
1.20802e-007
1.20812e-007
1.20821e-007
1.2083e-007
1.20839e-007
1.20847e-007
1.20858e-007
1.20864e-007
1.20873e-007
1.20881e-007
1.20889e-007
1.20897e-007
1.20903e-007
1.20912e-007
1.20918e-007
1.20927e-007
1.20934e-007
1.2094e-007
1.20947e-007
1.20952e-007
1.20959e-007
1.20964e-007
1.2097e-007
1.20975e-007
1.2098e-007
1.20984e-007
1.20988e-007
1.20991e-007
1.20993e-007
1.20995e-007
1.20997e-007
1.20998e-007
1.20998e-007
1.20998e-007
1.20997e-007
1.20996e-007
1.20994e-007
1.20991e-007
1.20988e-007
1.20985e-007
1.2098e-007
1.20975e-007
1.20969e-007
1.20962e-007
1.20955e-007
1.20948e-007
1.20939e-007
1.20929e-007
1.20918e-007
1.20907e-007
1.20895e-007
1.20885e-007
1.20874e-007
1.20863e-007
1.20851e-007
1.20837e-007
1.20824e-007
1.20807e-007
1.20791e-007
1.2078e-007
1.20762e-007
1.20737e-007
1.20743e-007
1.20786e-007
1.2058e-007
1.2072e-007
1.21686e-007
1.19854e-007
1.09555e-007
2.95363e-007
2.57586e-005
0.00270632
1.85251e-008
1.85289e-008
1.85326e-008
1.85376e-008
1.85421e-008
1.8543e-008
1.8545e-008
1.85486e-008
1.85546e-008
1.85597e-008
1.85608e-008
1.85618e-008
1.85638e-008
1.85695e-008
1.85757e-008
1.85814e-008
1.85848e-008
1.85881e-008
1.85911e-008
1.8594e-008
1.8597e-008
1.86007e-008
1.86049e-008
1.86088e-008
1.86124e-008
1.86153e-008
1.86189e-008
1.86226e-008
1.86263e-008
1.86296e-008
1.86331e-008
1.86366e-008
1.86404e-008
1.86441e-008
1.86477e-008
1.86514e-008
1.8655e-008
1.86586e-008
1.86622e-008
1.86659e-008
1.86696e-008
1.86734e-008
1.86772e-008
1.86809e-008
1.86846e-008
1.86881e-008
1.86916e-008
1.8695e-008
1.86985e-008
1.8702e-008
1.87054e-008
1.87088e-008
1.87122e-008
1.87156e-008
1.87189e-008
1.87222e-008
1.87254e-008
1.87286e-008
1.87317e-008
1.87348e-008
1.87379e-008
1.87409e-008
1.87438e-008
1.87468e-008
1.87497e-008
1.87526e-008
1.87554e-008
1.87582e-008
1.87609e-008
1.87637e-008
1.87663e-008
1.87688e-008
1.87717e-008
1.87738e-008
1.87766e-008
1.87788e-008
1.87812e-008
1.87835e-008
1.87855e-008
1.8788e-008
1.87898e-008
1.87921e-008
1.87937e-008
1.87955e-008
1.87973e-008
1.8799e-008
1.88007e-008
1.8802e-008
1.88037e-008
1.88052e-008
1.88067e-008
1.88082e-008
1.88095e-008
1.88108e-008
1.88119e-008
1.88129e-008
1.88139e-008
1.88145e-008
1.88152e-008
1.88156e-008
1.88159e-008
1.88161e-008
1.88161e-008
1.88159e-008
1.88156e-008
1.88151e-008
1.88144e-008
1.88136e-008
1.88125e-008
1.88112e-008
1.88097e-008
1.8808e-008
1.88061e-008
1.8804e-008
1.88016e-008
1.87989e-008
1.87961e-008
1.87934e-008
1.87905e-008
1.87875e-008
1.87841e-008
1.87805e-008
1.87758e-008
1.8772e-008
1.87661e-008
1.87616e-008
1.87551e-008
1.87502e-008
1.8734e-008
1.87759e-008
1.86361e-008
1.89276e-008
1.88697e-008
1.65862e-008
1.89678e-008
1.69108e-007
1.57124e-005
0.00114873
0.0212468
4.6894e-009
4.69099e-009
4.69241e-009
4.69323e-009
4.69409e-009
4.6953e-009
4.69718e-009
4.69886e-009
4.69965e-009
4.70019e-009
4.70102e-009
4.70302e-009
4.70485e-009
4.70617e-009
4.70721e-009
4.70846e-009
4.70982e-009
4.71085e-009
4.71172e-009
4.7129e-009
4.71447e-009
4.71614e-009
4.71763e-009
4.71906e-009
4.72047e-009
4.72185e-009
4.72335e-009
4.72481e-009
4.72635e-009
4.72807e-009
4.72976e-009
4.73128e-009
4.73284e-009
4.73442e-009
4.73597e-009
4.73751e-009
4.73903e-009
4.74053e-009
4.74203e-009
4.74353e-009
4.74503e-009
4.74649e-009
4.74791e-009
4.74935e-009
4.7508e-009
4.75228e-009
4.75374e-009
4.7552e-009
4.75664e-009
4.75806e-009
4.75946e-009
4.76085e-009
4.76223e-009
4.76359e-009
4.76493e-009
4.76626e-009
4.76756e-009
4.76887e-009
4.77014e-009
4.77141e-009
4.77266e-009
4.77391e-009
4.77515e-009
4.77634e-009
4.77755e-009
4.77872e-009