/*--------------------------------*- C++ -*----------------------------------*\
| =========                 |                                                 |
| \\      /  F ield         | OpenFOAM: The Open Source CFD Toolbox           |
|  \\    /   O peration     | Version:  5.x                                   |
|   \\  /    A nd           | Web:      www.OpenFOAM.org                      |
|    \\/     M anipulation  |                                                 |
\*---------------------------------------------------------------------------*/
/*   Windows 32 and 64 bit porting by blueCAPE: http://www.bluecape.com.pt   *\
|  Based on Windows porting (2.0.x v4) by Symscape: http://www.symscape.com   |
\*---------------------------------------------------------------------------*/
FoamFile
{
    version     2.0;
    format      ascii;
    class       volScalarField;
    location    "240";
    object      k;
}
// * * * * * * * * * * * * * * * * * * * * * * * * * * * * * * * * * * * * * //

dimensions      [0 2 -2 0 0 0 0];

internalField   nonuniform List<scalar> 
43900
(
0.000985516
0.000989438
0.000990248
0.000990176
0.000990126
0.000990115
0.000990119
0.000990119
0.000990121
0.000990129
0.00099013
0.00099013
0.000990131
0.000990131
0.000990132
0.000990134
0.000990134
0.000990135
0.000990136
0.000990136
0.000990137
0.000990137
0.000990137
0.000990138
0.000990138
0.000990138
0.000990139
0.000990139
0.000990139
0.001648
5.59552e-005
3.89311e-005
3.81725e-005
4.08109e-005
4.09662e-005
4.09861e-005
4.09538e-005
4.09559e-005
4.09668e-005
4.09703e-005
4.09713e-005
4.09719e-005
4.09728e-005
4.09742e-005
4.09775e-005
4.09782e-005
4.09796e-005
4.09817e-005
4.09817e-005
4.09835e-005
4.09846e-005
4.09844e-005
4.0986e-005
4.09864e-005
4.09862e-005
4.09876e-005
4.09876e-005
4.09873e-005
0.29424
0.0539216
0.00408776
0.000117075
4.9795e-006
3.08326e-006
2.97826e-006
3.34449e-006
3.38106e-006
3.37543e-006
3.37114e-006
3.37167e-006
3.3729e-006
3.37366e-006
3.37434e-006
3.37514e-006
3.37574e-006
3.37643e-006
3.377e-006
3.37749e-006
3.37802e-006
3.37835e-006
3.37873e-006
3.37912e-006
3.3793e-006
3.37961e-006
3.37988e-006
3.37999e-006
3.38018e-006
0.879001
0.375701
0.11954
0.023668
0.00205822
8.16465e-005
3.97435e-006
5.88851e-007
4.57103e-007
5.01025e-007
5.34108e-007
5.34917e-007
5.30541e-007
5.30316e-007
5.31374e-007
5.31519e-007
5.31483e-007
5.3166e-007
5.31847e-007
5.31979e-007
5.32079e-007
5.32192e-007
5.32296e-007
5.32379e-007
5.32466e-007
5.32543e-007
5.32613e-007
5.32688e-007
5.32736e-007
1.29194
0.740686
0.395789
0.177195
0.0563704
0.0103656
0.000825034
3.72025e-005
1.67084e-006
2.24433e-007
1.2816e-007
1.30672e-007
1.46848e-007
1.47633e-007
1.44645e-007
1.45093e-007
1.45905e-007
1.45769e-007
1.45732e-007
1.458e-007
1.45865e-007
1.45903e-007
1.45932e-007
1.45966e-007
1.45996e-007
1.46021e-007
1.46048e-007
1.46074e-007
1.46093e-007
1.54659
0.983551
0.616125
0.369249
0.198263
0.08268
0.0227992
0.00315532
0.000197592
9.34229e-006
4.89756e-007
8.84778e-008
5.35602e-008
5.60377e-008
6.29281e-008
6.12876e-008
6.00077e-008
6.06692e-008
6.08279e-008
6.06805e-008
6.06273e-008
6.06364e-008
6.06527e-008
6.06649e-008
6.06798e-008
6.06917e-008
6.07019e-008
6.07176e-008
6.07261e-008
1.71416
1.15204
0.774702
0.514821
0.331132
0.198347
0.100004
0.0346138
0.00687446
0.000616743
3.36746e-005
1.75201e-006
1.24017e-007
3.76526e-008
2.87266e-008
3.25689e-008
3.38592e-008
3.24021e-008
3.24548e-008
3.29026e-008
3.29992e-008
3.29979e-008
3.30015e-008
3.30096e-008
3.30188e-008
3.30238e-008
3.30303e-008
3.30387e-008
3.30427e-008
1.81308
1.25931
0.880431
0.61518
0.425024
0.285525
0.180976
0.10167
0.0425251
0.0109415
0.00135678
8.82949e-005
4.92324e-006
2.94101e-007
3.85474e-008
2.07272e-008
2.0037e-008
2.2428e-008
2.18478e-008
2.11281e-008
2.12316e-008
2.13099e-008
2.13203e-008
2.13238e-008
2.13279e-008
2.1334e-008
2.13385e-008
2.13436e-008
2.13472e-008
1.88038
1.3375
0.960218
0.69247
0.498307
0.354496
0.245796
0.162155
0.0969876
0.0460447
0.0136059
0.0020402
0.000153716
9.28665e-006
5.67656e-007
4.92599e-008
1.82967e-008
1.44229e-008
1.61585e-008
1.6392e-008
1.59505e-008
1.58473e-008
1.58773e-008
1.58904e-008
1.58956e-008
1.58997e-008
1.59041e-008
1.59079e-008
1.59089e-008
1.9053
1.3776
1.00743
0.742407
0.548707
0.404223
0.29428
0.209014
0.141749
0.0880151
0.0451209
0.0144045
0.00239496
0.000199613
1.29678e-005
8.35578e-007
6.58909e-008
1.62934e-008
1.17163e-008
1.23859e-008
1.32017e-008
1.30515e-008
1.29217e-008
1.29075e-008
1.29104e-008
1.29132e-008
1.29143e-008
1.29161e-008
1.29198e-008
1.90666
1.39501
1.03334
0.772825
0.581418
0.43803
0.32852
0.24328
0.175719
0.121312
0.0770416
0.0411799
0.013603
0.00235912
0.000209647
1.46286e-005
1.00991e-006
7.97958e-008
1.51332e-008
9.81946e-009
9.69672e-009
1.02973e-008
1.04409e-008
1.04124e-008
1.04034e-008
1.04049e-008
1.04072e-008
1.04132e-008
1.04178e-008
1.89862
1.4028
1.04987
0.794048
0.605145
0.463078
0.354269
0.269401
0.202009
0.147585
0.103002
0.0661803
0.035971
0.0119086
0.00207677
0.000194384
1.47468e-005
1.10896e-006
9.16183e-008
1.48189e-008
8.62607e-009
7.54215e-009
7.87754e-009
8.0679e-009
8.09296e-009
8.09483e-009
8.09796e-009
8.10249e-009
8.10679e-009
1.87813
1.39938
1.05634
0.806461
0.621102
0.481151
0.373631
0.289578
0.222722
0.16864
0.124207
0.0872402
0.0562912
0.0305861
0.00992643
0.00170917
0.000168422
1.3987e-005
1.15158e-006
1.01335e-007
1.5061e-008
7.66115e-009
6.52182e-009
6.44304e-009
6.48826e-009
6.50993e-009
6.51466e-009
6.51903e-009
6.52308e-009
1.84679
1.38651
1.05447
0.811359
0.63037
0.493272
0.38763
0.304851
0.238893
0.185461
0.141484
0.104771
0.0737855
0.0475176
0.0254633
0.00796286
0.00133637
0.000138046
1.24606e-005
1.11252e-006
1.04678e-007
1.51402e-008
6.95989e-009
6.04082e-009
5.87265e-009
5.85659e-009
5.85644e-009
5.85672e-009
5.85757e-009
1.80665
1.36505
1.04547
0.810016
0.633993
0.500304
0.397042
0.315942
0.251205
0.198686
0.155401
0.119195
0.0885168
0.0622796
0.0397866
0.0207308
0.00614895
0.000996972
0.000107582
1.04981e-005
1.01461e-006
1.02248e-007
1.50178e-008
6.69361e-009
5.87724e-009
5.76149e-009
5.74626e-009
5.74617e-009
5.74619e-009
1.75908
1.33674
1.0298
0.803257
0.632877
0.503002
0.4025
0.323425
0.260188
0.208811
0.166414
0.130901
0.100742
0.0748341
0.052411
0.0329993
0.016435
0.00454799
0.000709411
7.98684e-005
8.32531e-006
8.56029e-007
9.17271e-008
1.43575e-008
6.60753e-009
5.84044e-009
5.76417e-009
5.75654e-009
5.75639e-009
1.70521
1.30262
1.00889
0.791346
0.627604
0.502061
0.404581
0.327779
0.26627
0.216219
0.174863
0.140178
0.110676
0.0852672
0.0631639
0.0438294
0.0269562
0.0124852
0.00316609
0.000474285
5.54214e-005
6.12534e-006
6.70601e-007
7.71244e-008
1.33466e-008
6.59241e-009
5.88848e-009
5.81753e-009
5.81063e-009
1.64625
1.26374
0.98366
0.775549
0.618431
0.497954
0.403871
0.329521
0.269902
0.221328
0.181134
0.147381
0.118633
0.0938277
0.0721845
0.0531446
0.0363407
0.021597
0.00892317
0.00203656
0.000295565
3.61149e-005
4.23639e-006
4.92374e-007
6.11347e-008
1.21391e-008
6.63916e-009
6.02897e-009
5.96151e-009
1.58323
1.22105
0.954933
0.756584
0.606399
0.490921
0.400773
0.329103
0.271511
0.224515
0.185578
0.152834
0.124908
0.100775
0.0796725
0.0610417
0.0444919
0.0297859
0.0168623
0.00591334
0.00120266
0.000173033
2.22967e-005
2.77912e-006
3.44093e-007
4.67477e-008
1.10938e-008
6.87396e-009
6.36925e-009
1.5172
1.17544
0.923478
0.735113
0.592076
0.481792
0.395475
0.326901
0.271407
0.226101
0.188486
0.156802
0.129738
0.106313
0.0857924
0.0676279
0.0514223
0.0369078
0.0239419
0.0125134
0.00371372
0.000687987
9.9908e-005
1.35082e-005
1.78419e-006
2.36841e-007
3.63169e-008
1.07759e-008
7.55033e-009
1.44913
1.12774
0.890011
0.711753
0.575997
0.471033
0.388659
0.323052
0.270026
0.226363
0.190125
0.15955
0.133386
0.110701
0.0907895
0.073123
0.0573094
0.0430704
0.0302313
0.0187323
0.00860171
0.00221157
0.000386082
5.75289e-005
8.16846e-006
1.14015e-006
1.63446e-007
2.97519e-008
1.15796e-008
1.37981
1.07865
0.855136
0.687026
0.55862
0.459053
0.380695
0.318116
0.267402
0.225694
0.190837
0.161376
0.136121
0.114182
0.0948884
0.077734
0.0623374
0.0484202
0.0357932
0.0243559
0.0140792
0.00538388
0.00122635
0.000210631
3.27905e-005
4.92369e-006
7.29768e-007
1.15338e-007
2.68496e-008
1.30995
1.02876
0.81935
0.661363
0.540322
0.446185
0.37188
0.312367
0.264004
0.224133
0.190731
0.162437
0.138117
0.116941
0.0982773
0.0816443
0.0666765
0.053102
0.0407277
0.0294336
0.0191727
0.00997255
0.00310588
0.000652552
0.000113764
1.86123e-005
2.96699e-006
4.76182e-007
8.80439e-008
1.24009
0.978524
0.783049
0.635101
0.521396
0.432688
0.362453
0.306029
0.260041
0.222023
0.190152
0.163006
0.139611
0.119193
0.101154
0.0850386
0.070499
0.057272
0.0451657
0.0340513
0.0238622
0.0145858
0.00654415
0.0017567
0.000353524
6.32149e-005
1.08414e-005
1.83943e-006
3.25135e-007
1.1707
0.928332
0.746543
0.6085
0.50206
0.418751
0.352578
0.299244
0.255633
0.219459
0.189025
0.163047
0.140628
0.121001
0.103609
0.0880255
0.0739231
0.061052
0.049226
0.0383139
0.0282365
0.0189708
0.0105375
0.00393827
0.00096195
0.000192994
3.59161e-005
6.49602e-006
1.1723e-006
1.10216
0.878488
0.710082
0.581761
0.482482
0.404516
0.342379
0.29213
0.250903
0.216595
0.187641
0.162871
0.14139
0.122532
0.105776
0.0907197
0.0770542
0.0645418
0.0530034
0.0423094
0.0323749
0.0231614
0.0146487
0.00709627
0.00222066
0.000519621
0.000107144
2.09954e-005
3.98855e-006
1.03482
0.829251
0.673865
0.555043
0.46279
0.390089
0.331946
0.284762
0.245917
0.213479
0.186012
0.162439
0.141918
0.123841
0.107727
0.0932022
0.0799766
0.0678266
0.0565816
0.046116
0.0363438
0.0272186
0.0187321
0.010857
0.00447991
0.00125569
0.000290549
6.20987e-005
1.26083e-005
0.968946
0.780829
0.638053
0.528469
0.443079
0.375544
0.321338
0.277192
0.240716
0.210146
0.184166
0.161785
0.142244
0.124968
0.109513
0.0955314
0.0827555
0.070976
0.060032
0.049803
0.0402038
0.0311828
0.0227268
0.014834
0.00767008
0.00269268
0.00071703
0.000168524
3.68409e-005
0.904769
0.733398
0.602776
0.502136
0.423421
0.360935
0.310597
0.269449
0.235326
0.206622
0.182138
0.160965
0.142412
0.125952
0.11117
0.0977477
0.0854361
0.074041
0.0634116
0.0534333
0.0440226
0.0351248
0.0267153
0.0187947
0.011404
0.0051846
0.00163035
0.000427131
0.000100782
0.842485
0.687101
0.56814
0.47612
0.40387
0.346298
0.299746
0.26155
0.229756
0.202911
0.179923
0.159966
0.142402
0.126783
0.112701
0.0998609
0.0880355
0.0770452
0.0667501
0.0570426
0.0478427
0.039095
0.0307679
0.0228543
0.0153487
0.00848587
0.00338162
0.0010106
0.000260288
0.782261
0.642063
0.534236
0.450487
0.38447
0.331662
0.2888
0.2535
0.224005
0.199008
0.177522
0.158799
0.142269
0.127487
0.114112
0.101872
0.0905533
0.0799895
0.0700505
0.0606362
0.0516708
0.0431005
0.0348917
0.0270311
0.0195111
0.0123613
0.00611053
0.00218135
0.000628814
0.724235
0.598389
0.501141
0.42529
0.365257
0.317049
0.277771
0.2453
0.218069
0.194904
0.174918
0.157439
0.14195
0.128034
0.115389
0.10377
0.0929809
0.0828672
0.0733085
0.0642111
0.0555044
0.0471369
0.0390756
0.031305
0.023821
0.0166274
0.00980069
0.0043316
0.00142542
0.668521
0.556168
0.468922
0.400578
0.346265
0.302478
0.266666
0.236952
0.21194
0.190585
0.172093
0.155858
0.141413
0.128389
0.116505
0.105535
0.0953032
0.0856671
0.0765158
0.0677625
0.0593408
0.0512023
0.0433148
0.0356623
0.0282432
0.0210632
0.0141305
0.00768419
0.00299699
0.615214
0.515478
0.437641
0.376397
0.327524
0.287969
0.255496
0.228454
0.20561
0.186037
0.169027
0.154038
0.140647
0.128519
0.117426
0.107139
0.0974966
0.0883704
0.0796587
0.0712811
0.0631756
0.0552965
0.0476124
0.0401068
0.0327778
0.0256313
0.0186938
0.0120001
0.00584154
0.564391
0.476388
0.407352
0.352789
0.309065
0.273539
0.244267
0.219805
0.199071
0.181246
0.165703
0.151958
0.139633
0.128429
0.11814
0.108558
0.0995357
0.0909531
0.0827161
0.07475
0.0669967
0.0594125
0.051967
0.0446427
0.0374361
0.0303527
0.0234096
0.0167193
0.00995844
0.51611
0.438954
0.378107
0.329795
0.290918
0.259209
0.232991
0.211008
0.192317
0.1762
0.162103
0.149599
0.138353
0.128106
0.118629
0.109772
0.101396
0.0933888
0.0856626
0.0781463
0.0707844
0.0635348
0.0563676
0.0492642
0.0422185
0.0352353
0.0283214
0.0215975
0.0148568
0.47042
0.40323
0.349954
0.307456
0.273115
0.245003
0.221681
0.202067
0.185344
0.170885
0.158206
0.14693
0.136759
0.127456
0.118811
0.110721
0.10303
0.0956377
0.0884627
0.0814382
0.0745111
0.0676401
0.060795
0.0539561
0.047115
0.040274
0.0334385
0.026679
0.0200449
0.427355
0.369262
0.322942
0.285816
0.255694
0.230947
0.210354
0.19299
0.17815
0.165292
0.153995
0.143926
0.134823
0.126471
0.118692
0.111382
0.104404
0.0976619
0.0910787
0.0845903
0.0781448
0.0717006
0.0652263
0.0587003
0.0521112
0.0454583
0.038748
0.0320096
0.0253874
0.386939
0.33709
0.297115
0.264919
0.238691
0.217072
0.199033
0.183789
0.170739
0.159416
0.149456
0.140568
0.132523
0.125132
0.118249
0.111709
0.105469
0.0994128
0.0934638
0.0875593
0.0816468
0.0756834
0.069635
0.0634766
0.0571931
0.0507795
0.0442408
0.0375894
0.0309406
0.349181
0.306749
0.272517
0.244811
0.222151
0.203415
0.187746
0.174485
0.163121
0.153257
0.14458
0.136837
0.129826
0.123383
0.117368
0.111638
0.10617
0.100837
0.0955656
0.0902952
0.0849719
0.0795496
0.0739902
0.0682633
0.0623478
0.0562328
0.0499189
0.0434127
0.0367766
0.314079
0.278263
0.249188
0.225536
0.206116
0.190016
0.176528
0.165103
0.155314
0.146824
0.139364
0.132719
0.126714
0.121201
0.116061
0.111191
0.106463
0.101879
0.0973257
0.0927397
0.088065
0.0832509
0.0782529
0.0730329
0.0675609
0.0618171
0.0557936
0.0494919
0.0429396
0.281609
0.251646
0.22716
0.207135
0.190633
0.17692
0.165419
0.155679
0.147344
0.140133
0.133817
0.128214
0.12317
0.118561
0.114279
0.110235
0.106303
0.102483
0.0986791
0.0948247
0.090859
0.0867253
0.0823707
0.0777466
0.0728106
0.0675292
0.061881
0.0558573
0.0494657
0.251731
0.226896
0.206457
0.189648
0.175747
0.164174
0.154465
0.146254
0.139249
0.133213
0.127959
0.123329
0.119195
0.115448
0.111996
0.108757
0.105659
0.102561
0.0995441
0.0964675
0.0932707
0.0898924
0.086271
0.0823456
0.0780576
0.0733542
0.0681935
0.0625478
0.0564063
0.224383
0.203998
0.187091
0.173106
0.161501
0.151828
0.14372
0.136882
0.131076
0.12611
0.121826
0.118093
0.114804
0.111867
0.109201
0.106739
0.104414
0.102147
0.0998644
0.0975911
0.09521
0.0926555
0.0898579
0.0867429
0.0832331
0.0792507
0.0747239
0.0695946
0.0638242
0.199485
0.18292
0.169066
0.157536
0.14794
0.139937
0.133244
0.127626
0.122892
0.118884
0.115475
0.112556
0.110038
0.107845
0.105912
0.10418
0.102596
0.101113
0.0996136
0.0981174
0.0965806
0.0949032
0.09301
0.0908166
0.088226
0.0851303
0.0814203
0.0769931
0.0717644
0.176937
0.163618
0.152377
0.142962
0.135107
0.128562
0.12311
0.118566
0.114779
0.111622
0.108991
0.106798
0.104971
0.103448
0.102179
0.101116
0.100216
0.0994411
0.0987457
0.0980014
0.0972959
0.0965202
0.0955858
0.0944087
0.0928745
0.0908405
0.0881554
0.0846616
0.0802053
0.156631
0.14604
0.137016
0.129409
0.123054
0.117775
0.113405
0.109805
0.106851
0.104443
0.102495
0.100938
0.0997166
0.0987821
0.0980951
0.0976242
0.0973337
0.097202
0.0971925
0.0972616
0.0972966
0.0974073
0.0974362
0.0973366
0.0969774
0.0961639
0.0947009
0.0924045
0.0890087
0.138455
0.130135
0.122977
0.116909
0.111846
0.107666
0.104246
0.101475
0.0992542
0.0975018
0.0961491
0.0951415
0.0944366
0.0940006
0.0938026
0.0938363
0.0940542
0.0944832
0.0950761
0.0958164
0.0966686
0.0975286
0.0985136
0.0994765
0.100304
0.100785
0.100695
0.0999076
0.097914
0.122303
0.115856
0.110265
0.10551
0.101567
0.0983543
0.0957775
0.0937459
0.0921769
0.0910005
0.0901606
0.089615
0.0893362
0.0893049
0.0894886
0.0899159
0.0905608
0.0914285
0.0925091
0.0937992
0.0952984
0.0969519
0.0987105
0.100673
0.102672
0.104533
0.106028
0.106741
0.10626
0.108085
0.103175
0.0989012
0.0952804
0.0923288
0.0899889
0.0881823
0.0868273
0.0858472
0.0851791
0.0847757
0.0846045
0.0846568
0.0849115
0.0853917
0.0860976
0.0870355
0.0882182
0.0896547
0.0913566
0.0933395
0.0956107
0.0981346
0.100879
0.10395
0.107126
0.110226
0.112752
0.114075
0.0957317
0.0920794
0.0889293
0.0863112
0.0842662
0.0827454
0.0816701
0.0809564
0.0805231
0.0803088
0.0802727
0.0803883
0.0806678
0.0811173
0.08176
0.0826196
0.0837188
0.085083
0.0867351
0.0887002
0.0910083
0.0936891
0.0967777
0.100263
0.104134
0.108468
0.113094
0.117443
0.121132
0.0851938
0.0825769
0.0804053
0.0787058
0.0775259
0.0768101
0.0764622
0.0763855
0.0764823
0.0766877
0.0769615
0.0772939
0.0777079
0.0782363
0.078922
0.0798086
0.0809365
0.0823448
0.0840688
0.0861451
0.0886152
0.091527
0.0949394
0.0989137
0.103517
0.108685
0.114652
0.120682
0.127056
0.0764328
0.074677
0.0733827
0.0725592
0.0722414
0.0723558
0.072771
0.0733709
0.07403
0.0746663
0.0752392
0.0757477
0.0762298
0.0767456
0.0773658
0.07816
0.0791906
0.0805136
0.0821786
0.0842311
0.086719
0.089708
0.0932607
0.0974939
0.102498
0.108389
0.115381
0.122766
0.132294
0.0693996
0.06837
0.0678863
0.0679306
0.0685046
0.0695184
0.0707947
0.0721774
0.0735137
0.0746899
0.0756357
0.0763635
0.0769269
0.0774142
0.0779292
0.0785758
0.0794456
0.0806176
0.0821514
0.0841144
0.0865547
0.0895721
0.0931808
0.0976228
0.102807
0.109161
0.116972
0.125386
0.13885
0.0640099
0.0636024
0.063889
0.0648128
0.0663619
0.0683883
0.0706932
0.0730541
0.0752929
0.0772606
0.07887
0.0800915
0.080971
0.0816147
0.0821621
0.0827616
0.0835506
0.0846543
0.0861722
0.088206
0.0907829
0.0940883
0.097968
0.10305
0.108547
0.116102
0.124552
0.134638
0.153336
0.060128
0.0602604
0.0612976
0.06315
0.0657737
0.0689839
0.0725557
0.0762689
0.0798915
0.0832222
0.0861194
0.0885126
0.090419
0.0919429
0.0932553
0.0945533
0.0960386
0.0979142
0.10035
0.103559
0.107562
0.112816
0.118748
0.127161
0.134968
0.148221
0.158516
0.178212
0.198992
0.0575685
0.0581736
0.0599704
0.0628079
0.0666344
0.0712624
0.0764721
0.0820168
0.0876441
0.0931269
0.0982849
0.103013
0.107303
0.111253
0.115055
0.118989
0.123369
0.128536
0.134823
0.142696
0.152318
0.164671
0.178909
0.198789
0.218244
0.251634
0.277132
0.338877
0.361053
0.0561202
0.0571438
0.0597216
0.0636083
0.0687972
0.0750988
0.0823065
0.0901933
0.0985215
0.107068
0.11565
0.124163
0.132613
0.141136
0.150009
0.159632
0.17051
0.183218
0.198392
0.216827
0.239217
0.267156
0.300653
0.344793
0.394734
0.46992
0.545122
0.698697
0.772881
0.0556038
0.0569946
0.0603873
0.0653917
0.072086
0.0802872
0.0898349
0.10055
0.112247
0.124757
0.137952
0.151788
0.166346
0.181868
0.198772
0.217648
0.239257
0.264496
0.294464
0.330487
0.374139
0.427688
0.493337
0.576731
0.679762
0.820416
0.99877
1.26748
1.52037
0.000990139
0.000990139
0.000990138
0.000990139
0.000990141
0.000990141
0.000990138
0.000990137
0.000990139
0.000990142
0.000990142
0.000990139
0.000990137
0.000990137
0.000990141
0.000990144
0.000990146
0.000990147
0.000990148
0.000990148
0.000990149
0.000990149
0.000990148
0.000990148
0.000990147
0.000990145
0.000990144
0.000990144
0.000990144
0.000990144
0.000990145
0.000990145
0.000990146
0.000990146
0.000990146
0.000990146
0.000990147
0.000990147
0.000990147
0.000990147
0.000990147
0.000990148
0.000990148
0.000990148
0.000990148
0.000990148
0.000990149
0.000990149
0.000990149
0.000990149
0.000990149
0.00099015
0.00099015
0.00099015
0.00099015
0.00099015
0.00099015
0.00099015
0.000990151
0.000990151
0.000990151
0.000990151
0.000990151
0.000990152
0.000990152
0.000990152
0.000990152
0.000990153
0.000990153
0.000990153
0.000990153
0.000990153
0.000990154
0.000990154
0.000990154
0.000990154
0.000990154
0.000990155
0.000990155
0.000990155
0.000990155
0.000990155
0.000990156
0.000990156
0.000990156
0.000990156
0.000990157
0.000990157
0.000990157
0.000990157
0.000990157
0.000990157
0.000990157
0.000990157
0.000990157
0.000990157
0.000990157
0.000990157
0.000990157
0.000990157
0.000990157
0.000990157
0.000990157
0.000990157
0.000990157
0.000990157
0.000990157
0.000990156
0.000990156
0.000990156
0.000990156
0.000990156
0.000990156
0.000990155
0.000990155
0.000990155
0.000990154
0.000990154
0.000990154
0.000990154
0.000990154
0.000990154
0.000990154
0.000990155
0.000990155
0.000990156
0.000990156
0.000990157
0.000990157
0.000990158
0.000990159
0.00099016
0.000990161
0.000990164
0.000990163
0.000990167
0.000990165
0.000990175
0.00100826
4.09886e-005
4.0988e-005
4.09869e-005
4.09887e-005
4.09912e-005
4.09904e-005
4.09872e-005
4.09866e-005
4.09892e-005
4.09924e-005
4.09923e-005
4.09887e-005
4.09861e-005
4.09872e-005
4.09918e-005
4.09964e-005
4.09991e-005
4.10006e-005
4.10016e-005
4.10023e-005
4.10027e-005
4.10027e-005
4.10023e-005
4.10013e-005
4.09999e-005
4.09983e-005
4.09971e-005
4.09966e-005
4.09967e-005
4.09973e-005
4.0998e-005
4.09987e-005
4.09993e-005
4.09998e-005
4.10003e-005
4.10008e-005
4.10013e-005
4.10017e-005
4.10021e-005
4.10024e-005
4.10027e-005
4.10029e-005
4.10032e-005
4.10035e-005
4.10039e-005
4.10043e-005
4.10047e-005
4.10051e-005
4.10054e-005
4.10058e-005
4.10061e-005
4.10064e-005
4.10067e-005
4.10071e-005
4.10074e-005
4.10077e-005
4.10079e-005
4.10083e-005
4.10086e-005
4.10089e-005
4.10093e-005
4.10097e-005
4.10101e-005
4.10104e-005
4.10108e-005
4.10112e-005
4.10115e-005
4.10119e-005
4.10123e-005
4.10126e-005
4.1013e-005
4.10134e-005
4.10136e-005
4.10142e-005
4.10143e-005
4.10148e-005
4.10151e-005
4.10154e-005
4.10159e-005
4.10161e-005
4.10166e-005
4.10168e-005
4.10173e-005
4.10176e-005
4.10179e-005
4.10182e-005
4.10184e-005
4.10187e-005
4.10188e-005
4.10189e-005
4.1019e-005
4.1019e-005
4.10191e-005
4.10192e-005
4.10192e-005
4.10192e-005
4.10192e-005
4.10192e-005
4.10192e-005
4.10192e-005
4.10192e-005
4.10191e-005
4.1019e-005
4.10189e-005
4.10188e-005
4.10187e-005
4.10186e-005
4.10184e-005
4.10182e-005
4.1018e-005
4.10178e-005
4.10175e-005
4.10171e-005
4.10166e-005
4.10161e-005
4.10156e-005
4.10149e-005
4.10142e-005
4.10139e-005
4.10139e-005
4.1014e-005
4.10143e-005
4.10147e-005
4.10152e-005
4.10157e-005
4.10162e-005
4.10166e-005
4.10174e-005
4.10178e-005
4.10189e-005
4.10202e-005
4.10216e-005
4.10226e-005
4.10288e-005
4.10255e-005
4.10319e-005
4.10627e-005
4.10567e-005
4.13368e-005
3.38037e-006
3.38051e-006
3.38081e-006
3.38109e-006
3.3811e-006
3.38104e-006
3.3812e-006
3.38155e-006
3.38187e-006
3.38183e-006
3.38169e-006
3.38168e-006
3.38202e-006
3.3824e-006
3.38274e-006
3.38276e-006
3.38279e-006
3.3829e-006
3.38304e-006
3.38316e-006
3.38326e-006
3.38332e-006
3.38335e-006
3.38337e-006
3.38342e-006
3.38355e-006
3.38373e-006
3.38391e-006
3.38407e-006
3.38419e-006
3.3843e-006
3.38442e-006
3.38455e-006
3.38468e-006
3.38481e-006
3.38495e-006
3.38509e-006
3.38524e-006
3.38538e-006
3.38553e-006
3.38569e-006
3.38584e-006
3.386e-006
3.38614e-006
3.38628e-006
3.38642e-006
3.38656e-006
3.38669e-006
3.38683e-006
3.38696e-006
3.3871e-006
3.38724e-006
3.38737e-006
3.38751e-006
3.38765e-006
3.38778e-006
3.38792e-006
3.38805e-006
3.38818e-006
3.38831e-006
3.38844e-006
3.38856e-006
3.38868e-006
3.38881e-006
3.38892e-006
3.38905e-006
3.38916e-006
3.38928e-006
3.38939e-006
3.38951e-006
3.38962e-006
3.38973e-006
3.38985e-006
3.38993e-006
3.39006e-006
3.39015e-006
3.39025e-006
3.39035e-006
3.39044e-006
3.39054e-006
3.39062e-006
3.39072e-006
3.39079e-006
3.39087e-006
3.39095e-006
3.39103e-006
3.39111e-006
3.39118e-006
3.39126e-006
3.39131e-006
3.39136e-006
3.3914e-006
3.39143e-006
3.39145e-006
3.39148e-006
3.39149e-006
3.39151e-006
3.39151e-006
3.39152e-006
3.39151e-006
3.3915e-006
3.39148e-006
3.39146e-006
3.39143e-006
3.3914e-006
3.39136e-006
3.3913e-006
3.39125e-006
3.39118e-006
3.3911e-006
3.39102e-006
3.39094e-006
3.39083e-006
3.3907e-006
3.39057e-006
3.39044e-006
3.39029e-006
3.39014e-006
3.39005e-006
3.38996e-006
3.3899e-006
3.38982e-006
3.38973e-006
3.38965e-006
3.38953e-006
3.38944e-006
3.38937e-006
3.38914e-006
3.38919e-006
3.38925e-006
3.38904e-006
3.38958e-006
3.38916e-006
3.38973e-006
3.39119e-006
3.39981e-006
3.01656e-006
3.12554e-006
4.09958e-005
5.32808e-007
5.32897e-007
5.32953e-007
5.33009e-007
5.33095e-007
5.33175e-007
5.33236e-007
5.33252e-007
5.33294e-007
5.33362e-007
5.33445e-007
5.33508e-007
5.33526e-007
5.3355e-007
5.33609e-007
5.33705e-007
5.33793e-007
5.33853e-007
5.33894e-007
5.33925e-007
5.33952e-007
5.33982e-007
5.34024e-007
5.3408e-007
5.34147e-007
5.34201e-007
5.34236e-007
5.34279e-007
5.34329e-007
5.34386e-007
5.34448e-007
5.34505e-007
5.34563e-007
5.34618e-007
5.34672e-007
5.34724e-007
5.34776e-007
5.34828e-007
5.3488e-007
5.34932e-007
5.34982e-007
5.35032e-007
5.35082e-007
5.35134e-007
5.35188e-007
5.35243e-007
5.35298e-007
5.35353e-007
5.35406e-007
5.35461e-007
5.35513e-007
5.35566e-007
5.35618e-007
5.3567e-007
5.35722e-007
5.35773e-007
5.35822e-007
5.35873e-007
5.35921e-007
5.3597e-007
5.36017e-007
5.36063e-007
5.36109e-007
5.36153e-007
5.36198e-007
5.36241e-007
5.36284e-007
5.36326e-007
5.36368e-007
5.36407e-007
5.36448e-007
5.36488e-007
5.36522e-007
5.36567e-007
5.36597e-007
5.36636e-007
5.3667e-007
5.36702e-007
5.36737e-007
5.36766e-007
5.36801e-007
5.36829e-007
5.36865e-007
5.36894e-007
5.36922e-007
5.3695e-007
5.36975e-007
5.37001e-007
5.37025e-007
5.37052e-007
5.37074e-007
5.37095e-007
5.37113e-007
5.37129e-007
5.37143e-007
5.37155e-007
5.37163e-007
5.37171e-007
5.37175e-007
5.37177e-007
5.37176e-007
5.37173e-007
5.37167e-007
5.37158e-007
5.37148e-007
5.37133e-007
5.37117e-007
5.37097e-007
5.37075e-007
5.37049e-007
5.37019e-007
5.36988e-007
5.36956e-007
5.36917e-007
5.36874e-007
5.36827e-007
5.36778e-007
5.3673e-007
5.36686e-007
5.36641e-007
5.36593e-007
5.36542e-007
5.36479e-007
5.36423e-007
5.36349e-007
5.36282e-007
5.36228e-007
5.36155e-007
5.36052e-007
5.35995e-007
5.36485e-007
5.34835e-007
5.35836e-007
5.43608e-007
5.28321e-007
4.72132e-007
2.72799e-006
0.000310932
0.0209866
1.46122e-007
1.46151e-007
1.46181e-007
1.46216e-007
1.46246e-007
1.46254e-007
1.46273e-007
1.46305e-007
1.46347e-007
1.46379e-007
1.46385e-007
1.46397e-007
1.46419e-007
1.46461e-007
1.46503e-007
1.4654e-007
1.46564e-007
1.46587e-007
1.46607e-007
1.46627e-007
1.46652e-007
1.46682e-007
1.46713e-007
1.46742e-007
1.46767e-007
1.46788e-007
1.46815e-007
1.46843e-007
1.4687e-007
1.46896e-007
1.46923e-007
1.46949e-007
1.46977e-007
1.47004e-007
1.47031e-007
1.47058e-007
1.47085e-007
1.47111e-007
1.47138e-007
1.47165e-007
1.47192e-007
1.4722e-007
1.47248e-007
1.47275e-007
1.47302e-007
1.47327e-007
1.47353e-007
1.47378e-007
1.47404e-007
1.47429e-007
1.47455e-007
1.4748e-007
1.47504e-007
1.47529e-007
1.47553e-007
1.47577e-007
1.47601e-007
1.47624e-007
1.47647e-007
1.47669e-007
1.47692e-007
1.47714e-007
1.47735e-007
1.47757e-007
1.47778e-007
1.47799e-007
1.4782e-007
1.4784e-007
1.4786e-007
1.4788e-007
1.47899e-007
1.47918e-007
1.47939e-007
1.47954e-007
1.47974e-007
1.47991e-007
1.48008e-007
1.48025e-007
1.4804e-007
1.48057e-007
1.48071e-007
1.48087e-007
1.48098e-007
1.48112e-007
1.48125e-007
1.48137e-007
1.48148e-007
1.48158e-007
1.4817e-007
1.48181e-007
1.48193e-007
1.48204e-007
1.48214e-007
1.48223e-007
1.48232e-007
1.48239e-007
1.48246e-007
1.48252e-007
1.48257e-007
1.4826e-007
1.48263e-007
1.48264e-007
1.48264e-007
1.48263e-007
1.48261e-007
1.48257e-007
1.48252e-007
1.48246e-007
1.48239e-007
1.48229e-007
1.48218e-007
1.48205e-007
1.48191e-007
1.48176e-007
1.48158e-007
1.48138e-007
1.48118e-007
1.48098e-007
1.48077e-007
1.48055e-007
1.4803e-007
1.48004e-007
1.47969e-007
1.47941e-007
1.47897e-007
1.47864e-007
1.47816e-007
1.47778e-007
1.47588e-007
1.48255e-007
1.46145e-007
1.50694e-007
1.49246e-007
1.22141e-007
1.63718e-007
2.82024e-006
0.000286825
0.0144288
0.165109
6.07378e-008
6.07568e-008
6.07725e-008
6.07814e-008
6.07926e-008
6.08091e-008
6.08302e-008
6.08467e-008
6.08535e-008
6.08607e-008
6.08736e-008
6.08967e-008
6.09162e-008
6.0928e-008
6.09402e-008
6.0954e-008
6.09692e-008
6.09811e-008
6.09934e-008
6.10089e-008
6.10271e-008
6.10442e-008
6.106e-008
6.10759e-008
6.1092e-008
6.11091e-008
6.11272e-008
6.11444e-008
6.11621e-008
6.11814e-008
6.11995e-008
6.12165e-008
6.12344e-008
6.12525e-008
6.12704e-008
6.1288e-008
6.13053e-008
6.13225e-008
6.13396e-008
6.13567e-008
6.13736e-008
6.13901e-008
6.14062e-008
6.14226e-008
6.14392e-008
6.14561e-008
6.14728e-008
6.14894e-008
6.15058e-008
6.1522e-008
6.15378e-008
6.15536e-008
6.15691e-008
6.15845e-008
6.15997e-008
6.16147e-008
6.16294e-008
6.16442e-008
6.16585e-008
6.16728e-008
6.16869e-008
6.17011e-008
6.17151e-008
6.17286e-008
6.17423e-008
6.17556e-008
6.17688e-008
6.17815e-008
6.17944e-008
6.18064e-008
6.18189e-008
6.18308e-008
6.18418e-008
6.18542e-008
6.18645e-008
6.18756e-008
6.18861e-008
6.1896e-008
6.19065e-008
6.19153e-008
6.19253e-008
6.19336e-008
6.19434e-008
6.19519e-008
6.19599e-008
6.19677e-008
6.1975e-008
6.19822e-008
6.19888e-008
6.19962e-008
6.20032e-008
6.20099e-008
6.20165e-008
6.20226e-008
6.20284e-008
6.20339e-008
6.20387e-008
6.20435e-008
6.20474e-008
6.20511e-008
6.20541e-008
6.20566e-008
6.20585e-008
6.20596e-008
6.20603e-008
6.20601e-008
6.20593e-008
6.20576e-008
6.20552e-008
6.20518e-008
6.20472e-008
6.2041e-008
6.20341e-008
6.20259e-008
6.20166e-008
6.20061e-008
6.19951e-008
6.19838e-008
6.1972e-008
6.19593e-008
6.19451e-008
6.19291e-008
6.19089e-008
6.18911e-008
6.18657e-008
6.18443e-008
6.1815e-008
6.17779e-008
6.22927e-008
6.04782e-008
6.49338e-008
5.67972e-008
5.63002e-008
2.08474e-007
8.91787e-006
0.00053919
0.0156192
0.136422
0.545121
3.30515e-008
3.30609e-008
3.30683e-008
3.30781e-008
3.30898e-008
3.3099e-008
3.31053e-008
3.31107e-008
3.31199e-008
3.31343e-008
3.31453e-008
3.31531e-008
3.31602e-008
3.31685e-008
3.31797e-008
3.31908e-008
3.3204e-008
3.32187e-008
3.32343e-008
3.32463e-008
3.32555e-008
3.32655e-008
3.3279e-008
3.32925e-008
3.33065e-008
3.33203e-008
3.33339e-008
3.3346e-008
3.33571e-008
3.33678e-008
3.33807e-008
3.33952e-008
3.34094e-008
3.34233e-008
3.3437e-008
3.34506e-008
3.34642e-008
3.34778e-008
3.34915e-008
3.3505e-008
3.35184e-008
3.35317e-008
3.35452e-008
3.35586e-008
3.3572e-008
3.35852e-008
3.35983e-008
3.36115e-008
3.36244e-008
3.36372e-008
3.36499e-008
3.36625e-008
3.36748e-008
3.3687e-008
3.36991e-008
3.3711e-008
3.37227e-008
3.37343e-008
3.37457e-008
3.3757e-008
3.37684e-008
3.37795e-008
3.37906e-008
3.38017e-008
3.38124e-008
3.3823e-008
3.38334e-008
3.38438e-008
3.38536e-008
3.38637e-008
3.38731e-008
3.38826e-008
3.38926e-008
3.39014e-008
3.39104e-008
3.39189e-008
3.39275e-008
3.3936e-008
3.39441e-008