/*--------------------------------*- C++ -*----------------------------------*\
| =========                 |                                                 |
| \\      /  F ield         | OpenFOAM: The Open Source CFD Toolbox           |
|  \\    /   O peration     | Version:  5.x                                   |
|   \\  /    A nd           | Web:      www.OpenFOAM.org                      |
|    \\/     M anipulation  |                                                 |
\*---------------------------------------------------------------------------*/
/*   Windows 32 and 64 bit porting by blueCAPE: http://www.bluecape.com.pt   *\
|  Based on Windows porting (2.0.x v4) by Symscape: http://www.symscape.com   |
\*---------------------------------------------------------------------------*/
FoamFile
{
    version     2.0;
    format      ascii;
    class       volScalarField;
    location    "240";
    object      nut;
}
// * * * * * * * * * * * * * * * * * * * * * * * * * * * * * * * * * * * * * //

dimensions      [0 2 -1 0 0 0 0];

internalField   nonuniform List<scalar> 
43900
(
5.71597e-005
5.80009e-005
5.80694e-005
5.80642e-005
5.80594e-005
5.80585e-005
5.80588e-005
5.80589e-005
5.8059e-005
5.80596e-005
5.80597e-005
5.80597e-005
5.80597e-005
5.80598e-005
5.80598e-005
5.806e-005
5.806e-005
5.806e-005
5.80601e-005
5.80601e-005
5.80602e-005
5.80603e-005
5.80602e-005
5.80603e-005
5.80603e-005
5.80603e-005
5.80604e-005
5.80604e-005
5.80603e-005
0.000590979
7.38232e-006
4.30774e-006
4.16072e-006
4.57995e-006
4.60594e-006
4.60884e-006
4.60361e-006
4.60377e-006
4.60499e-006
4.60544e-006
4.60557e-006
4.60564e-006
4.60575e-006
4.60593e-006
4.60631e-006
4.60639e-006
4.60657e-006
4.6068e-006
4.60682e-006
4.60703e-006
4.60716e-006
4.60715e-006
4.60734e-006
4.60738e-006
4.60736e-006
4.60752e-006
4.60752e-006
4.60749e-006
0.153339
0.0455553
0.00520844
0.000107929
1.30742e-006
6.44423e-007
6.01722e-007
7.14168e-007
7.25166e-007
7.23358e-007
7.21899e-007
7.21993e-007
7.22333e-007
7.22507e-007
7.22638e-007
7.22809e-007
7.22948e-007
7.23096e-007
7.23216e-007
7.23324e-007
7.23436e-007
7.23506e-007
7.23591e-007
7.23671e-007
7.23711e-007
7.23777e-007
7.23833e-007
7.23859e-007
7.239e-007
0.47525
0.291114
0.133585
0.03849
0.00461194
0.000177659
4.18408e-006
2.55232e-007
1.73593e-007
1.95024e-007
2.14082e-007
2.14587e-007
2.11997e-007
2.11827e-007
2.12409e-007
2.12451e-007
2.12394e-007
2.12468e-007
2.12546e-007
2.12596e-007
2.12635e-007
2.12678e-007
2.12717e-007
2.12751e-007
2.12785e-007
2.12814e-007
2.12842e-007
2.12871e-007
2.12889e-007
0.758132
0.582685
0.415013
0.249915
0.107346
0.0269012
0.00272093
0.000130087
3.03746e-006
2.06514e-007
8.98525e-008
8.82083e-008
1.04562e-007
1.05538e-007
1.0238e-007
1.02833e-007
1.03663e-007
1.03499e-007
1.03443e-007
1.03503e-007
1.03557e-007
1.03584e-007
1.03604e-007
1.03627e-007
1.03647e-007
1.03665e-007
1.03682e-007
1.037e-007
1.03714e-007
0.966085
0.797938
0.641549
0.489723
0.337873
0.186565
0.0673161
0.0120452
0.000879351
4.24519e-005
1.2025e-006
1.32863e-007
6.29706e-008
6.29586e-008
7.46876e-008
7.19118e-008
6.96525e-008
7.07985e-008
7.10583e-008
7.07869e-008
7.06843e-008
7.06924e-008
7.07102e-008
7.07227e-008
7.07401e-008
7.07532e-008
7.07635e-008
7.07807e-008
7.07895e-008
1.12641
0.963912
0.815435
0.674709
0.536718
0.397525
0.25374
0.111981
0.0285733
0.00309041
0.000183553
9.24361e-006
3.35528e-007
7.56356e-008
4.78328e-008
5.60359e-008
5.98246e-008
5.60122e-008
5.61251e-008
5.72978e-008
5.75363e-008
5.75205e-008
5.75223e-008
5.75355e-008
5.75498e-008
5.75571e-008
5.75665e-008
5.75791e-008
5.7587e-008
1.24259
1.08465
0.94196
0.808936
0.680938
0.554161
0.425852
0.2958
0.159998
0.0517484
0.00781427
0.000560805
3.24719e-005
1.64793e-006
1.20881e-007
5.34698e-008
4.64851e-008
5.4923e-008
5.31055e-008
5.04218e-008
5.07936e-008
5.1079e-008
5.11064e-008
5.11102e-008
5.11171e-008
5.11325e-008
5.11418e-008
5.11508e-008
5.11581e-008
1.33963
1.1851
1.04639
0.918491
0.797172
0.678923
0.560913
0.441029
0.3174
0.189808
0.0699139
0.0127858
0.00107092
6.79788e-005
4.07509e-006
2.30301e-007
6.69341e-008
4.34319e-008
5.02793e-008
5.20874e-008
5.00201e-008
4.94667e-008
4.96127e-008
4.96715e-008
4.96861e-008
4.9697e-008
4.97092e-008
4.97167e-008
4.97169e-008
1.40031
1.25182
1.11875
0.997086
0.882861
0.772749
0.663974
0.554274
0.441873
0.325635
0.205814
0.0811925
0.016378
0.00151684
0.000103493
6.7432e-006
4.31378e-007
7.25217e-008
4.69644e-008
4.70287e-008
5.2043e-008
5.12555e-008
5.04086e-008
5.03085e-008
5.0318e-008
5.03252e-008
5.03238e-008
5.03253e-008
5.03386e-008
1.44439
1.29854
1.17008
1.05334
0.944878
0.841509
0.740516
0.639633
0.537043
0.431416
0.322058
0.209457
0.0848375
0.0176877
0.00173439
0.00012657
8.92562e-006
6.29975e-007
7.70159e-008
4.72378e-008
4.29757e-008
4.67596e-008
4.80931e-008
4.78536e-008
4.77525e-008
4.77482e-008
4.77553e-008
4.77759e-008
4.77969e-008
1.48189
1.33908
1.21324
1.09982
0.995243
0.896598
0.801292
0.70711
0.612214
0.515166
0.414974
0.311193
0.204324
0.0823326
0.0170451
0.00174047
0.000137418
1.05826e-005
8.14339e-007
9.25654e-008
4.91155e-008
3.74117e-008
3.94531e-008
4.12516e-008
4.15087e-008
4.15064e-008
4.15142e-008
4.15411e-008
4.15656e-008
1.50863
1.36897
1.24583
1.13622
1.03533
0.940857
0.850369
0.761751
0.673211
0.583286
0.49086
0.39519
0.295963
0.193564
0.075861
0.0152661
0.00161986
0.000139341
1.17382e-005
9.90341e-007
1.12299e-007
4.89334e-008
3.82618e-008
3.61099e-008
3.64493e-008
3.67374e-008
3.67856e-008
3.68028e-008
3.68184e-008
1.52641
1.39091
1.27071
1.16331
1.06671
0.976086
0.889906
0.806156
0.723103
0.6393
0.553585
0.465094
0.373261
0.277842
0.179051
0.0670281
0.012917
0.00141835
0.000131994
1.20304e-005
1.10311e-006
1.28061e-007
4.79695e-008
4.15637e-008
3.83368e-008
3.76899e-008
3.76557e-008
3.76537e-008
3.76471e-008
1.53664
1.40469
1.28886
1.18441
1.0898
1.00365
0.921417
0.842029
0.763823
0.685385
0.605553
0.523411
0.438289
0.349749
0.257567
0.161724
0.0568352
0.0103763
0.00117591
0.000117773
1.15899e-005
1.14567e-006
1.3912e-007
5.03352e-008
4.48186e-008
4.31995e-008
4.2774e-008
4.26663e-008
4.26396e-008
1.54034
1.41204
1.29958
1.19955
1.10786
1.0237
0.945969
0.870552
0.796696
0.723035
0.648424
0.571933
0.492845
0.410639
0.324959
0.235548
0.142019
0.045987
0.00790835
0.000924937
9.85177e-005
1.02808e-005
1.08075e-006
1.41877e-007
5.43386e-008
4.75633e-008
4.72105e-008
4.70675e-008
4.70447e-008
1.53834
1.41378
1.30475
1.20796
1.1207
1.03938
0.963672
0.892685
0.822749
0.753346
0.683365
0.611889
0.53818
0.461674
0.381957
0.298715
0.211595
0.119573
0.0349003
0.00563539
0.00067742
7.61688e-005
8.42946e-006
9.45978e-007
1.37978e-007
5.74553e-008
4.9903e-008
4.93673e-008
4.93487e-008
1.53141
1.41069
1.30513
1.21161
1.12749
1.05051
0.977562
0.908719
0.843037
0.777472
0.711629
0.644614
0.575699
0.504308
0.429997
0.35243
0.271306
0.186125
0.0944739
0.024253
0.00370716
0.000461821
5.4854e-005
6.41347e-006
7.69129e-007
1.27981e-007
5.98998e-008
5.27134e-008
5.1925e-008
1.52028
1.40349
1.30149
1.21124
1.13023
1.0563
0.987549
0.921252
0.858001
0.796388
0.734266
0.671233
0.60658
0.539736
0.470255
0.397793
0.32207
0.242777
0.159305
0.0668267
0.014927
0.0022271
0.000291684
3.67893e-005
4.57218e-006
5.93163e-007
1.17653e-007
6.41623e-008
5.7975e-008
1.50567
1.3929
1.29449
1.20754
1.12961
1.05863
0.992808
0.930571
0.869427
0.810676
0.752107
0.692663
0.631824
0.569034
0.50385
0.435927
0.364989
0.290777
0.21291
0.13047
0.044348
0.0088302
0.00131793
0.00018082
2.41335e-005
3.20244e-006
4.62736e-007
1.16188e-007
7.42664e-008
1.48822
1.37955
1.2848
1.20115
1.12628
1.05818
0.995154
0.935699
0.878541
0.82145
0.766057
0.709735
0.652272
0.5931
0.531767
0.467917
0.401271
0.331589
0.258618
0.181979
0.0988747
0.0281942
0.00515289
0.000781712
0.000112238
1.57831e-005
2.2474e-006
3.81243e-007
1.30036e-007
1.46852
1.36404
1.27299
1.19267
1.12084
1.05559
0.995256
0.938431
0.883871
0.830462
0.776862
0.72377
0.669318
0.613322
0.555362
0.495099
0.432256
0.366607
0.297933
0.225929
0.149526
0.0670459
0.0164353
0.00290011
0.000456734
6.91581e-005
1.03009e-005
1.60842e-006
3.4947e-007
1.44708
1.34684
1.25955
1.1826
1.11381
1.05135
0.993647
0.939345
0.887283
0.836471
0.785627
0.73486
0.683219
0.630176
0.575322
0.518326
0.458926
0.396904
0.332067
0.264178
0.192755
0.115421
0.0404057
0.00894904
0.0015916
0.000263136
4.22878e-005
6.81901e-006
1.24656e-006
1.4243
1.32837
1.24488
1.17131
1.10558
1.04591
0.990807
0.938972
0.889313
0.840907
0.792981
0.744334
0.695176
0.644715
0.592621
0.538562
0.482267
0.423516
0.362121
0.297888
0.230503
0.158909
0.0820131
0.0238278
0.0049576
0.000898967
0.000155494
2.6575e-005
4.73014e-006
1.40048
1.30891
1.22928
1.15912
1.09646
1.03958
0.987036
0.937599
0.890213
0.843978
0.798115
0.751893
0.705388
0.657411
0.60789
0.556526
0.503064
0.447289
0.389019
0.328074
0.264221
0.196985
0.124255
0.0523835
0.0134609
0.00275551
0.000518015
9.44004e-005
1.71846e-005
1.37586
1.28871
1.21295
1.14624
1.08666
1.03257
0.982592
0.93554
0.890423
0.846399
0.802765
0.758944
0.714333
0.668724
0.621639
0.572796
0.521959
0.468928
0.413528
0.355594
0.294934
0.231208
0.163373
0.0897915
0.0305737
0.00738566
0.0015448
0.000305539
5.85947e-005
1.35062
1.2679
1.19606
1.13282
1.07634
1.02506
0.977637
0.932968
0.890105
0.848261
0.806782
0.765131
0.722617
0.679173
0.634349
0.587864
0.539485
0.489016
0.436288
0.381148
0.323433
0.262907
0.199003
0.129482
0.0598799
0.0176694
0.00417665
0.000902246
0.000184896
1.32486
1.24661
1.1787
1.11895
1.06558
1.01711
0.972269
0.929983
0.889363
0.849665
0.810265
0.770639
0.730329
0.689005
0.646358
0.602126
0.556083
0.508039
0.457829
0.405303
0.350316
0.292688
0.232106
0.167305
0.096948
0.0371391
0.0102086
0.00243465
0.000537489
1.29867
1.22488
1.16091
1.10466
1.05443
1.00878
0.966526
0.926636
0.888269
0.850723
0.813413
0.775851
0.737603
0.698398
0.657895
0.61586
0.572081
0.526375
0.478582
0.428554
0.376148
0.321205
0.263497
0.202486
0.136059
0.0684647
0.0227484
0.00610979
0.00146038
1.27206
1.20273
1.14271
1.08996
1.04286
1.00006
0.960399
0.922921
0.886822
0.851438
0.816211
0.780664
0.744375
0.707465
0.669064
0.629194
0.587648
0.544243
0.498818
0.451228
0.401332
0.348981
0.293981
0.235995
0.173922
0.106411
0.046151
0.0142848
0.00374216
1.24503
1.18015
1.12406
1.0748
1.03084
0.990885
0.953839
0.918791
0.884984
0.851792
0.8187
0.785288
0.751235
0.716212
0.679968
0.642262
0.602919
0.561774
0.518674
0.473477
0.426046
0.376236
0.32388
0.268713
0.210169
0.146636
0.0797921
0.0301252
0.00891474
1.21754
1.15708
1.1049
1.05912
1.01829
0.981188
0.946768
0.91417
0.882682
0.85172
0.820806
0.789554
0.757659
0.724628
0.690539
0.655022
0.617899
0.579014
0.538224
0.495391
0.450385
0.40307
0.3533
0.300867
0.245406
0.186044
0.120863
0.0581922
0.0198565
1.18954
1.13345
1.08515
1.04283
1.00512
0.970865
0.939077
0.908948
0.879807
0.851105
0.822392
0.793298
0.763506
0.732726
0.700778
0.66746
0.632582
0.595979
0.557507
0.517032
0.474427
0.429566
0.382316
0.332517
0.279912
0.224006
0.163454
0.0977683
0.0405555
1.16094
1.10916
1.0647
1.02581
0.991205
0.959786
0.930635
0.902989
0.876218
0.849809
0.823333
0.796433
0.768794
0.740112
0.710578
0.679494
0.646893
0.61261
0.576492
0.538403
0.498213
0.455799
0.411035
0.363788
0.313867
0.260966
0.204404
0.142896
0.0762602
1.13164
1.08412
1.04344
1.00793
0.976397
0.947801
0.921284
0.896131
0.871753
0.847667
0.82347
0.798824
0.77344
0.74707
0.719855
0.691093
0.66082
0.628889
0.595158
0.559487
0.521743
0.481797
0.439525
0.394799
0.347466
0.29731
0.243934
0.187166
0.122017
1.10154
1.05819
1.02123
0.989052
0.960544
0.934744
0.910849
0.888193
0.866225
0.844496
0.822631
0.800321
0.777319
0.753454
0.728255
0.701928
0.674102
0.644632
0.613378
0.5802
0.544965
0.50754
0.467796
0.425606
0.380832
0.333293
0.282766
0.229187
0.170437
1.07053
1.03126
0.997923
0.96901
0.943476
0.920435
0.899139
0.878972
0.859424
0.840074
0.820576
0.800636
0.780008
0.758458
0.735519
0.711845
0.686537
0.659623
0.63095
0.600371
0.567744
0.532928
0.495788
0.456191
0.414002
0.369056
0.321213
0.270235
0.216466
1.03852
1.0032
0.973396
0.947657
0.925027
0.904689
0.885954
0.868254
0.851119
0.834159
0.817049
0.799512
0.781304
0.76219
0.741913
0.720876
0.698096
0.673782
0.647762
0.619872
0.589953
0.557852
0.523418
0.486503
0.446966
0.404648
0.359416
0.311053
0.26014
1.0054
0.973921
0.947522
0.924853
0.905036
0.887327
0.871096
0.855822
0.841075
0.826496
0.811785
0.796684
0.78097
0.764451
0.747007
0.727952
0.708061
0.686596
0.663425
0.638397
0.611351
0.582121
0.550541
0.516446
0.479677
0.440072
0.397474
0.351749
0.30301
0.971145
0.943337
0.920207
0.90048
0.883366
0.868189
0.854381
0.841469
0.829062
0.816834
0.804507
0.791844
0.778631
0.764672
0.749759
0.733305
0.716593
0.697932
0.67769
0.655665
0.631663
0.605493
0.576962
0.545879
0.512056
0.475309
0.435456
0.392373
0.345954
0.935723
0.911415
0.891391
0.874457
0.85991
0.847146
0.835656
0.825016
0.814875
0.804937
0.794952
0.784701
0.773986
0.762625
0.750442
0.737296
0.722599
0.707121
0.690049
0.671239
0.650501
0.627627
0.602397
0.574583
0.54396
0.510304
0.473396
0.433062
0.389169
0.899168
0.878163
0.861059
0.846748
0.834612
0.824119
0.814818
0.806334
0.798355
0.790618
0.782899
0.775
0.766741
0.757956
0.748486
0.738181
0.726237
0.714172
0.700204
0.684711
0.667425
0.648094
0.626454
0.602232
0.575147
0.544918
0.511265
0.473936
0.432762
0.861566
0.843645
0.829256
0.817379
0.807481
0.799097
0.791836
0.785368
0.779422
0.773766
0.768203
0.762557
0.756669
0.75039
0.743575
0.736081
0.727762
0.717627
0.707297
0.695415
0.681834
0.66632
0.648595
0.628341
0.605216
0.578861
0.548909
0.515006
0.476879
0.823059
0.807986
0.796095
0.786452
0.778607
0.772161
0.766777
0.762171
0.758107
0.754386
0.750835
0.747304
0.743656
0.739761
0.735492
0.730719
0.725287
0.718703
0.711467
0.703022
0.693197
0.681684
0.668158
0.652252
0.633555
0.611611
0.585942
0.556057
0.52152
0.783864
0.771391
0.761774
0.754166
0.748191
0.743513
0.739842
0.736936
0.734592
0.732637
0.730925
0.72933
0.727739
0.726046
0.724147
0.721939
0.719307
0.716179
0.711607
0.706726
0.700764
0.693396
0.684297
0.673083
0.659275
0.642314
0.6216
0.596478
0.566292
0.744282
0.734158
0.7266
0.72084
0.716571
0.713507
0.7114
0.710035
0.709237
0.708855
0.708768
0.708876
0.709092
0.70934
0.709544
0.709636
0.709519
0.709129
0.708206
0.706181
0.703779
0.700547
0.695952
0.689684
0.681157
0.66967
0.654572
0.635044
0.61013
0.70472
0.696704
0.691014
0.68695
0.684257
0.682686
0.682008
0.682025
0.682574
0.683523
0.684774
0.686259
0.687927
0.689739
0.691644
0.693654
0.695618
0.697673
0.699509
0.70091
0.70128
0.702017
0.701704
0.700586
0.697581
0.691723
0.682781
0.66976
0.65109
0.665718
0.659593
0.655622
0.653151
0.651954
0.651785
0.652406
0.653609
0.655228
0.657144
0.659295
0.66166
0.664245
0.667066
0.67005
0.673493
0.676765
0.680993
0.685048
0.689101
0.693156
0.696198
0.700106
0.703516
0.705748
0.705611
0.703606
0.697973
0.686153
0.627974
0.623558
0.621212
0.620291
0.620551
0.621697
0.623431
0.625495
0.627712
0.629982
0.632307
0.63476
0.637431
0.640484
0.643589
0.64773
0.652143
0.657171
0.662655
0.668566
0.674992
0.681823
0.688099
0.695614
0.702763
0.708741
0.713227
0.71429
0.711017
0.592347
0.589503
0.588744
0.589374
0.591051
0.593344
0.595824
0.598135
0.600108
0.601679
0.602998
0.604313
0.605812
0.607802
0.610484
0.613969
0.618271
0.623389
0.629317
0.636075
0.644196
0.653388
0.66316
0.672862
0.684213
0.695619
0.706493
0.715352
0.720354
0.559829
0.558456
0.559279
0.561448
0.5644
0.567451
0.569951
0.571394
0.571745
0.570956
0.569546
0.56805
0.566731
0.566263
0.566847
0.568628
0.571657
0.576262
0.582224
0.589497
0.598022
0.607643
0.618938
0.631488
0.644704
0.660451
0.676973
0.693615
0.708307
0.531446
0.531453
0.533819
0.537405
0.541246
0.544268
0.545576
0.544389
0.54125
0.53589
0.529607
0.523365
0.518141
0.514223
0.511873
0.511223
0.512276
0.514897
0.519114
0.524889
0.532182
0.540866
0.551447
0.564098
0.579466
0.596748
0.61721
0.640723
0.664054
0.508069
0.509326
0.513074
0.517726
0.52171
0.523441
0.521979
0.516226
0.507147
0.496033
0.48386
0.471793
0.460719
0.451482
0.444434
0.439659
0.437068
0.43646
0.437691
0.440608
0.445212
0.451332
0.459553
0.469613
0.483258
0.499743
0.520266
0.54697
0.576338
0.490165
0.492456
0.497224
0.502322
0.505391
0.504642
0.498381
0.487065
0.471522
0.452872
0.43299
0.413676
0.396079
0.380969
0.36865
0.359107
0.352126
0.347402
0.3446
0.343493
0.344074
0.346053
0.350181
0.355491
0.364704
0.375264
0.392471
0.414703
0.445761
0.477595
0.480605
0.485856
0.490658
0.491916
0.487311
0.476193
0.458195
0.435136
0.409198
0.382667
0.357251
0.334111
0.313852
0.296693
0.282536
0.27109
0.262022
0.254982
0.249646
0.245836
0.243198
0.242305
0.24206
0.245169
0.2483
0.258668
0.268717
0.298241
0.469603
0.472959
0.478281
0.4821
0.480929
0.47269
0.456229
0.432881
0.404824
0.374433
0.34395
0.31503
0.288731
0.265649
0.245826
0.229082
0.21511
0.203612
0.194232
0.186736
0.180732
0.176249
0.172761
0.170957
0.169518
0.17051
0.172541
0.17585
0.189226
0.465087
0.468519
0.473631
0.476261
0.473055
0.461719
0.442237
0.416142
0.385838
0.353876
0.322398
0.292918
0.266346
0.243089
0.223242
0.206701
0.193102
0.182199
0.173675
0.167483
0.163018
0.16085
0.159267
0.161345
0.160829
0.168387
0.168295
0.182861
0.174213
0.462981
0.466406
0.471347
0.473316
0.468961
0.456489
0.436049
0.40945
0.379192
0.347774
0.31722
0.288929
0.263726
0.241983
0.22379
0.209052
0.197593
0.189183
0.183471
0.180395
0.179386
0.181284
0.183997
0.19165
0.196168
0.212981
0.215984
0.251895
0.234067
0.462556
0.46608
0.4713
0.47347
0.469465
0.457509
0.437851
0.412305
0.383336
0.353378
0.324398
0.297764
0.274291
0.254369
0.238111
0.22545
0.216222
0.210226
0.207174
0.207118
0.209455
0.21509
0.222025
0.234563
0.244799
0.269112
0.280257
0.328091
0.319012
5.80604e-005
5.80604e-005
5.80603e-005
5.80604e-005
5.80605e-005
5.80605e-005
5.80603e-005
5.80603e-005
5.80604e-005
5.80606e-005
5.80606e-005
5.80604e-005
5.80602e-005
5.80603e-005
5.80605e-005
5.80608e-005
5.80609e-005
5.8061e-005
5.80611e-005
5.80611e-005
5.80611e-005
5.80611e-005
5.80611e-005
5.8061e-005
5.8061e-005
5.80609e-005
5.80608e-005
5.80607e-005
5.80607e-005
5.80608e-005
5.80608e-005
5.80608e-005
5.80609e-005
5.80609e-005
5.80609e-005
5.80609e-005
5.8061e-005
5.8061e-005
5.8061e-005
5.8061e-005
5.8061e-005
5.8061e-005
5.8061e-005
5.80611e-005
5.80611e-005
5.80611e-005
5.80611e-005
5.80611e-005
5.80611e-005
5.80612e-005
5.80612e-005
5.80612e-005
5.80612e-005
5.80612e-005
5.80612e-005
5.80612e-005
5.80612e-005
5.80613e-005
5.80613e-005
5.80613e-005
5.80613e-005
5.80613e-005
5.80613e-005
5.80614e-005
5.80614e-005
5.80614e-005
5.80614e-005
5.80614e-005
5.80614e-005
5.80615e-005
5.80615e-005
5.80615e-005
5.80615e-005
5.80615e-005
5.80615e-005
5.80615e-005
5.80616e-005
5.80616e-005
5.80616e-005
5.80616e-005
5.80616e-005
5.80616e-005
5.80617e-005
5.80617e-005
5.80617e-005
5.80617e-005
5.80617e-005
5.80617e-005
5.80617e-005
5.80617e-005
5.80617e-005
5.80617e-005
5.80618e-005
5.80618e-005
5.80618e-005
5.80618e-005
5.80618e-005
5.80618e-005
5.80618e-005
5.80618e-005
5.80618e-005
5.80618e-005
5.80617e-005
5.80617e-005
5.80617e-005
5.80617e-005
5.80617e-005
5.80617e-005
5.80617e-005
5.80617e-005
5.80617e-005
5.80617e-005
5.80617e-005
5.80616e-005
5.80616e-005
5.80616e-005
5.80616e-005
5.80615e-005
5.80615e-005
5.80615e-005
5.80615e-005
5.80615e-005
5.80616e-005
5.80616e-005
5.80616e-005
5.80617e-005
5.80617e-005
5.80617e-005
5.80618e-005
5.80618e-005
5.80619e-005
5.8062e-005
5.8062e-005
5.80623e-005
5.80622e-005
5.80625e-005
5.80624e-005
5.80632e-005
5.93321e-005
4.60764e-006
4.60757e-006
4.60747e-006
4.60767e-006
4.60794e-006
4.60784e-006
4.6075e-006
4.60746e-006
4.60774e-006
4.60808e-006
4.60805e-006
4.60766e-006
4.6074e-006
4.60755e-006
4.60805e-006
4.60853e-006
4.60882e-006
4.60898e-006
4.60909e-006
4.60917e-006
4.60922e-006
4.60922e-006
4.60917e-006
4.60906e-006
4.60891e-006
4.60874e-006
4.60862e-006
4.60857e-006
4.60859e-006
4.60866e-006
4.60874e-006
4.60881e-006
4.60888e-006
4.60894e-006
4.60899e-006
4.60905e-006
4.60911e-006
4.60916e-006
4.60921e-006
4.60924e-006
4.60928e-006
4.60931e-006
4.60934e-006
4.60938e-006
4.60943e-006
4.60947e-006
4.60952e-006
4.60956e-006
4.6096e-006
4.60965e-006
4.60968e-006
4.60972e-006
4.60976e-006
4.6098e-006
4.60983e-006
4.60987e-006
4.6099e-006
4.60994e-006
4.60998e-006
4.61002e-006
4.61006e-006
4.61011e-006
4.61015e-006
4.6102e-006
4.61024e-006
4.61028e-006
4.61033e-006
4.61037e-006
4.61041e-006
4.61045e-006
4.61049e-006
4.61054e-006
4.61057e-006
4.61063e-006
4.61065e-006
4.6107e-006
4.61074e-006
4.61078e-006
4.61083e-006
4.61086e-006
4.61091e-006
4.61094e-006
4.61099e-006
4.61103e-006
4.61106e-006
4.61109e-006
4.61112e-006
4.61115e-006
4.61117e-006
4.61118e-006
4.61119e-006
4.61119e-006
4.6112e-006
4.61121e-006
4.61121e-006
4.61121e-006
4.61121e-006
4.61122e-006
4.61121e-006
4.61121e-006
4.61121e-006
4.6112e-006
4.61119e-006
4.61118e-006
4.61117e-006
4.61115e-006
4.61114e-006
4.61111e-006
4.61109e-006
4.61107e-006
4.61104e-006
4.61101e-006
4.61096e-006
4.61091e-006
4.61085e-006
4.61079e-006
4.61071e-006
4.61063e-006
4.6106e-006
4.6106e-006
4.61061e-006
4.61064e-006
4.61068e-006
4.61074e-006
4.61078e-006
4.61084e-006
4.61088e-006
4.61096e-006
4.61101e-006
4.61113e-006
4.61127e-006
4.61143e-006
4.61153e-006
4.61225e-006
4.61185e-006
4.61254e-006
4.61764e-006
4.61639e-006
4.56186e-006
7.23941e-007
7.23975e-007
7.24038e-007
7.24095e-007
7.24097e-007
7.24094e-007
7.24135e-007
7.24206e-007
7.24265e-007
7.24254e-007
7.24233e-007
7.24242e-007
7.24315e-007
7.24388e-007
7.24452e-007
7.24455e-007
7.24464e-007
7.24488e-007
7.24516e-007
7.24541e-007
7.24561e-007
7.24574e-007
7.24581e-007
7.24587e-007
7.24604e-007
7.24636e-007
7.24675e-007
7.24712e-007
7.24746e-007
7.24773e-007
7.24799e-007
7.24826e-007
7.24854e-007
7.24881e-007
7.24909e-007
7.24939e-007
7.2497e-007
7.25001e-007
7.25033e-007
7.25065e-007
7.25098e-007
7.25131e-007
7.25163e-007
7.25195e-007
7.25225e-007
7.25255e-007
7.25285e-007
7.25314e-007
7.25344e-007
7.25374e-007
7.25404e-007
7.25434e-007
7.25464e-007
7.25494e-007
7.25523e-007
7.25553e-007
7.25582e-007
7.25611e-007
7.2564e-007
7.25668e-007
7.25696e-007
7.25722e-007
7.25749e-007
7.25775e-007
7.25801e-007
7.25827e-007
7.25853e-007
7.25878e-007
7.25903e-007
7.25928e-007
7.25952e-007
7.25975e-007
7.26001e-007
7.2602e-007
7.26046e-007
7.26065e-007
7.26087e-007
7.26108e-007
7.26127e-007
7.26149e-007
7.26167e-007
7.26187e-007
7.26202e-007
7.2622e-007
7.26238e-007
7.26255e-007
7.26272e-007
7.26288e-007
7.26304e-007
7.26316e-007
7.26326e-007
7.26335e-007
7.26342e-007
7.26348e-007
7.26353e-007
7.26356e-007
7.26359e-007
7.2636e-007
7.26361e-007
7.2636e-007
7.26358e-007
7.26354e-007
7.26349e-007
7.26343e-007
7.26335e-007
7.26326e-007
7.26314e-007
7.26301e-007
7.26286e-007
7.2627e-007
7.26251e-007
7.26233e-007
7.2621e-007
7.26184e-007
7.26155e-007
7.26126e-007
7.26094e-007
7.26062e-007
7.26041e-007
7.26024e-007
7.26008e-007
7.2599e-007
7.25971e-007
7.25953e-007
7.25926e-007
7.25906e-007
7.2589e-007
7.25841e-007
7.25847e-007
7.25867e-007
7.25808e-007
7.25947e-007
7.25847e-007
7.25835e-007
7.26439e-007
7.28974e-007
6.11285e-007
6.55004e-007
1.87767e-005
2.12918e-007
2.12953e-007
2.12974e-007
2.12998e-007
2.13034e-007
2.13062e-007
2.13084e-007
2.13091e-007
2.1311e-007
2.1314e-007
2.1317e-007
2.13193e-007
2.13197e-007
2.13211e-007
2.13235e-007
2.13274e-007
2.13306e-007
2.13329e-007
2.13346e-007
2.13358e-007
2.1337e-007
2.13383e-007
2.13402e-007
2.13426e-007
2.13452e-007
2.13473e-007
2.13487e-007
2.13505e-007
2.13525e-007
2.13547e-007
2.1357e-007
2.13592e-007
2.13614e-007
2.13636e-007
2.13657e-007
2.13677e-007
2.13697e-007
2.13718e-007
2.13738e-007
2.13758e-007
2.13778e-007
2.13798e-007
2.13818e-007
2.13839e-007
2.1386e-007
2.13881e-007
2.13902e-007
2.13924e-007
2.13945e-007
2.13966e-007
2.13986e-007
2.14007e-007
2.14027e-007
2.14047e-007
2.14068e-007
2.14087e-007
2.14107e-007
2.14126e-007
2.14145e-007
2.14164e-007
2.14182e-007
2.142e-007
2.14218e-007
2.14235e-007
2.14252e-007
2.14269e-007
2.14286e-007
2.14302e-007
2.14319e-007
2.14334e-007
2.1435e-007
2.14365e-007
2.14379e-007
2.14396e-007
2.14408e-007
2.14423e-007
2.14436e-007
2.14449e-007
2.14462e-007
2.14474e-007
2.14487e-007
2.14498e-007
2.14511e-007
2.14522e-007
2.14533e-007
2.14544e-007
2.14554e-007
2.14563e-007
2.14573e-007
2.14583e-007
2.14592e-007
2.146e-007
2.14608e-007
2.14614e-007
2.1462e-007
2.14624e-007
2.14628e-007
2.14631e-007
2.14633e-007
2.14634e-007
2.14633e-007
2.14632e-007
2.1463e-007
2.14627e-007
2.14622e-007
2.14617e-007
2.1461e-007
2.14603e-007
2.14594e-007
2.14584e-007
2.14572e-007
2.1456e-007
2.14547e-007
2.14532e-007
2.14515e-007
2.14497e-007
2.14478e-007
2.1446e-007
2.14442e-007
2.14425e-007
2.14407e-007
2.14387e-007
2.14362e-007
2.14341e-007
2.14311e-007
2.14286e-007
2.14263e-007
2.14236e-007
2.14199e-007
2.14142e-007
2.14457e-007
2.13504e-007
2.14055e-007
2.18562e-007
2.09598e-007
1.8312e-007
2.26763e-006
0.000337794
0.014647
1.03732e-007
1.03752e-007
1.03775e-007
1.03796e-007
1.03813e-007
1.03819e-007
1.03836e-007
1.03861e-007
1.03886e-007
1.03903e-007
1.03905e-007
1.03917e-007
1.03937e-007
1.03965e-007
1.0399e-007
1.0401e-007
1.04025e-007
1.0404e-007
1.04051e-007
1.04064e-007
1.04082e-007
1.04104e-007
1.04125e-007
1.04143e-007
1.04159e-007
1.04173e-007
1.04191e-007
1.04209e-007
1.04228e-007
1.04246e-007
1.04265e-007
1.04283e-007
1.04301e-007
1.04319e-007
1.04337e-007
1.04354e-007
1.04372e-007
1.04389e-007
1.04407e-007
1.04425e-007
1.04443e-007
1.04461e-007
1.04479e-007
1.04497e-007
1.04514e-007
1.04531e-007
1.04548e-007
1.04565e-007
1.04581e-007
1.04598e-007
1.04614e-007
1.04631e-007
1.04647e-007
1.04663e-007
1.04679e-007
1.04694e-007
1.0471e-007
1.04725e-007
1.0474e-007
1.04755e-007
1.0477e-007
1.04784e-007
1.04798e-007
1.04812e-007
1.04826e-007
1.0484e-007
1.04853e-007
1.04867e-007
1.0488e-007
1.04893e-007
1.04905e-007
1.04918e-007
1.04931e-007
1.04941e-007
1.04954e-007
1.04965e-007
1.04976e-007
1.04987e-007
1.04997e-007
1.05007e-007
1.05017e-007
1.05026e-007
1.05034e-007
1.05043e-007
1.05051e-007
1.05059e-007
1.05066e-007
1.05073e-007
1.0508e-007
1.05088e-007
1.05095e-007
1.05103e-007
1.0511e-007
1.05116e-007
1.05122e-007
1.05127e-007
1.05131e-007
1.05135e-007
1.05139e-007
1.05141e-007
1.05143e-007
1.05144e-007
1.05144e-007
1.05144e-007
1.05142e-007
1.0514e-007
1.05137e-007
1.05133e-007
1.05128e-007
1.05122e-007
1.05114e-007
1.05106e-007
1.05097e-007
1.05086e-007
1.05075e-007
1.05061e-007
1.05048e-007
1.05035e-007
1.05022e-007
1.05008e-007
1.04991e-007
1.04975e-007
1.04951e-007
1.04933e-007
1.04903e-007
1.04881e-007
1.04849e-007
1.04823e-007
1.04644e-007
1.05356e-007
1.03146e-007
1.07979e-007
1.06239e-007
8.09509e-008
1.2718e-007
4.23301e-006
0.00047123
0.0163111
0.115477
7.08015e-008
7.08221e-008
7.0837e-008
7.08455e-008
7.08586e-008
7.08787e-008
7.08996e-008
7.09125e-008
7.09166e-008
7.09253e-008
7.09429e-008
7.09664e-008
7.09844e-008
7.09918e-008
7.10046e-008
7.1018e-008
7.10328e-008
7.10451e-008
7.10605e-008
7.1079e-008
7.10977e-008
7.11123e-008
7.11266e-008
7.1142e-008
7.11583e-008
7.11775e-008
7.11971e-008
7.12151e-008
7.12331e-008
7.12521e-008
7.12688e-008
7.12855e-008
7.13036e-008
7.13221e-008
7.13403e-008
7.1358e-008
7.13755e-008
7.13929e-008
7.14102e-008
7.14273e-008
7.14442e-008
7.14605e-008
7.14767e-008
7.14933e-008
7.15101e-008
7.15271e-008
7.15439e-008
7.15607e-008
7.15771e-008
7.15934e-008
7.16092e-008
7.1625e-008
7.16405e-008
7.16558e-008
7.1671e-008
7.16859e-008
7.17004e-008
7.17151e-008
7.17293e-008
7.17436e-008
7.17576e-008
7.17718e-008
7.17858e-008
7.17993e-008
7.18131e-008
7.18264e-008
7.18394e-008
7.18523e-008
7.18649e-008
7.1877e-008
7.18894e-008
7.1901e-008
7.19121e-008
7.19246e-008
7.19347e-008
7.19456e-008
7.19565e-008
7.19663e-008
7.19767e-008
7.19859e-008
7.19952e-008
7.20039e-008
7.20136e-008
7.20216e-008
7.20297e-008
7.20377e-008
7.20454e-008
7.20523e-008
7.20588e-008
7.2066e-008
7.20728e-008
7.20795e-008
7.2086e-008
7.20923e-008
7.20982e-008
7.21039e-008
7.2109e-008
7.21139e-008
7.21181e-008
7.2122e-008
7.21252e-008
7.21279e-008
7.21299e-008
7.21312e-008
7.21321e-008
7.21319e-008
7.21312e-008
7.21296e-008
7.21272e-008
7.21238e-008
7.2119e-008
7.21125e-008
7.2105e-008
7.20963e-008
7.20864e-008
7.20751e-008
7.20636e-008
7.20518e-008
7.20397e-008
7.20267e-008
7.20122e-008
7.19958e-008
7.1975e-008
7.19569e-008
7.19304e-008
7.19083e-008
7.18769e-008
7.18297e-008
7.27502e-008
6.96366e-008
7.73668e-008
6.32739e-008
6.67278e-008
3.4903e-007
2.2665e-005
0.00118497
0.0251447
0.145323
0.380524
5.75998e-008
5.76124e-008
5.76246e-008
5.76419e-008
5.76587e-008
5.76695e-008
5.76776e-008
5.76856e-008
5.77035e-008
5.77252e-008
5.77393e-008
5.77475e-008
5.77579e-008
5.77717e-008
5.77877e-008
5.78034e-008
5.78226e-008
5.78461e-008
5.78687e-008
5.78834e-008
5.78939e-008
5.79095e-008
5.7931e-008
5.79514e-008
5.79729e-008
5.79929e-008
5.80106e-008
5.80271e-008
5.80427e-008
5.80575e-008
5.80775e-008
5.80999e-008
5.81209e-008
5.81411e-008
5.81609e-008
5.81807e-008
5.82006e-008
5.82207e-008
5.82408e-008
5.82607e-008
5.82805e-008
5.83005e-008
5.83208e-008
5.83407e-008
5.83603e-008
5.83795e-008
5.83985e-008
5.84176e-008
5.84365e-008
5.84552e-008
5.84739e-008
5.84923e-008
5.85104e-008
5.85283e-008
5.8546e-008
5.85634e-008
5.85807e-008
5.85976e-008
5.86145e-008
5.8631e-008
5.86478e-008
5.86642e-008
5.86806e-008
5.86971e-008
5.87129e-008
5.87286e-008
5.87441e-008
5.87592e-008
5.87739e-008
5.87889e-008
5.88026e-008
5.88171e-008
5.88317e-008
5.88445e-008
5.8858e-008
5.88709e-008
5.88831e-008
5.8896e-008
5.89077e-008
5.89203e-008
5.89318e-008
5.89437e-008
5.89531e-008
5.89635e-008
5.89737e-008
5.89828e-008
5.89915e-008
5.9e-008
5.90087e-008
5.90164e-008
5.90245e-008
5.90324e-008
5.90399e-008
5.90472e-008
5.90543e-008
5.90609e-008
5.90675e-008
5.90732e-008
5.90789e-008
5.90841e-008
5.90888e-008
5.9093e-008
5.90967e-008
5.90997e-008
5.91019e-008
5.91039e-008
5.91046e-008
5.91049e-008
5.91042e-008
5.91027e-008
5.91e-008
5.90956e-008
5.90892e-008
5.90816e-008
5.90727e-008
5.90626e-008
5.90516e-008
5.90403e-008
5.90291e-008
5.90172e-008
5.90045e-008
5.89898e-008
5.89731e-008
5.89556e-008
5.8935e-008
5.89107e-008