/*--------------------------------*- C++ -*----------------------------------*\
| =========                 |                                                 |
| \\      /  F ield         | OpenFOAM: The Open Source CFD Toolbox           |
|  \\    /   O peration     | Version:  5.x                                   |
|   \\  /    A nd           | Web:      www.OpenFOAM.org                      |
|    \\/     M anipulation  |                                                 |
\*---------------------------------------------------------------------------*/
/*   Windows 32 and 64 bit porting by blueCAPE: http://www.bluecape.com.pt   *\
|  Based on Windows porting (2.0.x v4) by Symscape: http://www.symscape.com   |
\*---------------------------------------------------------------------------*/
FoamFile
{
    version     2.0;
    format      ascii;
    class       volScalarField;
    location    "240";
    object      p;
}
// * * * * * * * * * * * * * * * * * * * * * * * * * * * * * * * * * * * * * //

dimensions      [0 2 -2 0 0 0 0];

internalField   nonuniform List<scalar> 
43900
(
0.355836
0.355487
0.355445
0.355318
0.355114
0.354888
0.354688
0.354357
0.354118
0.353791
0.35347
0.353141
0.352795
0.352436
0.352068
0.351689
0.351301
0.350905
0.3505
0.350087
0.349667
0.349241
0.348808
0.348369
0.347925
0.347475
0.347021
0.346562
0.346098
0.353831
0.36191
0.355772
0.359064
0.356553
0.357311
0.356391
0.356217
0.355764
0.355336
0.354934
0.3545
0.354069
0.35364
0.353209
0.352774
0.352338
0.351899
0.351455
0.351009
0.350559
0.350106
0.349649
0.349188
0.348723
0.348256
0.347784
0.347308
0.346829
0.346997
0.368761
0.357678
0.363925
0.358839
0.361417
0.359035
0.35937
0.358282
0.357872
0.357284
0.356722
0.356185
0.355653
0.355129
0.354613
0.3541
0.353591
0.353085
0.352583
0.352081
0.35158
0.35108
0.350579
0.350078
0.349575
0.349071
0.348566
0.348058
0.342039
0.369757
0.36301
0.362827
0.362473
0.362043
0.360954
0.360917
0.360122
0.359754
0.359189
0.358677
0.358159
0.357639
0.357119
0.356597
0.356073
0.355548
0.355023
0.354496
0.35397
0.353442
0.352911
0.35238
0.351846
0.35131
0.350773
0.35023
0.349687
0.3446
0.368437
0.363432
0.362821
0.362801
0.362374
0.362178
0.361947
0.361427
0.361121
0.360694
0.360277
0.359859
0.359423
0.358974
0.358513
0.358042
0.357563
0.357073
0.356578
0.356074
0.355561
0.355042
0.354515
0.353983
0.353445
0.352898
0.35235
0.351795
0.349563
0.367623
0.364578
0.364281
0.364215
0.363817
0.363558
0.363316
0.3631
0.362836
0.362471
0.362133
0.361766
0.361384
0.360984
0.360569
0.360143
0.359701
0.359247
0.358779
0.358295
0.357802
0.357294
0.35678
0.356254
0.355712
0.355168
0.35461
0.35404
0.355574
0.369516
0.367692
0.36717
0.367132
0.366998
0.366675
0.366229
0.365913
0.365685
0.365358
0.364998
0.364627
0.364236
0.363833
0.363416
0.362981
0.362536
0.362073
0.361593
0.361104
0.360595
0.360078
0.359545
0.358994
0.358438
0.357863
0.357274
0.356683
0.36228
0.37353
0.372367
0.371761
0.371588
0.371451
0.371239
0.37089
0.370431
0.369986
0.369642
0.369273
0.368859
0.368432
0.367987
0.367531
0.367062
0.366575
0.366076
0.365561
0.365024
0.36448
0.363918
0.363336
0.362752
0.362142
0.361518
0.360892
0.360237
0.370183
0.379118
0.378419
0.377793
0.377518
0.377311
0.377064
0.376761
0.376372
0.375858
0.375345
0.374928
0.374493
0.374023
0.373541
0.373034
0.37251
0.371975
0.371413
0.370829
0.370241
0.369624
0.368987
0.368351
0.367681
0.366998
0.366308
0.365587
0.364856
0.379429
0.386135
0.385741
0.385115
0.384761
0.384488
0.384186
0.383843
0.383457
0.383004
0.382448
0.381859
0.381345
0.380826
0.380292
0.379741
0.379162
0.378557
0.377934
0.377297
0.37662
0.37593
0.375236
0.374492
0.373739
0.37298
0.372178
0.371373
0.370558
0.388743
0.394573
0.39428
0.393629
0.393212
0.392876
0.392513
0.392106
0.391657
0.391162
0.390603
0.389956
0.389256
0.388618
0.38798
0.387333
0.386663
0.385969
0.385252
0.384493
0.383738
0.382957
0.382116
0.381287
0.380441
0.379539
0.378643
0.377711
0.37674
0.39887
0.404126
0.403884
0.4032
0.402724
0.402325
0.401899
0.401423
0.400897
0.40032
0.399686
0.398983
0.398197
0.397354
0.396557
0.395763
0.394956
0.394119
0.393248
0.392374
0.391453
0.390481
0.389535
0.38855
0.387496
0.386441
0.385391
0.384308
0.383215
0.410184
0.414758
0.414543
0.413832
0.413299
0.412839
0.41235
0.411808
0.41121
0.410555
0.409836
0.409048
0.408182
0.407227
0.406217
0.405239
0.404264
0.403279
0.402266
0.401208
0.400136
0.399059
0.397899
0.396731
0.39559
0.394379
0.393093
0.391824
0.390529
0.42242
0.426448
0.426233
0.425494
0.424907
0.424387
0.423837
0.423231
0.422565
0.421836
0.421038
0.420167
0.419217
0.41818
0.417054
0.415878
0.414721
0.41357
0.41241
0.41123
0.409997
0.408735
0.407451
0.406117
0.404737
0.403326
0.40192
0.400496
0.399026
0.435485
0.439071
0.438837
0.438064
0.437421
0.436838
0.436221
0.435544
0.434803
0.433992
0.433105
0.432137
0.431085
0.429943
0.428705
0.427375
0.426003
0.424651
0.423296
0.421922
0.420518
0.419086
0.417589
0.416055
0.414525
0.412931
0.411259
0.409571
0.407853
0.449278
0.452508
0.452239
0.451424
0.450718
0.450064
0.44937
0.44861
0.447777
0.446866
0.44587
0.444782
0.443599
0.442317
0.440931
0.439435
0.437843
0.436223
0.434601
0.432985
0.431342
0.429651
0.42793
0.426167
0.424355
0.422506
0.420624
0.41874
0.416802
0.463761
0.466705
0.466392
0.46553
0.464761
0.464033
0.463259
0.462411
0.461481
0.460463
0.45935
0.458133
0.45681
0.455375
0.453827
0.452158
0.450365
0.448479
0.446569
0.444649
0.442739
0.440809
0.438804
0.436777
0.434742
0.432634
0.43044
0.428213
0.425976
0.478847
0.481572
0.481211
0.480299
0.479466
0.478666
0.47781
0.476872
0.475843
0.474716
0.473481
0.472133
0.470663
0.46907
0.46735
0.465501
0.463515
0.461391
0.459176
0.456942
0.454672
0.452423
0.450166
0.447792
0.445361
0.442886
0.440423
0.437956
0.435353
0.494428
0.497001
0.496593
0.495628
0.49473
0.493856
0.492918
0.491888
0.490757
0.489516
0.488156
0.486669
0.485048
0.483288
0.481388
0.479344
0.477155
0.474813
0.472322
0.469739
0.467137
0.464536
0.461907
0.45922
0.456528
0.453756
0.450861
0.447938
0.445038
0.510409
0.512892
0.512439
0.51142
0.510459
0.509513
0.508495
0.507374
0.50614
0.504786
0.5033
0.501673
0.499899
0.497972
0.495888
0.493647
0.491248
0.488686
0.485958
0.483085
0.480142
0.477195
0.47421
0.471197
0.46814
0.465015
0.461887
0.458675
0.455294
0.526657
0.529112
0.528619
0.527545
0.526521
0.525505
0.524407
0.523195
0.521859
0.520387
0.518771
0.517
0.515066
0.512963
0.510687
0.508235
0.505608
0.502802
0.499816
0.496648
0.493347
0.489972
0.486547
0.483153
0.479716
0.476116
0.472455
0.46879
0.465153
0.543054
0.545539
0.545011
0.543882
0.542798
0.541714
0.540537
0.539235
0.537795
0.536207
0.534458
0.532538
0.530438
0.528151
0.525672
0.522997
0.520125
0.517055
0.513784
0.510309
0.50664
0.502845
0.498956
0.495066
0.491148
0.487177
0.483205
0.479115
0.474905
0.559476
0.562041
0.561485
0.560302
0.55916
0.558011
0.556759
0.55537
0.553829
0.552124
0.550243
0.548175
0.545909
0.543437
0.540753
0.537852
0.534732
0.531392
0.52783
0.524043
0.520026
0.515813
0.511499
0.507113
0.502736
0.498238
0.493687
0.489047
0.484315
0.575796
0.578487
0.577908
0.576672
0.575476
0.574266
0.572942
0.571467
0.569828
0.568011
0.566
0.563783
0.56135
0.558692
0.555801
0.552671
0.549298
0.545681
0.541819
0.537709
0.533344
0.528722
0.523924
0.519034
0.514014
0.509002
0.503924
0.498717
0.493566
0.591894
0.594746
0.59415
0.592864
0.591616
0.590349
0.588957
0.587401
0.585665
0.583735
0.581595
0.579231
0.576633
0.573789
0.57069
0.567329
0.563702
0.559805
0.555637
0.551198
0.546485
0.541492
0.536257
0.530779
0.525338
0.519766
0.514117
0.508458
0.502666
0.607655
0.610697
0.610087
0.608753
0.607458
0.606138
0.60468
0.603045
0.601216
0.599178
0.596913
0.594406
0.591644
0.588614
0.585307
0.581716
0.577834
0.573658
0.569185
0.564415
0.559346
0.553978
0.548338
0.542443
0.536256
0.530101
0.523837
0.517473
0.511075
0.622974
0.626227
0.625607
0.624228
0.62289
0.62152
0.620001
0.618289
0.616369
0.614223
0.611834
0.609182
0.606255
0.603039
0.599522
0.595697
0.591555
0.58709
0.582301
0.577186
0.571742
0.565962
0.559854
0.553491
0.546827
0.539882
0.532985
0.526033
0.518894
0.637761
0.641238
0.640611
0.639191
0.637813
0.636397
0.634818
0.633033
0.631024
0.628772
0.626257
0.623461
0.620369
0.616964
0.613236
0.609174
0.604767
0.600011
0.594901
0.589435
0.583612
0.577429
0.570869
0.563971
0.55678
0.549407
0.541744
0.534043
0.526253
0.651937
0.655646
0.655014
0.653556
0.652142
0.650683
0.649047
0.64719
0.645093
0.642735
0.640096
0.637156
0.633895
0.6303
0.626357
0.622053
0.617377
0.612324
0.606886
0.601062
0.594852
0.588258
0.581272
0.573881
0.566108
0.558049
0.549869
0.541418
0.532773
0.665441
0.669384
0.668746
0.667254
0.665808
0.664309
0.662618
0.660691
0.658506
0.656042
0.653277
0.650188
0.646758
0.642968
0.638803
0.634249
0.629295
0.623932
0.618153
0.611956
0.605339
0.598305
0.590857
0.582992
0.574684
0.566002
0.55705
0.547826
0.538471
0.678227
0.682398
0.681755
0.680233
0.678759
0.677222
0.675478
0.67348
0.671208
0.668637
0.665744
0.662506
0.658901
0.65491
0.650515
0.645701
0.640456
0.634768
0.628632
0.622042
0.614997
0.607499
0.599554
0.591168
0.582338
0.573069
0.563453
0.553505
0.543266
0.690262
0.694651
0.694003
0.692455
0.690957
0.689384
0.687589
0.685522
0.683162
0.680484
0.677462
0.674071
0.670286
0.666086
0.661453
0.656368
0.650817
0.644788
0.638273
0.631267
0.623767
0.615778
0.607303
0.598354
0.588939
0.579055
0.568797
0.558141
0.54705
0.701529
0.706121
0.705466
0.703898
0.702379
0.700773
0.698928
0.696794
0.694348
0.691563
0.688411
0.684863
0.680893
0.676478
0.671596
0.666228
0.660356
0.653967
0.64705
0.639598
0.631611
0.623091
0.614046
0.604489
0.594435
0.583886
0.572891
0.561528
0.549767
0.712023
0.716797
0.716134
0.714549
0.713015
0.711379
0.709487
0.707287
0.704756
0.701865
0.698581
0.694875
0.690717
0.686081
0.680943
0.67528
0.66907
0.662299
0.654953
0.647025
0.638512
0.629418
0.619751
0.609529
0.598772
0.587502
0.575728
0.563538
0.55097
0.721749
0.726681
0.726006
0.724412
0.722866
0.721204
0.719267
0.717005
0.714391
0.711394
0.70798
0.704115
0.699766
0.694905
0.689504
0.683533
0.676969
0.669795
0.661993
0.653554
0.644473
0.634754
0.624406
0.613449
0.601909
0.589822
0.577211
0.56413
0.550662
0.730722
0.735783
0.735095
0.733496
0.731945
0.73026
0.728281
0.72596
0.723266
0.720167
0.716624
0.712602
0.708064
0.702975
0.697301
0.691012
0.684081
0.676482
0.668197
0.65921
0.649517
0.639117
0.628023
0.616255
0.603844
0.590836
0.577279
0.56321
0.548785
0.738966
0.744124
0.74342
0.741823
0.740271
0.738567
0.736551
0.734174
0.731406
0.728209
0.724542
0.720365
0.715637
0.710318
0.704369
0.697756
0.690446
0.682404
0.673608
0.664038
0.653684
0.642546
0.630633
0.617969
0.604591
0.59055
0.575914
0.560739
0.54516
0.74651
0.751731
0.751007
0.74942
0.747872
0.746154
0.744106
0.741679
0.738841
0.735551
0.731764
0.727437
0.722523
0.716976
0.710754
0.703813
0.69611
0.687609
0.678277
0.668089
0.657029
0.645091
0.632284
0.618632
0.604177
0.588979
0.573119
0.556689
0.539783
0.753388
0.758638
0.757892
0.75632
0.754784
0.753056
0.75098
0.74851
0.745608
0.742232
0.738333
0.733861
0.728767
0.722999
0.716505
0.709231
0.701129
0.692157
0.682269
0.67143
0.659616
0.646817
0.633035
0.618296
0.602645
0.586154
0.568916
0.551058
0.532685
0.759638
0.764882
0.764113
0.762564
0.761045
0.759313
0.757216
0.754708
0.75175
0.748296
0.744292
0.739686
0.73442
0.728436
0.721673
0.714072
0.705574
0.696121
0.685656
0.674136
0.661525
0.6478
0.632961
0.617028
0.600051
0.582111
0.563324
0.543843
0.523821
0.765301
0.770507
0.769711
0.768194
0.766698
0.764967
0.762856
0.760318
0.757313
0.75379
0.749691
0.744959
0.73953
0.733341
0.726321
0.718401
0.709507
0.699567
0.688517
0.676291
0.662841
0.648129
0.632145
0.614904
0.596456
0.576894
0.556357
0.53503
0.51313
0.770417
0.775554
0.774731
0.773255
0.771789
0.770066
0.767948
0.765389
0.762345
0.758762
0.754579
0.749733
0.744155
0.737773
0.730509
0.722278
0.713
0.702582
0.690938
0.677988
0.663661
0.647904
0.630686
0.612013
0.591934
0.570553
0.548032
0.524603
0.50055
0.775027
0.78007
0.77922
0.777794
0.776365
0.774657
0.772539
0.769967
0.766894
0.763262
0.759006
0.754059
0.748347
0.741788
0.734296
0.725776
0.716126
0.70524
0.693008
0.679326
0.664096
0.647238
0.6287
0.608467
0.586581
0.563152
0.538376
0.512538
0.48601
0.779167
0.784098
0.783223
0.781856
0.780471
0.778784
0.776675
0.7741
0.771007
0.767336
0.76302
0.757986
0.752156
0.745441
0.737742
0.728953
0.718953
0.707622
0.694821
0.680409
0.664259
0.646259
0.626319
0.604397
0.580514
0.554783
0.527431
0.498813
0.469417
0.782871
0.787682
0.786785
0.785486
0.784152
0.782493
0.7804
0.777829
0.774725
0.771026
0.766661
0.761556
0.755626
0.748776
0.740898
0.73187
0.721556
0.709807
0.696462
0.681344
0.664279
0.645109
0.6237
0.599966
0.573892
0.545574
0.515271
0.483424
0.450674
0.786166
0.790863
0.789946
0.788724
0.787447
0.785823
0.783753
0.781193
0.778086
0.774366
0.769965
0.764803
0.758795
0.751836
0.74381
0.734581
0.723992
0.711871
0.698024
0.682239
0.664288
0.64395
0.62103
0.595375
0.566918
0.53571
0.502029
0.466411
0.4297
0.789075
0.793683
0.792745
0.791607
0.790391
0.788806
0.786766
0.784222
0.781118
0.777387
0.77296
0.76776
0.761694
0.754657
0.74652
0.737134
0.726324
0.713889
0.699599
0.683199
0.664419
0.642955
0.618521
0.590876
0.559863
0.525453
0.487925
0.447885
0.406463
0.791615
0.796178
0.795213
0.794165
0.793011
0.791469
0.789461
0.786939
0.783844
0.780112
0.775675
0.770456
0.764362
0.757282
0.749081
0.739592
0.728625
0.715948
0.701297
0.684368
0.664831
0.642316
0.616424
0.58677
0.553071
0.515172
0.473311
0.428079
0.381003
0.7938
0.798379
0.797375
0.796419
0.795327
0.79383
0.791858
0.789363
0.786287
0.782568
0.778143
0.772936
0.766854
0.75978
0.751571
0.742048
0.731002
0.718177
0.70327
0.68593
0.665756
0.64229
0.61504
0.583434
0.547007
0.50537
0.458679
0.407358
0.353511
0.795643
0.80031
0.799246
0.798384
0.797352
0.795901
0.793971
0.791514
0.788475
0.784799
0.780424
0.775277
0.769264
0.762262
0.754119
0.744647
0.733615
0.720747
0.705708
0.688099
0.667457
0.643213
0.614763
0.581338
0.542268
0.496725
0.444753
0.38629
0.324328
0.79716
0.801985
0.800835
0.800069
0.799094
0.797694
0.795819
0.793424
0.790458
0.786872
0.782606
0.777586
0.771714
0.764862
0.75687
0.747541
0.736629
0.723839
0.708812
0.691108
0.670211
0.645442
0.616074
0.581071
0.539595
0.49014
0.432607
0.365804
0.294078
0.798374
0.803411
0.802149
0.801484
0.800565
0.799228
0.797433
0.795137
0.792297
0.788863
0.784777
0.779961
0.774311
0.767697
0.75995
0.750867
0.740195
0.727626
0.712784
0.695194
0.674302
0.649323
0.619441
0.583279
0.539848
0.486724
0.42369
0.347332
0.264025
0.799316
0.804595
0.803201
0.802646
0.801788
0.800535
0.798852
0.796702
0.794043
0.790825
0.78699
0.782454
0.77711
0.770821
0.763416
0.754685
0.744374
0.732169
0.71769
0.700433
0.679826
0.654982
0.625049
0.588294
0.543615
0.487416
0.419396
0.332573
0.235719
0.800027
0.805551
0.804017
0.803584
0.802796
0.801651
0.800114
0.798148
0.795715
0.792763
0.789226
0.785017
0.780024
0.774107
0.767096
0.758781
0.74891
0.737167
0.723176
0.706414
0.686312
0.661896
0.63232
0.595514
0.550341
0.49194
0.419723
0.322337
0.209184
0.800518
0.806273
0.804608
0.804305
0.803592
0.80257
0.801193
0.799426
0.797225
0.794535
0.791282
0.787374
0.7827
0.777119
0.770466
0.762534
0.753076
0.741773
0.728257
0.71199
0.692416
0.668483
0.639386
0.602735
0.55743
0.497385
0.421337
0.313812
0.17998
0.800721
0.806681
0.804896
0.804717
0.804067
0.803148
0.8019
0.800288
0.798262
0.795761
0.792708
0.78901
0.784553
0.7792
0.772786
0.765106
0.755913
0.744887
0.731659
0.715671
0.696381
0.672644
0.643722
0.60684
0.561106
0.498925
0.418572
0.298791
0.13903
0.800665
0.806777
0.804889
0.804805
0.804181
0.803307
0.802108
0.800549
0.798585
0.796155
0.793181
0.789569
0.785204
0.779947
0.773628
0.766039
0.756929
0.745966
0.732779
0.716778
0.697425
0.673464
0.644221
0.606458
0.559636
0.494232
0.409111
0.273476
0.0802473
0.801397
0.807558
0.805635
0.805628
0.805063
0.804254
0.8031
0.801556
0.799574
0.797094
0.794049
0.790354
0.785903
0.780559
0.774156
0.766477
0.757265
0.746172
0.732815
0.716572
0.696886
0.672414
0.642464
0.603488
0.554941
0.486076
0.396453
0.248563
0.0201233
0.805912
0.812087
0.810307
0.810501
0.810369
0.810137
0.809632
0.808699
0.807199
0.805023
0.802088
0.798323
0.793648
0.787955
0.781105
0.772909
0.763124
0.751429
0.737415
0.720525
0.700064
0.674972
0.643852
0.604497
0.553388
0.484576
0.389353
0.251352
0.0989243
0.345546
0.344904
0.344255
0.343599
0.342936
0.342268
0.341593
0.340914
0.340229
0.339539
0.338845
0.338145
0.337441
0.336734
0.336022
0.335306
0.334587
0.333864
0.333137
0.332408
0.331676
0.330941
0.330204
0.329465
0.328725
0.327984
0.327241
0.326498
0.325753
0.325009
0.324264
0.323518
0.322773
0.322029
0.321284
0.320541
0.319798
0.319057
0.318317
0.317578
0.316842
0.316107
0.315374
0.314644
0.313917
0.313193
0.312471
0.311753
0.311039
0.310328
0.309622
0.30892
0.308222
0.307529
0.306841
0.306158
0.305481
0.304809
0.304143
0.303483
0.302829
0.302181
0.30154
0.300905
0.300277
0.299656
0.299043
0.298437
0.297838
0.297247
0.296664
0.296089
0.295522
0.294963
0.294413
0.293872
0.293339
0.292816
0.292301
0.291796
0.2913
0.290814
0.290337
0.28987
0.289413
0.288965
0.288528
0.288101
0.287684
0.287278
0.286882
0.286497
0.286122
0.285759
0.285406
0.285064
0.284733
0.284413
0.284104
0.283806
0.28352
0.283244
0.282979
0.282726
0.282484
0.282252
0.282032
0.281822
0.281624
0.281436
0.281259
0.281092
0.280935
0.280789
0.280652
0.280525
0.280408
0.280301
0.280203
0.280115
0.280036
0.279966
0.279905
0.279853
0.279809
0.279773
0.279743
0.279722
0.279705
0.279697
0.279694
0.279698
0.279711
0.279725
0.279759
0.279783
0.27985
0.279868
0.280021
0.34626
0.345599
0.344931
0.344256
0.343576
0.342891
0.3422
0.341502
0.3408
0.340092
0.33938
0.338664
0.337943
0.337217
0.336489
0.335757
0.335022
0.334285
0.333545
0.332804
0.33206
0.331313
0.330564
0.329813
0.329059
0.328302
0.327543
0.326782
0.326019
0.325255
0.324489
0.323723
0.322956
0.322189
0.321423
0.320656
0.31989
0.319125
0.318362
0.3176
0.316839
0.31608
0.315324
0.31457
0.313819
0.31307
0.312325
0.311583
0.310844
0.31011
0.309379
0.308653
0.307931
0.307214
0.306501
0.305794
0.305092
0.304396
0.303706
0.303021
0.302343
0.301671
0.301006
0.300348
0.299698
0.299054
0.298418
0.29779
0.29717
0.296558
0.295954
0.295359
0.294772
0.294195
0.293626
0.293066
0.292516
0.291975
0.291444
0.290923
0.290411
0.28991
0.289419
0.288938
0.288468
0.288008
0.287559
0.287121
0.286694
0.286278
0.285873
0.285479
0.285096
0.284724
0.284364
0.284016
0.283679
0.283353
0.28304
0.282738
0.282448
0.282169
0.281903
0.281648
0.281406
0.281175
0.280956
0.280749
0.280553
0.280369
0.280198
0.280037
0.279889
0.279752
0.279626
0.279512
0.27941
0.279318
0.279237
0.279166
0.279104
0.279051
0.279008
0.278972
0.278944
0.278924
0.27891
0.2789
0.278902
0.278895
0.27891
0.278903
0.278932
0.278911
0.278956
0.278921
0.278943
0.2789
0.278855
0.347458
0.346762
0.346061
0.345356
0.344645
0.343929
0.343206
0.342478
0.341745
0.341007
0.340262
0.339511
0.338754
0.337994
0.337227
0.336454
0.335677
0.334895
0.334107
0.333314
0.332516
0.331716
0.330914
0.33011
0.329305
0.328499
0.327692
0.326884
0.326075
0.325265
0.324455
0.323645
0.322835
0.322025
0.321216
0.320407
0.319599
0.318792
0.317987
0.317183
0.316381
0.315581
0.314784
0.31399
0.313198
0.31241
0.311626
0.310845
0.310068
0.309295
0.308527
0.307764
0.307005
0.306252
0.305504
0.304762
0.304026
0.303296
0.302572
0.301855
0.301145
0.300441
0.299745
0.299056
0.298375
0.297701
0.297036
0.296379
0.29573
0.29509
0.294458
0.293835
0.293222
0.292618
0.292023
0.291438
0.290862
0.290296
0.289741
0.289196
0.288662
0.288138
0.287625
0.287123
0.286632
0.286152
0.285684
0.285228
0.284783
0.28435
0.283928
0.283519
0.283122
0.282737
0.282364
0.282004
0.281657
0.281322
0.281
0.280691
0.280394
0.280111
0.27984
0.279583
0.279338
0.279107
0.278889
0.278685
0.278494
0.278316
0.278152
0.278002
0.277865
0.277742
0.277633
0.277538
0.277457
0.277389
0.277334
0.277293
0.277265
0.277249
0.277247
0.277258
0.277282
0.277316
0.277367
0.277428
0.277499
0.277578
0.277671
0.277756
0.277848
0.277987
0.277964
0.278264
0.278028
0.27874
0.277972
0.349044
0.348296
0.347547
0.346791
0.346028
0.34526
0.344487
0.343708
0.342923
0.342132
0.341335
0.340535
0.339731
0.338918
0.338101
0.337279
0.336454
0.335624
0.33479
0.333954
0.333114
0.33227
0.331424
0.33058
0.329738
0.328887
0.328024
0.327157
0.326288
0.325418
0.324547
0.323677
0.322805
0.321934
0.321064
0.320195
0.319327
0.31846
0.317596
0.316733
0.315873
0.315016
0.314161
0.31331
0.312461
0.311616
0.310775
0.309938
0.309105
0.308277
0.307454
0.306635
0.305823
0.305015
0.304214
0.303419
0.30263
0.301848
0.301073
0.300305
0.299544
0.298791
0.298046
0.297308
0.296579
0.295858
0.295146
0.294443
0.293749
0.293064
0.292389
0.291724
0.291069
0.290424
0.289791
0.289168
0.288556
0.287956
0.287366
0.286788
0.286222
0.285667
0.285124
0.284594
0.284076
0.283569
0.283075
0.282593
0.282124
0.281668
0.281225
0.280794
0.280377
0.279973
0.279582
0.279204
0.27884
0.278489
0.278153
0.27783
0.277521
0.277227
0.276946
0.276681
0.27643
0.276194
0.275974
0.275769
0.275579
0.275405
0.275248
0.275106
0.274981
0.274872
0.274781
0.274706
0.274648
0.274608
0.274586
0.274583
0.274598
0.274632
0.274686
0.274759
0.274853
0.274969
0.2751
0.275248
0.27544
0.275629
0.275813
0.276241
0.276062
0.277106
0.276078
0.278484
0.27582
0.280432
0.274819
0.351131
0.350364
0.349584
0.348791
0.347994
0.347186
0.346368
0.345541
0.344705
0.343865
0.343016
0.342156
0.341285
0.34041
0.339542
0.338662
0.337763
0.336858
0.335947
0.335031
0.334112
0.333187
0.332265
0.331343
0.330411
0.329473
0.328533
0.327595
0.326655
0.325713
0.324769
0.323822
0.322874
0.321926
0.320978
0.32003
0.319083
0.318137
0.317193
0.31625
0.315309
0.31437
0.313435
0.312502
0.311574
0.31065
0.30973
0.308816
0.307907
0.307003
0.306105
0.305214
0.304329
0.30345
0.302579
0.301715
0.300859
0.30001
0.29917
0.298338
0.297515
0.296701
0.295896
0.295101
0.294315
0.29354
0.292774
0.292019
0.291274
0.29054
0.289818
0.289105
0.288403
0.287713
0.287035
0.28637
0.285714
0.285071
0.284439
0.283818
0.28321
0.282613
0.28203
0.281458
0.280898
0.280353
0.279818
0.279298
0.278791
0.278298
0.277819
0.277354
0.276903
0.276467
0.276046
0.27564
0.275249
0.274873
0.274514
0.27417
0.273842
0.273531
0.273236
0.272957
0.272696
0.272452
0.272225
0.272015
0.271823
0.27165
0.271494
0.271357
0.27124
0.271141
0.271062
0.271003
0.270964
0.270946
0.27095
0.270975
0.271023
0.271095
0.271192
0.271317
0.271464
0.271646
0.271876
0.272119
0.272373
0.272907
0.272809
0.274159
0.272993
0.27641
0.272597
0.279868
0.270983
0.285163
0.264364
0.353368
0.352569
0.351753
0.35093
0.350086
0.349228
0.348356
0.34748
0.346585
0.345674
0.344755
0.343823
0.342888
0.341939
0.340971
0.340002
0.339035
0.338066
0.337091
0.336102
0.335108
0.334112
0.333102
0.332075
0.331042
0.330017
0.329
0.327975
0.326945
0.325914
0.324882
0.323853
0.322827
0.321799
0.320772
0.319745
0.318718
0.317693
0.316669
0.315646
0.314626
0.313609
0.312596
0.311585
0.310578
0.309573
0.308574
0.307579
0.306589
0.305606
0.30463
0.30366
0.302697
0.301741
0.300794
0.299854
0.298923
0.298001
0.297088
0.296184
0.295289
0.294405
0.29353
0.292666
0.291811
0.290966
0.290131
0.289306
0.288491
0.287689
0.286894
0.286112
0.28534
0.28458
0.283835
0.283102
0.282382
0.281673
0.280975
0.280293
0.279625
0.278971
0.278332
0.277711
0.277104
0.276509
0.275933
0.275369
0.274822
0.274291
0.273774
0.273273
0.272788
0.272319
0.271867
0.271431
0.271012
0.27061
0.270225
0.269858
0.269507
0.269174
0.268858
0.26856
0.26828
0.268019
0.267775
0.267551
0.267345
0.267158
0.266991
0.266844
0.266717
0.266611
0.266525
0.266462
0.266421
0.266402
0.266409
0.26644
0.266498
0.266586
0.266702
0.266853
0.267034
0.267243
0.267488
0.267857
0.267928
0.268798
0.268289
0.270173
0.268565
0.271823
0.268896
0.27373
0.267897
0.280417
0.249097
0.355963
0.35511
0.354252
0.353366
0.352458
0.351544
0.350614
0.349658
0.34869
0.347715
0.346729
0.345726
0.344711
0.343679
0.342633
0.341581
0.340512
0.339423
0.338326
0.33723
0.336127
0.335012
0.333889
0.332793
0.331714
0.330605
0.329452
0.328294
0.327141
0.325984
0.324822
0.323662
0.322511
0.321371
0.320238
0.319107
0.317977
0.316847
0.315719
0.314592
0.313469
0.312351
0.311234
0.310117
0.309004
0.307899
0.306806
0.30572
0.30464
0.303566
0.302498
0.301436
0.30038
0.299331
0.29829
0.297257
0.296232
0.295215
0.294207
0.293209
0.292221
0.291242
0.290275
0.289314
0.288365
0.287429
0.286505
0.285596
0.284702
0.28382
0.282956
0.282104
0.281266
0.280447
0.279648
0.27886
0.278089
0.277334
0.276594
0.275866
0.275149
0.274455
0.273779
0.27311
0.272457
0.271823
0.271199
0.270595
0.270007
0.269435
0.268881
0.268344
0.267825
0.267325
0.266842
0.266377
0.265929
0.265499
0.265086
0.264692
0.264317
0.26396
0.263621
0.263301
0.263001
0.262719
0.262456
0.262212
0.261988
0.261784
0.2616
0.261437
0.261294
0.261173
0.261074
0.260997
0.260944
0.260914
0.260909
0.26093
0.260974
0.261044
0.261136
0.261254
0.261397
0.261556
0.261668
0.262009
0.261909
0.26257
0.262157
0.263133
0.262559
0.263496
0.263503
0.263816
0.26368
0.270446
0.238535
0.359449
0.358536
0.357586
0.356611
0.35562
0.354602
0.353557
0.352491
0.35143
0.350336
0.349213
0.348074
0.346909
0.345742
0.344562
0.343357
0.342144
0.340943
0.339732
0.338502
0.337259
0.336014
0.334752
0.333482
0.332241
0.330992
0.329732
0.328482
0.327208
0.325937
0.324677
0.323403
0.322129
0.320877
0.319617
0.318346
0.317071
0.315797
0.314525
0.313257
0.31199
0.310726
0.309475
0.308249
0.307036
0.305824
0.304609
0.303396
0.302189
0.300992
0.299805
0.298628
0.297462
0.296305
0.295158
0.294022
0.292896
0.291782
0.290679
0.289588
0.288508
0.287443
0.286392
0.285361
0.284351
0.283358
0.282381
0.281423
0.280476
0.279548
0.278636
0.27773
0.276845
0.275975
0.275115
0.274267
0.273429
0.272601
0.271785
0.27099
0.270219
0.269457
0.268713
0.267996
0.267297
0.266612
0.26595
0.265305
0.264677
0.264066
0.263474
0.262897
0.262337
0.261792
0.261266
0.260758
0.260266
0.259793
0.259336
0.258899
0.258481
0.258081
0.257701
0.257339
0.256997
0.256675
0.256373
0.256091
0.255828
0.255586
0.255365
0.255164
0.254984
0.254826
0.254687
0.25457
0.254473
0.254396
0.254338
0.2543
0.254277
0.254269
0.254274
0.254288
0.254319
0.254377
0.254353
0.254546
0.254422
0.254763
0.254568
0.254973
0.25488
0.254936
0.255276
0.25447
0.254158
0.261215
0.232305
0.363991
0.362945
0.36187
0.360791
0.359675
0.358521
0.357362
0.356185
0.354965
0.353725
0.352483
0.351233
0.349968
0.348687
0.34739
0.346087
0.344769
0.343412
0.342042
0.340668
0.339307
0.337936
0.336539
0.335099
0.333609
0.332152
0.330731
0.32929
0.327872
0.326494
0.325081
0.323641
0.322208
0.320755
0.319305
0.317874
0.316458
0.315052
0.313653
0.312261
0.31088
0.309507
0.308136
0.306757
0.30538
0.304017
0.302671
0.301338
0.300015
0.298703
0.297402
0.296113
0.294836
0.293575
0.29233
0.291101
0.28989
0.288694
0.287515
0.286353
0.285207
0.284078
0.282961
0.28186
0.280769
0.27969
0.278627
0.277565
0.27652
0.275497
0.274479
0.273487
0.272509
0.271539
0.270588
0.269657
0.268745
0.267861
0.266996
0.266138
0.265292
0.264474
0.263676
0.262882
0.262104
0.261349
0.260613
0.259891
0.259193
0.258514
0.257854
0.257217
0.256601
0.256008
0.255435
0.254879
0.254342
0.253823
0.253324
0.252843
0.252381
0.251936
0.25151
0.251102
0.250713
0.250343
0.249992
0.24966
0.249346
0.249052
0.248776
0.24852
0.248281
0.248061
0.247857
0.247671
0.2475
0.247344
0.247201
0.247073
0.246958
0.246853
0.246763
0.246678
0.246606
0.246577
0.246465
0.246542
0.246383
0.246561
0.246391
0.246589
0.246652
0.246404
0.246875
0.246063
0.244657
0.251347
0.22628
0.369552
0.36838
0.367192
0.365953
0.364697
0.363427
0.362133
0.360799
0.359429
0.358065
0.356663
0.355231
0.353786
0.352317
0.35083
0.349311
0.347781
0.34625
0.344724
0.343172
0.341584
0.339994
0.338436
0.33688
0.33532
0.333756
0.332175
0.330591
0.329007
0.327381
0.325769
0.324193
0.322596
0.320984
0.319377
0.317775
0.316177
0.31459
0.313018
0.311461
0.309916
0.308381
0.306851
0.305324
0.303809
0.302312
0.30083
0.299362
0.297908
0.29647
0.295047
0.29364
0.292248
0.290871
0.28951
0.288164
0.286835
0.285521
0.284222
0.28294
0.281673
0.280421
0.279183
0.277958
0.276749
0.275551
0.274375
0.273221
0.272088
0.270964
0.269853
0.268772
0.267701
0.266652
0.265624
0.264609
0.263609
0.262632
0.261678
0.260747
0.259846
0.258971
0.258123
0.257302
0.256499
0.255715
0.254948
0.254204
0.253473
0.252756
0.25206
0.251378
0.250711
0.250058
0.249419
0.248801
0.248201
0.247622
0.247063
0.246524
0.246005
0.245506
0.245026
0.244567
0.244127
0.243705
0.243302
0.242916
0.242548
0.242197
0.241862
0.241542
0.241238
0.240947
0.240672
0.240409
0.240159
0.239923
0.239699
0.239486
0.239287
0.2391
0.23893
0.238773
0.238614
0.238524
0.238352
0.238344
0.238177
0.238212
0.238126
0.23807
0.238359
0.23798
0.237838
0.237191
0.236025
0.241643
0.220052
0.375607
0.374262
0.372851
0.371434
0.369982
0.368465
0.366919
0.365387
0.363813
0.362192
0.360553
0.358891
0.357212
0.355509
0.353803
0.352131
0.350446
0.348709
0.346942
0.345169
0.343441
0.34172
0.339916
0.338106
0.336341
0.33459
0.332869
0.331107
0.32926
0.32742
0.325581
0.323774
0.322032
0.320311
0.318592
0.316873
0.315151
0.313426
0.311701
0.309979
0.308263
0.306553
0.304854
0.303177
0.30152
0.299871
0.298232
0.29661
0.295006
0.293418
0.291847
0.290292
0.288752
0.287228
0.285721
0.28423
0.282757
0.281301
0.279864
0.278448
0.277053
0.275677
0.274329
0.273002
0.271702
0.270426
0.269166
0.267935
0.266725
0.265534
0.264372
0.263219
0.262092
0.260987
0.259906
0.258855
0.25783
0.256827
0.255842
0.25487
0.253915
0.252978
0.252048
0.25114
0.250249
0.249384
0.248549
0.247721
0.246918
0.246147
0.245392
0.24466
0.243953
0.243265
0.242605
0.241968
0.241351
0.240753
0.240172
0.239608
0.239062
0.238533
0.238021
0.237525
0.237044
0.236581
0.236132
0.235699
0.235282
0.234879
0.234491
0.234118
0.233759
0.233414
0.233084
0.232768
0.232466
0.232179
0.231908
0.231651
0.231411
0.231188
0.230978
0.230803
0.230612
0.230496
0.230319
0.230261
0.2301
0.230093
0.229981
0.2298
0.229839
0.229272
0.22886
0.228285
0.227381
0.232135
0.213381
0.381865
0.380237
0.378633
0.37696
0.375235
0.373585
0.371896
0.370082
0.368262
0.366438
0.364612