/*--------------------------------*- C++ -*----------------------------------*\
| =========                 |                                                 |
| \\      /  F ield         | OpenFOAM: The Open Source CFD Toolbox           |
|  \\    /   O peration     | Version:  5.x                                   |
|   \\  /    A nd           | Web:      www.OpenFOAM.org                      |
|    \\/     M anipulation  |                                                 |
\*---------------------------------------------------------------------------*/
/*   Windows 32 and 64 bit porting by blueCAPE: http://www.bluecape.com.pt   *\
|  Based on Windows porting (2.0.x v4) by Symscape: http://www.symscape.com   |
\*---------------------------------------------------------------------------*/
FoamFile
{
    version     2.0;
    format      ascii;
    class       surfaceScalarField;
    location    "240";
    object      phi;
}
// * * * * * * * * * * * * * * * * * * * * * * * * * * * * * * * * * * * * * //

dimensions      [0 3 -1 0 0 0 0];

internalField   nonuniform List<scalar> 
87341
(
0.366177
39.5569
0.529724
39.7595
0.496689
39.9561
0.60434
39.8154
0.642279
39.8851
0.687345
39.878
0.725895
39.8845
0.765028
39.8839
0.801403
39.8867
0.82732
39.8971
0.850992
39.8994
0.874304
39.8997
0.897155
39.9002
0.91945
39.9007
0.940865
39.9016
0.959212
39.9047
0.977162
39.9051
0.994196
39.906
1.00941
39.9078
1.025
39.9074
1.03913
39.9089
1.05212
39.91
1.06569
39.9095
1.07781
39.9109
1.0895
39.9113
1.1018
39.9107
1.1127
39.9121
1.12355
39.9122
39.9116
1.13497
0.968084
38.5888
1.35786
39.3697
1.46706
39.8469
1.6006
39.6819
1.63652
39.8492
1.79304
39.7214
1.89126
39.7863
2.02387
39.7513
2.11935
39.7912
2.2271
39.7894
2.32495
39.8015
2.41534
39.8093
2.50157
39.814
2.58157
39.8207
2.65387
39.8293
2.72293
39.8356
2.7873
39.8407
2.84572
39.8476
2.90103
39.8525
2.95041
39.8581
2.99605
39.8633
3.04032
39.8658
3.07934
39.8704
3.11627
39.874
3.15228
39.8753
3.18381
39.8792
3.21459
39.8814
3.24472
39.8821
39.8847
3.27167
2.03248
36.5563
3.34737
38.0548
4.12345
39.0708
4.20289
39.6024
4.35842
39.6936
4.28898
39.7909
4.31801
39.7572
4.2948
39.7745
4.32069
39.7653
4.34989
39.7602
4.38869
39.7627
4.43576
39.7623
4.48296
39.7668
4.52956
39.7741
4.57873
39.7801
4.62664
39.7877
4.67122
39.7961
4.71856
39.8002
4.76474
39.8063
4.81068
39.8121
4.86029
39.8137
4.90669
39.8194
4.9531
39.824
5.00179
39.8253
5.04703
39.8301
5.09303
39.8332
5.1395
39.8349
5.18161
39.84
39.8419
5.22439
1.69658
34.8597
3.49573
36.2557
4.94556
37.621
5.83335
38.7146
6.1347
39.3923
6.22429
39.7013
6.23999
39.7416
6.26481
39.7497
6.28243
39.7477
6.29565
39.7469
6.3091
39.7492
6.31656
39.7548
6.32658
39.7567
6.33884
39.7619
6.35197
39.767
6.36985
39.7698
6.39816
39.7678
6.42695
39.7714
6.45881
39.7745
6.49749
39.7734
6.53331
39.7778
6.57349
39.7792
6.61925
39.7783
6.66089
39.7837
6.70465
39.7863
6.75092
39.7869
6.79455
39.7913
6.84153
39.793
39.7933
6.89014
1.0869
33.7728
2.45305
34.8895
4.02543
36.0486
5.48956
37.2505
6.55809
38.3238
7.14273
39.1167
7.34677
39.5375
7.3867
39.7097
7.42177
39.7126
7.45474
39.714
7.4865
39.7175
7.51806
39.7233
7.5462
39.7286
7.57199
39.7361
7.60802
39.731
7.64963
39.7282
7.68391
39.7335
7.72134
39.734
7.76551
39.7303
7.80615
39.7328
7.85162
39.7324
7.89891
39.7319
7.93915
39.738
7.98457
39.7382
8.03344
39.7375
8.08004
39.7403
8.13042
39.7409
8.1788
39.7446
39.7489
8.22317
0.850381
32.9224
1.85936
33.8805
3.02491
34.883
4.35114
35.9243
5.70109
36.9738
6.83348
37.9843
7.55592
38.8151
7.90387
39.3618
8.02963
39.5869
8.10162
39.642
8.17292
39.6462
8.24182
39.6544
8.30807
39.6623
8.37555
39.6686
8.44514
39.6614
8.513
39.6604
8.58595
39.6606
8.66204
39.6579
8.72652
39.6658
8.79471
39.6646
8.86388
39.6632
8.92941
39.6664
9.00141
39.666
9.07299
39.6667
9.13857
39.6719
9.2069
39.672
9.27103
39.6767
9.33545
39.6802
39.6748
9.40952
0.741561
32.1809
1.58394
33.0382
2.52941
33.9376
3.5819
34.8718
4.73102
35.8247
5.93798
36.7773
7.04396
37.7091
7.86448
38.5413
8.31311
39.1382
8.50788
39.4472
8.6189
39.5352
8.73188
39.5414
8.8499
39.5443
8.97206
39.5465
9.07869
39.5548
9.18832
39.5507
9.30059
39.5483
9.40375
39.5548
9.51369
39.5559
9.6234
39.5549
9.72595
39.5607
9.82918
39.5631
9.92837
39.5669
10.0232
39.5718
10.1213
39.5738
10.2157
39.5777
10.3135
39.579
10.4144
39.5793
39.5852
10.5041
0.690191
31.4907
1.44932
32.279
2.28114
33.1058
3.1879
33.965
4.16707
34.8455
5.20976
35.7346
6.30113
36.6177
7.36833
37.4741
8.23237
38.2742
8.77899
38.9006
9.03991
39.2742
9.18779
39.3935
9.33367
39.3984
9.47462
39.4055
9.62478
39.4046
9.77052
39.405
9.90444
39.4144
10.0441
39.4151
10.1857
39.4143
10.3223
39.4183
10.4619
39.4211
10.5948
39.4302
10.7232
39.4385
10.854
39.4409
10.9846
39.4431
11.1171
39.4452
11.2442
39.4519
11.3584
39.465
39.4711
11.4725
0.661909
30.8288
1.37406
31.5669
2.14074
32.3391
2.96407
33.1417
3.84363
33.966
4.77601
34.8022
5.75386
35.6399
6.76146
36.4665
7.76847
37.2672
8.64641
38.0227
9.26287
38.6578
9.58317
39.0732
9.77076
39.2108
9.95254
39.2237
10.1243
39.2329
10.2949
39.2343
10.4719
39.2374
10.6423
39.2447
10.8044
39.2521
10.9653
39.2574
11.1193
39.267
11.2833
39.2663
11.455
39.2668
11.625
39.2709
11.7823
39.2858
11.9287
39.2988
12.0704
39.3102
12.2268
39.3086
39.3028
12.3952
0.639963
30.1888
1.32235
30.8845
2.04625
31.6152
2.8134
32.3745
3.62405
33.1553
4.47671
33.9496
5.36767
34.7489
6.28994
35.5442
7.2318
36.3253
8.17452
37.0799
9.04265
37.7897
9.69934
38.4165
10.0671
38.8431
10.2897
39.0011
10.5032
39.0194
10.7034
39.0341
10.9005
39.0403
11.1033
39.0419
11.3002
39.0552
11.4948
39.0629
11.7012
39.0606
11.8969
39.0706
12.0694
39.0943
12.2348
39.1054
12.4108
39.1099
12.5987
39.1108
12.7981
39.1109
12.9831
39.1235
39.1524
13.1335
0.630225
29.5586
1.29343
30.2213
1.99069
30.9179
2.72257
31.6426
3.48889
32.389
4.28849
33.15
5.11899
33.9184
5.97648
34.6867
6.85482
35.447
7.74455
36.1902
8.62917
36.905
9.4714
37.5743
10.1331
38.1813
10.522
38.6122
10.7672
38.7742
11.013
38.7883
11.245
38.8083
11.4585
38.8284
11.6842
38.8296
11.9177
38.8293
12.1304
38.848
12.3335
38.8675
12.5624
38.8654
12.7932
38.8747
13.0133
38.8898
13.2149
38.9092
13.3957
38.9301
13.5664
38.9528
38.9516
13.7671
0.631144
28.9274
1.29004
29.5624
1.97792
30.23
2.69492
30.9256
3.44068
31.6432
4.21403
32.3766
5.01307
33.1194
5.83496
33.8648
6.67559
34.6064
7.52901
35.3368
8.38592
36.0481
9.22996
36.7302
10.0422
37.3691
10.7052
37.9492
11.1101
38.3693
11.3776
38.5208
11.6498
38.5362
11.9172
38.561
12.1753
38.5715
12.4122
38.5925
12.6608
38.5994
12.9222
38.606
13.1601
38.6275
13.3847
38.6502
13.6087
38.6657
13.8385
38.6795
14.0725
38.6961
14.3151
38.7102
38.7368
14.53
0.640279
28.2872
1.30609
28.8966
1.99753
29.5386
2.71441
30.2088
3.45627
30.9014
4.22222
31.6107
5.01066
32.3309
5.81935
33.0561
6.64528
33.7804
7.48436
34.4977
8.33084
35.2016
9.1762
35.8849
10.007
36.5384
10.8071
37.149
11.473
37.7034
11.8881
38.1057
12.171
38.2533
12.4701
38.2619
12.7612
38.2804
13.0399
38.3137
13.3004
38.3388
13.5531
38.3534
13.8201
38.3605
14.0914
38.3788
14.3606
38.3965
14.6015
38.4385
14.8313
38.4662
15.0653
38.4763
38.4938
15.3083
0.653095
27.6341
1.32934
28.2203
2.02893
28.839
2.75159
29.4861
3.4964
30.1566
4.26241
30.8447
5.04833
31.545
5.85225
32.2522
6.67174
32.9609
7.50371
33.6657
8.34412
34.3612
9.18747
35.0415
10.0258
35.7
10.8466
36.3282
11.6356
36.9144
12.2955
37.4458
12.7193
37.8294
13.0132
37.9681
13.2983
37.9953
13.5946
38.0175
13.9076
38.0258
14.2146
38.0464
14.504
38.0711
14.7764
38.1065
15.0405
38.1324
15.3112
38.1678
15.5841
38.1934
15.843
38.2173
38.2556
16.0813
0.668107
26.966
1.35759
27.5308
2.06832
28.1283
2.80017
28.7543
3.55229
29.4044
4.32323
30.0737
5.11165
30.7566
5.91596
31.4479
6.73401
32.1429
7.56323
32.8365
8.40043
33.524
9.24162
34.2004
10.0814
34.8602
10.9124
35.4973
11.723
36.1038
12.4998
36.669
13.1522
37.1771
13.5813
37.5389
13.9189
37.6577
14.268
37.6684
14.6004
37.6934
14.9065
37.7403
15.2081
37.7694
15.5123
37.8023
15.8098
37.8348
16.1014
37.8763
16.3815
37.9133
16.6619
37.9369
37.9698
16.9477
0.686144
26.2798
1.39234
26.8246
2.11828
27.4023
2.86357
28.009
3.62766
28.6403
4.40931
29.2921
5.2067
29.9592
6.01821
30.6364
6.84205
31.319
7.67596
32.0026
8.51725
32.6827
9.36276
33.3548
10.2085
34.0144
11.0494
34.6564
11.8783
35.2749
12.6848
35.8625
13.4525
36.4093
14.0919
36.8996
14.5339
37.2157
14.889
37.3133
15.2144
37.3679
15.5491
37.4057
15.8822
37.4363
16.213
37.4715
16.5646
37.4832
16.9214
37.5195
17.2577
37.5769
17.5606
37.6341
37.7016
17.8288
0.704849
25.575
1.42887
26.1006
2.17159
26.6596
2.93232
27.2482
3.71032
27.8623
4.50472
28.4977
5.31393
29.15
6.13588
29.8145
6.96874
30.4862
7.81056
31.1608
8.65895
31.8343
9.51118
32.5026
10.364
33.1616
11.2135
33.8069
12.0546
34.4338
12.8804
35.0368
13.6808
35.6089
14.437
36.1433
15.0419
36.6109
15.4563
36.8989
15.8239
37.0003
16.1972
37.0324
16.5824
37.0512
16.9334
37.1205
17.2437
37.1729
17.5266
37.2366
17.8295
37.274
18.1694
37.2943
37.3722
18.4988
0.723471
24.8515
1.46549
25.3586
2.22543
25.8997
3.00251
26.4712
3.79573
27.0691
4.60402
27.6894
5.42629
28.3277
6.26067
28.9801
7.10494
29.6419
7.95713
30.3086
8.81514
30.9763
9.67652
31.6412
10.5385
32.2996
11.3978
32.9476
12.2506
33.581
13.0918
34.1955
13.9149
34.7858
14.7123
35.3459
15.4509
35.8723
16.025
36.3248
16.4651
36.5602
16.8581
36.6395
17.2293
36.6799
17.6214
36.7284
18.0345
36.7598
18.4293
36.8418
18.7796
36.9237
19.0836
36.9903
37.0554
19.4003
0.741596
24.1099
1.50128
24.5989
2.27838
25.1226
3.07202
25.6775
3.88114
26.26
4.70449
26.866
5.5408
27.4914
6.38877
28.1321
7.24635
28.7843
8.11127
29.4437
8.98151
30.1061
9.85488
30.7679
10.7289
31.4256
11.6009
32.0756
12.4676
32.7143
13.3253
33.3378
14.1693
33.9419
14.9936
34.5216
15.7942
35.0717
16.5273
35.5917
17.0804
36.0071
17.5327
36.1872
17.9313
36.2813
18.299
36.3607
18.6204
36.4384
18.981
36.4812
19.3888
36.5158
19.8168
36.5624
36.6753
20.1969
0.75807
23.3518
1.53398
23.823
2.32693
24.3296
3.136
24.8685
3.96004
25.436
4.79777
26.0283
5.6477
26.6415
6.50839
27.2714
7.37834
27.9144
8.25532
28.5667
9.137
29.2244
10.0213
29.8836
10.9058
30.5411
11.788
31.1934
12.6651
31.8372
13.5338
32.4691
14.3902
33.0854
15.2298
33.682
16.0468
34.2547
16.8377
34.8008
17.5321
35.3126
18.0236
35.6957
18.4515
35.8534
18.9002
35.912
19.3591
35.9794
19.7549
36.0854
20.0662
36.2045
20.365
36.2636
36.321
20.7193
0.773107
22.5787
1.56386
23.0323
2.37145
23.522
3.19487
24.045
4.03298
24.5979
4.88443
25.1769
5.74771
25.7782
6.62117
26.3979
7.50323
27.0323
8.39214
27.6778
9.28558
28.331
10.1812
28.988
11.0768
29.6455
11.9698
30.3004
12.8576
30.9494
13.7372
31.5895
14.6054
32.2172
15.4584
32.829
16.2919
33.4212
17.1022
33.9905
17.8726
34.5422
18.5446
35.0238
19.0423
35.3557
19.4562
35.4981
19.8544
35.5813
20.3449
35.5949
20.8916
35.6579
21.3431
35.8121
35.9789
21.6852
0.786632
21.7921
1.59083
22.2281
2.41178
22.7011
3.24846
23.2083
4.09973
23.7466
4.96425
24.3123
5.84052
24.9019
6.7269
25.5116
7.62159
26.1376
8.52289
26.7765
9.42888
27.425
10.3372
28.0797
11.2456
28.7371
12.1516
29.3943
13.0528
30.0482
13.9466
30.6958
14.8298
31.3339
15.6994
31.9594
16.5517
32.5689
17.3829
33.1594
18.1941
33.731
18.9364
34.2814
19.5673
34.7248
20.1271
34.9383
20.5926
35.1157
20.9179
35.2697
21.2317
35.344
21.6467
35.3971
35.4777
22.1479
0.798612
20.9935
1.61477
21.4119
2.44767
21.8682
3.29634
22.3597
4.15965
22.8833
5.0363
23.4357
5.92483
24.0134
6.82362
24.6128
7.7309
25.2303
8.64483
25.8626
9.56361
26.5062
10.4851
27.1581
11.4071
27.8151
12.3272
28.4742
13.243
29.1324
14.152
29.7868
15.0515
30.4344
15.9386
31.0724
16.8101
31.6975
17.6627
32.3067
18.4958
32.8979
19.3059
33.4714
19.9894
34.0413
20.5088
34.4189
21.0453
34.5792
21.5943
34.7206
22.0564
34.8819
22.3807
35.0727
35.1536
22.7049
0.808941
20.1845
1.63545
20.5854
2.47875
21.0249
3.33794
21.5005
4.21194
22.0093
5.09952
22.5481
5.99926
23.1136
6.90961
23.7024
7.82884
24.3111
8.75511
24.9363
9.68653
25.5748
10.6211
26.2235
11.5568
26.8795
12.4912
27.5398
13.4221
28.2015
14.3469
28.8619
15.2632
29.5181
16.1682
30.1674
17.0591
30.8066
17.933
31.4328
18.7878
32.043
19.6241
32.6351
20.4462
33.2192
21.1119
33.7532
21.567
34.1241
21.9998
34.2878
22.5339
34.3478
23.0922
34.5145
34.7113
23.5344
0.817393
19.3671
1.65238
19.7504
2.50426
20.173
3.3722
20.6326
4.2552
21.1263
5.15211
21.6512
6.06159
22.2042
6.98215
22.7819
7.91215
23.3811
8.84982
23.9986
9.79325
24.6313
10.7405
25.2763
11.6894
25.9306
12.6378
26.5913
13.5835
27.2558
14.5241
27.9214
15.457
28.5853
16.3796
29.2448
17.2891
29.8971
18.1826
30.5393
19.057
31.1686
19.9091
31.783
20.7353
32.393
21.5194
32.9692
22.1828
33.4607
22.6251
33.8455
23.0041
33.9688
23.4345
34.0842
34.1843
23.9615
0.823793
18.5434
1.6652
18.909
2.5236
19.3146
3.39825
19.7579
4.28825
20.2363
5.19252
20.7469
6.10981
21.2869
7.03871
21.853
7.97762
22.4422
8.92484
23.0514
9.8785
23.6777
10.8367
24.3181
11.7974
24.9699
12.7584
25.6304
13.7174
26.2968
14.672
26.9667
15.6198
27.6374
16.5582
28.3065
17.4841
28.9711
18.3947
29.6288
19.2862
30.277
20.155
30.9143
21.0023
31.5457
21.7839
32.1875
22.5208
32.7239
23.1777
33.1886
23.656
33.4905
24.0872
33.653
33.8245
24.447
0.828011
17.7153
1.67362
18.0634
2.53631
18.4519
3.41543
18.8788
4.3102
19.3415
5.21963
19.8375
6.14255
20.3639
7.07764
20.9179
8.02337
21.4965
8.9781
22.0967
9.94004
22.7157
10.9073
23.3508
11.8778
23.9993
12.8496
24.6586
13.8203
25.3261
14.7876
25.9994
15.7492
26.6759
16.7024
27.3532
17.6447
28.0289
18.5731
28.7004
19.4848
29.3653
20.3772
30.0219
21.2515
30.6713
22.1048
31.3341
22.8392
31.9895
23.5525
32.4753
24.1317
32.9112
24.6342
33.1505
33.403
25.0557
0.829982
16.8854
1.67751
17.2159
2.54216
17.5873
3.42342
17.9975
4.32062
18.4443
5.23286
18.9253
6.15908
19.4377
7.09804
19.9789
8.04832
20.5462
9.00834
21.1367
9.97637
21.7477
10.9505
22.3767
11.9288
23.021
12.9093
23.6782
13.8896
24.3458
14.8675
25.0215
15.8406
25.7027
16.8065
26.3873
17.7626
27.0728
18.7061
27.7569
19.6344
28.4371
20.5449
29.1114
21.4374
29.7788
22.324
30.4475
23.1588
31.1547
23.8486
31.7855
24.4552
32.3046
25.0029
32.6028
32.8987
25.5072
0.829686
16.0557
1.6768
16.3687
2.54106
16.723
3.42208
17.1165
4.31929
17.5471
5.23194
18.0126
6.15906
18.5106
7.09951
19.0385
8.05195
19.5937
9.0149
20.1737
9.98668
20.7759
10.9655
21.3979
11.9493
22.0372
12.9362
22.6913
13.9239
23.3581
14.9102
24.0352
15.8927
24.7203
16.8688
25.4112
17.836
26.1056
18.7915
26.8013
19.7326
27.496
20.6565
28.1875
21.5613
28.8741
22.452
29.5569
23.3536
30.253
24.175
30.9641
24.7958
31.6837
25.3005
32.0982
32.4179
25.7813
0.827119
15.2286
1.6715
15.5244
2.53298
15.8615
3.41134
16.2381
4.30613
16.6523
5.21673
17.102
6.14228
17.585
7.08175
18.099
8.03391
18.6416
8.99735
19.2103
9.97048
19.8028
10.9516
20.4168
11.9387
21.05
12.9298
21.7002
13.9227
22.3652
14.9152
23.0427
15.9049
23.7306
16.8892
24.4269
17.8656
25.1292
18.8314
25.8356
19.7836
26.5437
20.7196
27.2515
21.6365
27.9572
22.5335
28.6598
23.4193
29.3673
24.3098
30.0737
25.1287
30.8648
25.6846
31.5423
31.9541
26.1484
0.822296
14.4063
1.66162
14.685
2.51795
15.0052
3.39123
15.3649
4.28116
15.7624
5.18725
16.1959
6.10876
16.6635
7.04478
17.163
7.99418
17.6922
8.95564
18.2488
9.92765
18.8308
10.9085
19.4359
11.8964
20.0621
12.8893
20.7073
13.885
21.3694
14.8813
22.0464
15.8757
22.7362
16.8659
23.4368
17.849
24.1461
18.8224
24.8622
19.7832
25.5829
20.7285
26.3063
21.6553
27.0304
22.561
27.7541
23.4477
28.4806
24.3127
29.2087
25.1888
29.9887
25.9454
30.7857
31.4445
26.4551
0.815259
13.591
1.64724
13.8531
2.49608
14.1563
3.3619
14.499
4.24455
14.8797
5.14368
15.2968
6.05869
15.7485
6.98878
16.2329
7.93295
16.748
8.88995
17.2918
9.85837
17.8624
10.8366
18.4577
11.8228
19.076
12.815
19.7151
13.811
20.3734
14.8086
21.0488
15.8053
21.7394
16.7986
22.4435
17.7857
23.159
18.7639
23.884
19.7301
24.6166
20.6816
25.3548
21.6152
26.0968
22.5282
26.8411
23.4202
27.5886
24.2878
28.3411
25.1532
29.1233
25.9748
29.9641
30.7673
26.652
0.806064
12.7849
1.62847
13.0307
2.46755
13.3173
3.32357
13.643
4.19658
14.0067
5.08636
14.407
5.99246
14.8424
6.91422
15.3112
7.85074
15.8115
8.8009
16.3417
9.76337
16.8999
10.7366
17.4845
11.7188
18.0937
12.7081
18.7259
13.7022
19.3792
14.6989
20.0521
15.6957
20.7427
16.6898
21.4494
17.6785
22.1703
18.6588
22.9037
19.6278
23.6476
20.5823
24.4003
21.5193
25.1598
22.4359
25.9246
23.3303
26.6942
24.2011
27.4704
25.0637
28.2606
25.9098
29.118
30.0289
26.6481
0.794776
11.9902
1.60546
12.22
2.43254
12.4902
3.27652
12.799
4.13759
13.1456
5.01571
13.5289
5.91059
13.9475
6.8217
14.4
7.74828
14.8849
8.68934
15.4006
9.64366
15.9456
10.6098
16.5184
11.586
17.1175
12.5704
17.7415
13.5607
18.3889
14.5547
19.0581
15.5498
19.7477
16.543
20.4561
17.5316
21.1817
18.5123
21.9229
19.482
22.678
20.4373
23.445
21.3749
24.2222
22.2917
25.0078
23.1852
25.8007
24.054
26.6015
24.9037
27.411
25.7697
28.252
29.2313
26.5674
0.78146
11.2087
1.57832
11.4231
2.39128
11.6772
3.22103
11.9693
4.06797
12.2987
4.93222
12.6647
5.81365
13.0661
6.71192
13.5018
7.62641
13.9704
8.55627
14.4707
9.50041
15.0015
10.4575
15.5613
11.4259
16.1491
12.4037
16.7637
13.3886
17.4039
14.3784
18.0683
15.3704
18.7557
16.3616
19.4648
17.349
20.1943
18.3292
20.9427
19.2987
21.7085
20.2538
22.4899
21.1909
23.2851
22.1064
24.0923
22.9973
24.9098
23.8617
25.7371
24.6986
26.5741
25.5316
27.4189
28.3763
26.3866
0.766171
10.4425
1.54719
10.6421
2.34395
10.8805
3.15737
11.1559
3.98805
11.468
4.83629
11.8164
5.70215
12.2002
6.58547
12.6185
7.48579
13.0701
8.40243
13.5541
9.33445
14.0694
10.2806
14.6152
11.2393
15.1904
12.2089
15.7941
13.1871
16.4257
14.1716
17.0838
15.1597
17.7677
16.1483
18.4763
17.134
19.2086
18.1134
19.9633
19.0826
20.7393
20.0375
21.5349
20.974
22.3486
21.888
23.1783
22.7757
24.0221
23.6341
24.8787
24.4609
25.7473
25.2587
26.6212
27.5436
26.0914
0.748953
9.69358
1.51216
9.87889
2.2907
10.1019
3.08575
10.3608
3.8981
10.6557
4.72827
10.9863
5.5765
11.352
6.4428
11.7522
7.32693
12.186
8.22838
12.6526
9.14636
13.1515
10.0798
13.6817
11.0273
14.2429
11.9873
14.8342
12.9577
15.4553
13.936
16.1055
14.9194
16.7842
15.9049
17.4908
16.8889
18.2245
17.8677
18.9846
18.837
19.7701
19.7923
20.5796
20.7289
21.4119
21.6422
22.265
22.5274
23.1369
23.3804
24.0256
24.198
24.9297
24.9751
25.8441
26.7723
25.7464
0.729832
8.96375
1.47328
9.13544
2.23165
9.34355
3.00634
9.58615
3.79837
9.86365
4.60845
10.1762
5.43703
10.5234
6.28434
10.9049
7.15032
11.32
8.03467
11.7683
8.93681
12.2493
9.85585
12.7627
10.7906
13.3081
11.7396
13.8852
12.7009
14.494
13.672
15.1344
14.6502
15.806
15.6324
16.5086
16.6148
17.242
17.5935
18.006
18.5638
18.7998
19.5207
19.6227
20.4589
20.4736
21.373
21.3509
22.2573
22.2526
23.1067
23.1763
23.9167
24.1197
24.6816
25.0792
26.046
25.4079
0.708828
8.25492
1.43062
8.41365
2.16689
8.60729
2.91928
8.83375
3.68905
9.09388
4.47709
9.38814
5.28409
9.71642
6.11046
10.0785
6.95637
10.4741
7.82174
10.9029
8.7062
11.3649
9.60909
11.8598
10.5294
12.3877
11.4659
12.9488
12.4167
13.5431
13.3798
14.1713
14.3524
14.8335
15.3311
15.5298
16.3124
16.2608
17.2917
17.0266
18.2642
17.8273
19.2243
18.6626
20.1661
19.5318
21.0832
20.4338
21.969
21.3668
22.817
22.3282
23.6215
23.3152
24.3766
24.3241
25.3458
25.0768
0.685953
7.56896
1.38421
7.71539
2.09649
7.895
2.82473
8.10552
3.57035
8.34826
4.33449
8.624
5.11801
8.9329
5.92155
9.27495
6.7455
9.65012
7.58999
10.0584
8.4549
10.5
9.33981
10.9749
10.244
11.4835
11.1664
12.0264
12.1056
12.6039
13.0597
13.2172
14.0259
13.8673
15.001
14.5547
15.9813
15.2805
16.9623
16.0457
17.9385
16.8511
18.904
17.6971
19.8519
18.5839
20.7748
19.5109
21.6651
20.4766
22.5148
21.4785
23.3164
22.5135
24.0634
23.5772
24.6619
24.7473
0.661225
6.90774
1.33411
7.04251
2.0206
7.2085
2.72288
7.40324
3.44258
7.62856
4.18103
7.88556
4.93927
8.17465
5.71816
8.49606
6.51829
8.84999
7.34003
9.23669
8.1835
9.65649
9.04857
10.1098
9.93481
10.5973
10.8415
11.1197
11.7674
11.678
12.7109
12.2736
13.67
12.9083
14.6412
13.5835
15.6209
14.3008
16.6043
15.0622
17.586
15.8694
18.5592
16.7239
19.5163
17.6268
20.4488
18.5784
21.3475
19.5779
22.2028
20.6233
23.0054
21.7109
23.7468
22.8358
23.9902
24.4185
0.634681
6.27306
1.28043
6.39676
1.93943
6.5495
2.61408
6.72859
3.30622
6.93642
4.01731
7.17447
4.7486
7.44336
5.50111
7.74355
6.27561
8.07548
7.07271
8.4396
7.89277
8.83643
8.73597
9.26663
9.60223
9.73105
10.4911
10.2308
11.4019
10.7673
12.3333
11.3422
13.2838
11.9578
14.2503
12.617
15.2292
13.3219
16.216
14.0755
17.2047
14.8807
18.1883
15.7404
19.1582
16.6569
20.1047
17.6319
21.0168
18.6657
21.883
19.7571
22.6914
20.9025
23.4312
22.096
23.3286
24.0928
0.606396
5.66666
1.22339
5.77976
1.85335
5.91955
2.49888
6.08305
3.16197
6.27333
3.84423
6.49221
4.54703
6.74056
5.27153
7.01906
6.01866
7.32835
6.78923
7.66903
7.58386
8.0418
8.40303
8.44745
9.24705
8.88703
10.116
9.3619
11.0094
9.87381
11.9266
10.4249
12.8664
11.018
13.8269
11.6565
14.8045
12.3443
15.7947
13.0853
16.7917
13.8837
17.7881
14.744
18.7745
15.6704
19.74
16.6664
20.6716
17.7341
21.5552
18.8735
22.3759
20.0818
23.1197
21.3522
22.6741
23.7742
0.576502
5.09016
1.16332
5.19295
1.76291
5.31995
2.37808
5.46789
3.01087
5.64053
3.66301
5.84007
4.33596
6.06762
5.03094
6.32408
5.74903
6.61025
6.49119
6.92688
7.25829
7.2747
8.05114
7.6546
8.87043
8.06773
9.7167
8.51563
10.5902
9.00033
11.4907
9.52442
12.4176
10.0911
13.3696
10.7045
14.3441
11.3698
15.337
12.0924
16.3428
12.878
17.3537
13.733
18.3602
14.664
19.3498
15.6768
20.3078
16.7761
21.2168
17.9645
22.0581
19.2404
22.8133
20.5971
22.0215
23.4659
0.545211
4.54495
1.10072
4.63744
1.66892
4.75175
2.25272
4.88408
2.85422
5.03903
3.47516
5.21913
4.11704
5.42574
4.78113
5.65999
5.46857
5.92281
6.18045
6.215
6.91787
6.53728
7.68195
6.89052
8.47382
7.27586
9.29453
7.69492
10.1449
8.14992
11.0256
8.64376
11.9364
9.18026
12.8769
9.76402
13.8456
10.4011
14.8393
11.0986
15.8529
11.8644
16.8791
12.7068
17.908
13.6351
18.9265
14.6583
19.9177
15.7849
20.8609
17.0213
21.7328
18.3686
22.509
19.8209
21.3632
23.1672
0.51284
4.03211
1.03627
4.114
1.57237
4.21565
2.1241
4.33236
2.69352
4.46961
3.28236
4.63029
3.89209
4.81601
4.52396
5.02812
5.17915
5.26762
5.85886
5.53529
6.56439
5.83175
7.29719
6.15772
8.05881
6.51425
8.85082
6.90291
9.67472
7.32602
10.5318
7.78668
11.4229
8.2892
12.3481
8.83874
13.3071
9.44211
14.298
10.1078
15.3169
10.8455
16.3571
11.6666
17.4092
12.5829
18.4596
13.6079
19.4899
14.7546
20.4761
16.0352
21.3896
17.4551
22.1983
19.0121
20.6896
22.872
0.479824
3.55229
0.970829
3.623
1.47444
3.71204
1.99363
3.81317
2.53036
3.93289
3.08628
4.07436
3.6628
4.2395
4.26112
4.42979
4.88245
4.64629
5.52808
4.88966
6.19952
5.16031
6.89852
5.45872
7.62704
5.78573
8.38718
6.14277
9.18103
6.53218
10.0106
6.95709
10.8776
7.42218
11.7832
7.93317
12.7278
8.49757
13.7108
9.12473
14.7302
9.82609
15.781
10.6158
16.8544
11.5095
17.9372
12.5252
19.0103
13.6815
20.0469
14.9985
21.0131
16.489
21.8666
18.1586
19.9893
22.5669
0.446714
3.10557
0.905333
3.16438
1.37634
3.24103
1.86271
3.3268
2.36622
3.42938
2.88843
3.55216
3.43064
3.69728
3.99403
3.8664
4.57984
4.06048
5.18951
4.28
5.82475
4.52507
6.48763
4.79584
7.18046
5.0929
7.90578
5.41745
8.66626
5.77169
9.46449
6.15886
10.303
6.58365
11.1838
7.05241
12.1084
7.57294
13.0777
8.15549
14.0911
8.81267
15.146
9.56086
16.2358
10.4197
17.3481
11.4129
18.4646
12.565
19.5564
13.9067
20.5843
15.461
21.4944
17.2485
19.2501
22.2336
0.414128
2.69144
0.840738
2.73777
1.27925
2.80252
1.73263
2.87342
2.20242
2.95959
2.69006
3.06451
3.19681
3.19053
3.72386
3.33935
4.27256
3.51177
4.84457
3.70799
5.44185
3.92779
6.06673
4.17096
6.72181
4.43782
7.40996
4.72929
8.13429
5.04737
8.89771
5.39544
9.70334
5.77802
10.5541
6.20162
11.4528
6.67425
12.4016
7.2067
13.4016
7.81266
14.4522
8.5103
15.55
9.32187
16.6853
10.2776
17.8418
11.4085
18.9892
12.7594
20.0853
14.3649
21.0622
16.2717
18.4597
21.8526
0.382667
2.30878
0.777871
2.34256
1.18415
2.39624
1.60446
2.45311
2.04005
2.524
2.49231
2.61226
2.96249
2.72035
3.45193
2.84991
3.96225
3.00145
4.49537
3.17488
5.05352
3.36963
5.63924
3.58524
6.25534
3.82172
6.9048
4.07983
7.59081
4.36136
8.31667
4.66958
9.08586
5.00883
9.90206
5.38542
10.769
5.80734
11.6901
6.28561
12.6683
6.83442
13.7049
7.47367
14.8002
8.2266
15.948
9.12975
17.1368
10.2198
18.3356
11.5605
19.5034
13.1971
20.5546
15.2205
17.6061
21.4081
0.352795
1.95598
0.717339
1.97802
1.09183
2.02175
1.47914
2.0658
1.88022
2.12292
2.29646
2.19602
2.72931
2.2875
3.18039
2.39883
3.65164
2.53019
4.14538
2.68115
4.66406
2.85094
5.21034
3.03896
5.78704
3.24502
6.3971
3.46977
7.04363
3.71484
7.73007
3.98313
8.46016
4.27874
9.23789
4.60769
10.0676
4.97759
10.9538
5.39941
11.9014
5.88685
12.914
6.46108
13.9954
7.14521
15.1429
7.9823
16.3524
9.0102
17.5943
10.3186
18.8334
11.9579
19.9631
14.0908
16.6756
20.8936
0.324749
1.63123
0.65951
1.64326
1.00292
1.67834
1.35759
1.71114
1.72424
1.75627
2.10443
1.81583
2.49985
1.89208
2.91261
1.98607
3.34502
2.09778
3.79972
2.22646
4.27935
2.37131
4.7866
2.53172
5.32411
2.70752
5.89463
2.89924
6.50115
3.10832
7.14696
3.33732
7.83578
3.58993
8.57183
3.87164
9.36
4.18942
10.2055
4.55392
11.1149
4.97748
12.0936
5.4823
13.1499
6.08897
14.2838
6.84842
15.5005
7.79349
16.7728
9.0463
18.0802
10.6506
19.2899
12.8811
15.6509
20.3146
0.298528
1.33271
0.604595
1.33719
0.91806
1.36487
1.24093
1.38826
1.57396
1.42325
1.9189
1.47089
2.27782
1.53315
2.65327
1.61063
3.04794
1.7031
3.4646
1.8098
3.90597
1.92993
4.3747
2.06299
4.87333
2.20889
5.40442
2.36815
5.9707
2.54204
6.57523
2.73279
7.22158
2.94357
7.91397
3.17925
8.65763
3.44576
9.45825
3.7533
10.3237
4.11202
11.2608
4.54522
12.2817
5.06806
13.3895
5.74065
14.6001
6.58287
15.8899
7.75648
17.2622
9.27829
18.5572
11.5861
14.5054
19.7027
0.273996
1.05871
0.552792
1.0584
0.837963
1.0797
1.13058
1.09565
1.43163
1.1222
1.74314
1.15938
2.06752
1.20878
2.40751
1.27063
2.76604
1.34458
3.14601
1.42983
3.55019
1.52575
3.98114
1.63204
4.44129
1.74874
4.93302
1.87642
5.45886
2.01621
6.02165
2.17
6.62482
2.34041
7.27245
2.53162
7.96993
2.74828
8.72318
3.00005
9.5411
3.2941
10.4313
3.65504
11.4096
4.08975
12.4817
4.66854
13.6753
5.38923
14.9739
6.45792
16.4099
7.84226
17.8165
10.1796
13.1869
19.135
0.251059
0.807651
0.504391
0.805064
0.763441
0.82065
1.02798
0.831105
1.29954
0.85064
1.58029
0.87863
1.87277
0.916293
2.17988
0.963529
2.50457
1.01989
2.84971
1.08468
3.21798
1.15748
3.61187
1.23815
4.03372
1.32688
4.48585
1.42429
4.97072
1.53134
5.49111
1.64962
6.05034
1.78117
6.65244
1.92952
7.30275
2.09797
8.0074
2.29539
8.77589
2.52562
9.61681
2.81411
10.5488
3.15779
11.581
3.63631
12.7516
4.21858
14.0608
5.14882
15.5627
6.34032
17.1603
8.58202
11.5903
18.7569
0.22984
0.577811
0.459729
0.575174
0.69516
0.58522
0.934281
0.591984
1.17934
0.605581
1.43251
0.625465
1.69639
0.65241
1.97378
0.686141
2.26745
0.726209
2.58008
0.772062
2.91414
0.823411
3.27202
0.88027
3.656
0.942902
4.06839
1.0119
4.51167
1.08806
4.98866
1.17262
5.50274
1.2671
6.05801
1.37426
6.65977
1.49621
7.31463
1.64053
8.03205
1.8082
8.82284
2.02332
9.70608
2.27456
10.6984
2.64399
11.8422
3.07476
13.1731
3.81792
14.7448
4.7686
16.704
6.62287
9.52086
18.7734
0.210689
0.367121
0.418977
0.366886
0.633377
0.37082
0.849845
0.375516
1.07154
0.383884
1.30048
0.396524
1.53919
0.4137
1.79023
0.435107
2.05607
0.460362
2.33906
0.489075
2.64139
0.521078
2.96522
0.556439
3.31271
0.595415
3.68614
0.638473
4.088
0.686199
4.52116
0.739465
4.98902
0.799235
5.49583
0.867441
6.04687
0.945176
6.64929
1.03811
7.31214
1.14535
8.04888
1.28657
8.87716
1.44627
9.82384
1.69732
10.9289
1.96968
12.2617
2.48518
13.9116
3.11863
16.3231
4.2114
6.83849
19.0055
0.193776
0.173345
0.381949
0.178713
0.577835
0.174933
0.774152
0.1792
0.975348
0.182688
1.1831
0.18877
1.39981
0.196993
1.62773
0.207187
1.86897
0.219118
2.12547
0.232577
2.39906
0.247491
2.69158
0.263919
3.00497
0.282021
3.3414
0.302049
3.70328
0.324319
4.09347
0.349274
4.51531
0.377391
4.97305
0.409704
5.47179
0.446432
6.01889
0.491006
6.62284
0.541405
7.29853
0.610887
8.06117
0.683631
8.94618
0.812309
9.98435
0.931507
11.2664
1.20313
12.8868
1.49821
15.4321
1.66611
3.743
18.5276
0.173345
0.352059
0.526992
0.706192
0.88888
1.07765
1.27464
1.48183
1.70095
1.93352
2.18102
2.44493
2.72695
3.029
3.35332
3.7026
4.07999
4.48969
4.93612
5.42713
5.96854
6.57942
7.26305
8.07536
9.00687
10.21
11.7082
13.3743
17.1173
1.14857
54.1266
1.16311
54.1257
1.17974
54.1236
1.19417
54.1258
1.20444
54.13
1.21546
54.1292
1.23147
54.1242
1.24917
54.1225
1.26367
54.1257
1.27299
54.1309
1.28183
54.1314
1.29589
54.1262
1.31464
54.1215
1.33249
54.1224
1.34411
54.1286
1.34855
54.1358
1.34867
54.1401
1.34657
54.1423
1.34318
54.1436
1.33891
54.1445
1.33409
54.1451
1.32918
54.1451
1.32482
54.1446
1.32179
54.1433
1.32084
54.1412
1.32246
54.1386
1.32627
54.1364
1.3311
54.1354
1.33597
54.1354
1.34001
54.1362
1.34298
54.1373
1.34504
54.1382
1.34635
54.1389
1.34701
54.1396
1.34706
54.1402
1.34653
54.1408
1.34543
54.1413
1.34381
54.1419
1.34179
54.1423
1.33946
54.1426
1.33694
54.1428
1.33428
54.1429
1.33141
54.1431
1.32819
54.1434
1.32455
54.1439
1.32043
54.1444
1.31587
54.1448
1.31083
54.1453
1.30545
54.1456
1.29964
54.146
1.29349
54.1464
1.28699
54.1467
1.28018
54.147
1.27306
54.1474
1.2656
54.1477
1.25785
54.148
1.24984
54.1482
1.24148
54.1486
1.23283
54.1489
1.22376
54.1493
1.21431
54.1497
1.20441
54.1501
1.19404
54.1506
1.1833
54.151
1.17208
54.1515
1.16048
54.1518
1.14844
54.1523
1.13601
54.1527
1.12311
54.1531
1.10989
54.1535
1.09619
54.1539
1.08205
54.1544
1.06774
54.1546
1.05256
54.1554
1.03744
54.1554
1.02165
54.156
1.00551
54.1564
0.988973
54.1568
0.971895
54.1573
0.954583
54.1575
0.936678
54.1581
0.918531
54.1584
0.899672
54.1591
0.880471
54.1594
0.860909
54.1598
0.841013
54.1601
0.820888
54.1604
0.800384
54.1607
0.779819
54.1608
0.759061
54.161
0.738277
54.161
0.717427
54.1611
0.696504
54.1612
0.675521
54.1612
0.654505
54.1613
0.633425
54.1613
0.61239
54.1613
0.591274
54.1613
0.570216
54.1613
0.549157
54.1613
0.528139
54.1613
0.507187
54.1612
0.486309
54.1611
0.465547
54.161
0.444879
54.1609
0.424368
54.1607
0.403968
54.1606
0.383801
54.1604
0.363804
54.1602
0.344065
54.16
0.324553
54.1597
0.305441
54.1593
0.286799
54.1589
0.26877
54.1583
0.251275
54.1577
0.234442
54.1571
0.218468
54.1562
0.203374
54.1553
0.188545
54.1551
0.173658
54.1551
0.158532
54.1554
0.142961