/*--------------------------------*- C++ -*----------------------------------*\
| =========                 |                                                 |
| \\      /  F ield         | OpenFOAM: The Open Source CFD Toolbox           |
|  \\    /   O peration     | Version:  5.x                                   |
|   \\  /    A nd           | Web:      www.OpenFOAM.org                      |
|    \\/     M anipulation  |                                                 |
\*---------------------------------------------------------------------------*/
/*   Windows 32 and 64 bit porting by blueCAPE: http://www.bluecape.com.pt   *\
|  Based on Windows porting (2.0.x v4) by Symscape: http://www.symscape.com   |
\*---------------------------------------------------------------------------*/
FoamFile
{
    version     2.0;
    format      ascii;
    class       volVectorField;
    location    "240";
    object      U;
}
// * * * * * * * * * * * * * * * * * * * * * * * * * * * * * * * * * * * * * //

dimensions      [0 1 -1 0 0 0 0];

internalField   nonuniform List<vector> 
43900
(
(1.16162 -0.000733282 -1.69497e-027)
(1.16715 0.00217723 -4.54238e-027)
(1.16972 0.00036599 1.44193e-030)
(1.16838 0.00183465 2.8253e-030)
(1.16974 0.000799212 3.67346e-030)
(1.1699 0.00200615 3.6394e-030)
(1.17014 0.00119233 6.06415e-027)
(1.17051 0.00189539 -1.21089e-026)
(1.1705 0.00166698 9.68404e-030)
(1.17027 0.00180886 -1.20805e-026)
(1.16997 0.00192402 1.21035e-026)
(1.16995 0.00191257 1.15358e-029)
(1.17 0.00197084 -1.20448e-026)
(1.17005 0.00202748 2.48625e-029)
(1.17005 0.00207768 2.55502e-029)
(1.16999 0.00212142 2.62122e-029)
(1.17003 0.00216041 -2.39817e-026)
(1.17 0.00220148 5.48201e-029)
(1.16998 0.00223694 2.40108e-026)
(1.17002 0.00226827 2.84637e-029)
(1.16998 0.00230839 2.8931e-029)
(1.16999 0.00233275 2.93844e-029)
(1.17002 0.00236336 2.97979e-029)
(1.16998 0.00239757 3.01791e-029)
(1.17001 0.00241563 3.05624e-029)
(1.17003 0.00244922 -2.37153e-026)
(1.16999 0.0024744 6.24745e-029)
(1.17003 0.00249464 6.31398e-029)
(1.17005 0.00252301 9.46734e-026)
(1.1587 0.0114536 0)
(1.16554 -0.0049823 0)
(1.17145 0.00905571 0)
(1.16651 -0.00020103 0)
(1.1684 0.00618148 0)
(1.16797 0.0027021 0)
(1.16828 0.00489011 0)
(1.16767 0.00459503 0)
(1.16816 0.00462215 0)
(1.16881 0.00536628 0)
(1.16925 0.00528133 0)
(1.16921 0.0055578 0)
(1.16912 0.00582452 0)
(1.16905 0.00600667 0)
(1.16904 0.00617428 0)
(1.16923 0.00633953 0)
(1.16918 0.00650071 0)
(1.16924 0.00663941 0)
(1.16933 0.00677159 0)
(1.16924 0.00690835 0)
(1.16935 0.00699885 0)
(1.16939 0.00711604 0)
(1.16931 0.0072205 0)
(1.16942 0.00728633 0)
(1.1694 0.00739518 0)
(1.16934 0.00746443 0)
(1.16945 0.00753047 0)
(1.16941 0.0076187 0)
(1.16936 0.00767789 0)
(1.10214 0.0321032 0)
(1.1448 -0.0175745 0)
(1.16312 0.0287853 0)
(1.16335 -0.00372458 0)
(1.16641 0.0208583 0)
(1.16437 0.00392885 0)
(1.16579 0.0149881 0)
(1.16621 0.00826305 0)
(1.16644 0.0118221 0)
(1.16633 0.0104666 0)
(1.16639 0.0107646 0)
(1.16683 0.0110608 0)
(1.16706 0.0111086 0)
(1.16727 0.0112059 0)
(1.16751 0.0113461 0)
(1.16742 0.0114594 0)
(1.16758 0.0115621 0)
(1.16776 0.0116818 0)
(1.16775 0.0118121 0)
(1.16797 0.0119014 0)
(1.16803 0.0120378 0)
(1.16799 0.0121553 0)
(1.16819 0.0122456 0)
(1.16817 0.012402 0)
(1.16817 0.0124894 0)
(1.16835 0.0125999 0)
(1.16829 0.0127445 0)
(1.16829 0.012819 0)
(1.16844 0.0129333 1.66363e-027)
(1.0409 0.0200249 0)
(1.08682 -0.00676823 0)
(1.12978 0.0201253 0)
(1.15578 0.0081353 0)
(1.16344 0.0222387 0)
(1.16615 0.0106856 0)
(1.16497 0.0205881 0)
(1.16364 0.0135912 0)
(1.16456 0.0180963 0)
(1.16458 0.0157017 0)
(1.16477 0.0167912 0)
(1.16471 0.0165478 0)
(1.16498 0.0165646 0)
(1.16524 0.0166283 0)
(1.16527 0.0166261 0)
(1.1657 0.016674 0)
(1.16596 0.0167339 0)
(1.16597 0.0168397 0)
(1.16621 0.0168956 0)
(1.16621 0.0169936 0)
(1.16621 0.0171003 0)
(1.16648 0.0171754 0)
(1.16646 0.0173308 0)
(1.1665 0.017398 0)
(1.16672 0.0175235 0)
(1.16664 0.0176851 0)
(1.16674 0.0177278 0)
(1.16698 0.0178887 0)
(1.16692 0.0180397 1.7736e-027)
(1.00381 0.0101698 3.5549e-027)
(1.03931 -0.000912142 0)
(1.07617 0.0107992 0)
(1.11442 0.0128639 0)
(1.14473 0.0182749 0)
(1.16031 0.0172941 0)
(1.16366 0.0227499 0)
(1.16463 0.0184649 0)
(1.16362 0.0215798 0)
(1.16358 0.0201767 0)
(1.16356 0.0206589 0)
(1.16385 0.0208955 0)
(1.1638 0.0208489 0)
(1.16388 0.020865 0)
(1.16427 0.0209935 0)
(1.16418 0.0210752 0)
(1.16393 0.0212406 0)
(1.16418 0.021281 0)
(1.16424 0.0214139 0)
(1.1643 0.0215538 0)
(1.16455 0.0216222 0)
(1.16442 0.0218306 0)
(1.16447 0.021879 0)
(1.16472 0.0220171 0)
(1.16466 0.022214 0)
(1.16485 0.0222289 0)
(1.16501 0.0224569 0)
(1.16486 0.0225976 0)
(1.16502 0.0226333 -7.46785e-027)
(0.976524 0.00681714 -3.71036e-027)
(1.00643 0.000643531 0)
(1.03769 0.00754826 0)
(1.07011 0.0109611 0)
(1.10258 0.0148063 0)
(1.13296 0.0180847 0)
(1.15335 0.0220231 0)
(1.16153 0.0220696 0)
(1.16267 0.0243656 0)
(1.1624 0.0227881 0)
(1.16238 0.0241009 0)
(1.16243 0.0239053 0)
(1.16264 0.0241165 0)
(1.16266 0.0243841 0)
(1.16228 0.0245074 0)
(1.16234 0.0247943 0)
(1.16286 0.0249308 0)
(1.16272 0.0251804 0)
(1.1625 0.025416 0)
(1.16266 0.0255098 0)
(1.1625 0.025846 0)
(1.16272 0.0259164 0)
(1.163 0.0261759 0)
(1.16283 0.0264501 0)
(1.16294 0.0264913 0)
(1.16298 0.0268503 0)
(1.16288 0.0269929 0)
(1.16321 0.0270694 0)
(1.1634 0.027455 3.95643e-027)
(0.953777 0.00523948 0)
(0.980123 0.00137517 0)
(1.00772 0.00635807 0)
(1.03639 0.0095341 0)
(1.06553 0.0128225 0)
(1.09447 0.01641 0)
(1.12254 0.0201374 0)
(1.14582 0.0229766 0)
(1.15725 0.0256139 0)
(1.16039 0.0260965 0)
(1.16041 0.0260507 0)
(1.16044 0.0269229 0)
(1.16031 0.0270357 0)
(1.16037 0.0274052 0)
(1.16049 0.0279257 0)
(1.16054 0.0280694 0)
(1.16004 0.0285485 0)
(1.16001 0.0288353 0)
(1.16059 0.0290755 0)
(1.16047 0.0296044 0)
(1.16069 0.0297481 0)
(1.16067 0.0301477 0)
(1.16042 0.0305124 0)
(1.16067 0.0306176 0)
(1.16087 0.0311796 0)
(1.16095 0.0312989 0)
(1.16132 0.0315577 0)
(1.16124 0.0320646 0)
(1.16098 0.0321887 0)
(0.932955 0.00441966 0)
(0.956972 0.00184385 0)
(0.982145 0.00593806 0)
(1.0083 0.00895225 0)
(1.03507 0.0119609 0)
(1.062 0.0152201 0)
(1.08861 0.0187298 0)
(1.1141 0.0222586 0)
(1.1373 0.0255425 0)
(1.15179 0.0278673 0)
(1.15679 0.0296148 0)
(1.15708 0.0293786 0)
(1.15705 0.0302074 0)
(1.15685 0.0305795 0)
(1.15715 0.0310066 0)
(1.15693 0.0316866 0)
(1.15726 0.0319751 0)
(1.15757 0.0323829 0)
(1.15708 0.0330614 0)
(1.15719 0.033225 0)
(1.15725 0.0338948 0)
(1.15734 0.0342751 0)
(1.15779 0.0345841 0)
(1.15787 0.0352462 0)
(1.1578 0.0354527 0)
(1.15799 0.035924 0)
(1.15779 0.0365166 0)
(1.15789 0.0366626 0)
(1.15861 0.0371537 0)
(0.913311 0.0038235 0)
(0.93557 0.00226667 0)
(0.958902 0.00583623 0)
(0.983159 0.00878382 0)
(1.00806 0.0116912 0)
(1.03328 0.0147718 0)
(1.05846 0.0180596 0)
(1.08318 0.0215013 0)
(1.1069 0.0250014 0)
(1.12893 0.0282366 0)
(1.14541 0.0310061 0)
(1.15193 0.0329739 0)
(1.15217 0.0330227 0)
(1.15236 0.0339193 0)
(1.15198 0.0346208 0)
(1.15244 0.0349418 0)
(1.15265 0.0357347 0)
(1.15235 0.0363486 0)
(1.15274 0.0366597 0)
(1.15293 0.0375929 0)
(1.15304 0.0379045 0)
(1.15337 0.0383453 0)
(1.15344 0.0392402 0)
(1.15348 0.0395312 0)
(1.15358 0.040234 0)
(1.15358 0.0408549 0)
(1.15417 0.0410707 0)
(1.15476 0.0417889 0)
(1.15459 0.0423488 0)
(0.894237 0.00329313 0)
(0.9152 0.00265533 0)
(0.937166 0.00589311 0)
(0.959992 0.00880901 0)
(0.983448 0.0116762 0)
(1.00728 0.0146686 0)
(1.03122 0.0178281 0)
(1.05498 0.0211292 0)
(1.0782 0.0245363 0)
(1.10047 0.0279817 0)
(1.12112 0.0312603 0)
(1.13854 0.0341705 0)
(1.14595 0.0364828 0)
(1.14624 0.0367068 0)
(1.1467 0.0378323 0)
(1.14635 0.0385852 0)
(1.14642 0.0390918 0)
(1.14709 0.0398555 0)
(1.14724 0.0408598 0)
(1.14745 0.0412072 0)
(1.14784 0.0420052 0)
(1.14753 0.0430527 0)
(1.1475 0.0433117 0)
(1.14762 0.0441066 0)
(1.14842 0.0448487 0)
(1.14922 0.0451679 0)
(1.14932 0.0461711 0)
(1.14872 0.046836 0)
(1.1487 0.0473204 -1.04027e-026)
(0.875668 0.00312479 0)
(0.895565 0.00291752 0)
(0.91645 0.00607612 0)
(0.938162 0.00901878 0)
(0.960501 0.0119029 0)
(0.983251 0.0148822 0)
(1.00619 0.0180007 0)
(1.02907 0.0212404 0)
(1.05164 0.0245768 0)
(1.0736 0.0279838 0)
(1.09455 0.0314086 0)
(1.11383 0.0346968 0)
(1.13097 0.0376952 0)
(1.13936 0.0402108 0)
(1.13967 0.0406108 0)
(1.14043 0.0418176 0)
(1.1406 0.0427495 0)
(1.14014 0.0435739 0)
(1.14068 0.0441298 0)
(1.14093 0.045337 0)
(1.14061 0.0463231 0)
(1.14138 0.046526 0)
(1.14257 0.0478277 0)
(1.14319 0.0487746 0)
(1.14272 0.0491406 0)
(1.14199 0.0505065 0)
(1.14194 0.051033 0)
(1.14321 0.0514628 0)
(1.14497 0.0524856 1.09963e-026)
(0.857309 0.00306051 0)
(0.87631 0.00320835 0)
(0.89628 0.00640083 0)
(0.91707 0.0094436 0)
(0.938501 0.0124229 0)
(0.960378 0.0154794 0)
(0.982502 0.0186574 0)
(1.00467 0.0219426 0)
(1.02667 0.0253144 0)
(1.04827 0.0287528 0)
(1.06921 0.0322318 0)
(1.08912 0.0356976 0)
(1.10751 0.0390203 0)
(1.12393 0.0420931 0)
(1.13251 0.0448088 0)
(1.13247 0.0453454 0)
(1.13321 0.046737 0)
(1.13462 0.047583 0)
(1.13425 0.0489554 0)
(1.13411 0.0498669 0)
(1.13546 0.0504253 0)
(1.13583 0.0520668 0)
(1.13466 0.0529225 0)
(1.13462 0.0534136 0)
(1.13584 0.0549349 0)
(1.13761 0.0554426 0)
(1.13891 0.0564424 0)
(1.13908 0.0576362 0)
(1.13751 0.0584534 1.19936e-026)
(0.838722 0.00299562 0)
(0.856949 0.00357249 0)
(0.876134 0.00685879 0)
(0.896135 0.0100594 0)
(0.916786 0.0132014 0)
(0.937915 0.0164107 0)
(0.959341 0.0197306 0)
(0.980884 0.0231502 0)
(1.00236 0.0266518 0)
(1.02358 0.0302191 0)
(1.04434 0.0338333 0)
(1.06439 0.0374677 0)
(1.08343 0.0410703 0)
(1.10097 0.0445179 0)
(1.11669 0.0477766 0)
(1.12504 0.0505631 0)
(1.12496 0.0513451 0)
(1.12498 0.0529645 0)
(1.12589 0.0538049 0)
(1.12721 0.0550696 0)
(1.12673 0.0568133 0)
(1.12688 0.057233 0)
(1.12913 0.0582667 0)
(1.13068 0.0602039 0)
(1.1305 0.06067 0)
(1.12964 0.0619339 0)
(1.12948 0.0630612 0)
(1.1301 0.063906 0)
(1.13327 0.0647796 -1.26953e-026)
(0.819783 0.00298012 0)
(0.837299 0.00396015 0)
(0.855765 0.00739154 0)
(0.875062 0.010785 0)
(0.895026 0.0141267 0)
(0.91549 0.0175282 0)
(0.936296 0.0210319 0)
(0.957276 0.0246289 0)
(0.978267 0.0283035 0)
(0.999102 0.0320416 0)
(1.01961 0.035828 0)
(1.03961 0.0396435 0)
(1.05887 0.0434596 0)
(1.07711 0.0472216 0)
(1.09391 0.0508182 0)
(1.10889 0.0542614 0)
(1.11672 0.0570527 0)
(1.11678 0.0581629 0)
(1.11716 0.0597601 0)
(1.11793 0.0608666 0)
(1.11979 0.0617438 0)
(1.1207 0.0639391 0)
(1.11938 0.065052 0)
(1.11879 0.0659947 0)
(1.1197 0.0674443 0)
(1.12297 0.068628 0)
(1.12494 0.0699274 0)
(1.12518 0.0709502 0)
(1.12357 0.072498 -1.39677e-026)
(0.800455 0.00300392 0)
(0.817323 0.00437254 0)
(0.835138 0.00799475 0)
(0.853786 0.01161 0)
(0.873136 0.0151823 0)
(0.89302 0.0188105 0)
(0.913278 0.0225323 0)
(0.933764 0.0263413 0)
(0.954324 0.0302225 0)
(0.974811 0.0341633 0)
(0.995073 0.0381503 0)
(1.01495 0.0421674 0)
(1.03428 0.046194 0)
(1.05285 0.0501998 0)
(1.0704 0.0541264 0)
(1.08652 0.057877 0)
(1.10059 0.0614533 0)
(1.10756 0.0645249 0)
(1.10835 0.0654643 0)
(1.10875 0.0674282 0)
(1.10792 0.0693968 0)
(1.10837 0.0701919 0)
(1.11076 0.0718695 0)
(1.11372 0.0738005 0)
(1.11451 0.0748118 0)
(1.11311 0.076157 0)
(1.11263 0.07769 0)
(1.11377 0.078888 0)
(1.11787 0.0801909 1.4794e-026)
(0.780635 0.00306787 0)
(0.796898 0.00482293 0)
(0.814117 0.00868528 0)
(0.832175 0.0125624 0)
(0.850949 0.0164017 0)
(0.870307 0.020298 0)
(0.890086 0.0242844 0)
(0.910132 0.0283518 0)
(0.930313 0.032488 0)
(0.950491 0.0366806 0)
(0.970527 0.0409176 0)
(0.990287 0.0451846 0)
(1.00963 0.0494646 0)
(1.02838 0.0537364 0)
(1.04636 0.057967 0)
(1.06331 0.0620918 0)
(1.07888 0.0660166 0)
(1.09228 0.06984 0)
(1.09774 0.0728628 0)
(1.09786 0.0743489 0)
(1.09989 0.0759361 0)
(1.10231 0.0780909 0)
(1.10184 0.0794069 0)
(1.10076 0.0808832 0)
(1.10172 0.0829491 0)
(1.10522 0.0844937 0)
(1.10803 0.0865698 0)
(1.1086 0.0880629 0)
(1.10721 0.0895609 0)
(0.76026 0.00316239 0)
(0.77595 0.0053019 0)
(0.792606 0.00944132 0)
(0.81012 0.0136127 0)
(0.828366 0.0177502 0)
(0.847221 0.0219422 0)
(0.866556 0.0262251 0)
(0.886213 0.0305869 0)
(0.906051 0.0350122 0)
(0.925949 0.0394912 0)
(0.945778 0.0440118 0)
(0.965416 0.0485606 0)
(0.984734 0.053122 0)
(1.0036 0.0576783 0)
(1.02186 0.0622068 0)
(1.03933 0.0666696 0)
(1.05578 0.0709861 0)
(1.07098 0.0751289 0)
(1.08313 0.0791026 0)
(1.08807 0.081878 0)
(1.0896 0.0837682 0)
(1.08935 0.0853741 0)
(1.09162 0.0875304 0)
(1.09521 0.0900465 0)
(1.09509 0.0911311 0)
(1.09362 0.0929132 0)
(1.09407 0.0944059 0)
(1.09645 0.0959014 0)
(1.10202 0.0982463 0)
(0.739341 0.00328721 0)
(0.754479 0.0058072 0)
(0.770601 0.0102567 0)
(0.787602 0.0147508 0)
(0.805364 0.019216 0)
(0.82376 0.0237338 0)
(0.84267 0.0283394 0)
(0.861969 0.033026 0)
(0.88151 0.0377754 0)
(0.901162 0.0425738 0)
(0.920814 0.0474119 0)
(0.940349 0.0522762 0)
(0.959653 0.0571521 0)
(0.978607 0.0620232 0)
(0.997084 0.0668707 0)
(1.01494 0.0716704 0)
(1.032 0.0763784 0)
(1.04808 0.0809062 0)
(1.06309 0.0853134 0)
(1.07442 0.0893582 0)
(1.07817 0.0917412 0)
(1.08069 0.0949946 0)
(1.07965 0.0960406 0)
(1.07964 0.0982662 0)
(1.08254 0.100949 0)
(1.08762 0.102763 0)
(1.09008 0.106039 0)
(1.08953 0.106716 0)
(1.08873 0.108663 0)
(0.717873 0.00344316 4.25573e-026)
(0.732475 0.00633835 0)
(0.748081 0.011129 0)
(0.76459 0.0159738 0)
(0.78189 0.020794 0)
(0.79986 0.0256684 0)
(0.818375 0.0306284 0)
(0.837321 0.0356683 0)
(0.856579 0.0407741 0)
(0.876011 0.0459298 0)
(0.895498 0.0511223 0)
(0.914938 0.0563411 0)
(0.934221 0.0615714 0)
(0.953241 0.066798 0)
(0.971887 0.0720038 0)
(0.990036 0.0771695 0)
(1.00755 0.0822691 0)
(1.02428 0.087254 0)
(1.04006 0.0920424 0)
(1.05485 0.0967107 0)
(1.06458 0.101236 0)
(1.06626 0.103185 0)
(1.06987 0.106235 0)
(1.07347 0.108913 0)
(1.07276 0.110261 0)
(1.07232 0.112054 0)
(1.07406 0.114639 0)
(1.07828 0.116852 0)
(1.08375 0.12065 0)
(0.695895 0.0036266 1.44425e-027)
(0.709971 0.00688795 0)
(0.725072 0.0120442 0)
(0.741104 0.0172619 0)
(0.757958 0.0224579 0)
(0.77552 0.02771 0)
(0.79367 0.033049 0)
(0.812286 0.0384652 0)
(0.831264 0.0439471 0)
(0.850487 0.0494811 0)
(0.869827 0.0550512 0)
(0.889181 0.0606443 0)
(0.908447 0.066247 0)
(0.927526 0.0718434 0)
(0.946315 0.0774167 0)
(0.964709 0.0829488 0)
(0.982591 0.0884183 0)
(0.999836 0.0937928 0)
(1.01631 0.0990079 0)
(1.03192 0.104028 0)
(1.04587 0.108962 0)
(1.05459 0.113468 0)
(1.05644 0.114903 0)
(1.05734 0.118539 0)
(1.06228 0.120708 0)
(1.06557 0.124355 0)
(1.06687 0.126552 0)
(1.06573 0.127499 0)
(1.06644 0.129727 0)
(0.673457 0.00384011 -4.92045e-026)
(0.687013 0.00745861 0)
(0.701619 0.0130056 0)
(0.717184 0.0186196 0)
(0.733605 0.024214 0)
(0.750773 0.0298672 0)
(0.768572 0.0356099 0)
(0.786886 0.0414318 0)
(0.805602 0.0473166 0)
(0.82462 0.0532545 0)
(0.843831 0.0592313 0)
(0.863118 0.065229 0)
(0.882386 0.0712347 0)
(0.901539 0.0772319 0)
(0.920483 0.0832032 0)
(0.939119 0.0891305 0)
(0.957347 0.094994 0)
(0.975055 0.10077 0)
(0.992129 0.10642 0)
(1.00846 0.111854 0)
(1.02425 0.117252 0)
(1.03691 0.121968 0)
(1.04449 0.126727 0)
(1.04769 0.12944 0)
(1.0467 0.131389 0)
(1.04862 0.13403 0)
(1.05323 0.138131 0)
(1.05865 0.14199 0)
(1.06272 0.144901 0)
(0.650598 0.00408309 0)
(0.663639 0.00805122 0)
(0.677754 0.014014 0)
(0.692857 0.0200483 0)
(0.708851 0.0260647 0)
(0.725631 0.0321437 0)
(0.743086 0.0383167 0)
(0.761106 0.0445729 0)
(0.77958 0.0508954 0)
(0.798401 0.0572704 0)
(0.817477 0.0636859 0)
(0.836701 0.0701275 0)
(0.85597 0.0765759 0)
(0.875198 0.0830173 0)
(0.894293 0.0894336 0)
(0.913163 0.0958063 0)
(0.931716 0.102116 0)
(0.949851 0.108343 0)
(0.967468 0.11446 0)
(0.984474 0.120407 0)
(1.00092 0.126146 0)
(1.01643 0.131966 0)
(1.02744 0.136553 0)
(1.03221 0.141014 0)
(1.03853 0.145141 0)
(1.03877 0.147511 0)
(1.03888 0.14955 0)
(1.0415 0.151066 0)
(1.04596 0.155353 0)
(0.627366 0.00435446 -6.04111e-026)
(0.639892 0.00866667 0)
(0.653517 0.0150697 0)
(0.668159 0.0215481 0)
(0.683725 0.0280094 0)
(0.700117 0.0345385 0)
(0.717227 0.0411679 0)
(0.73495 0.0478865 0)
(0.753178 0.0546768 0)
(0.771809 0.0615229 0)
(0.790746 0.0684132 0)
(0.809897 0.0753322 0)
(0.829163 0.082263 0)
(0.848454 0.0891887 0)
(0.867682 0.0960914 0)
(0.886763 0.102953 0)
(0.905607 0.109753 0)
(0.924125 0.116473 0)
(0.942223 0.12309 0)
(0.959814 0.129568 0)
(0.976849 0.135839 0)
(0.993348 0.141842 0)
(1.00893 0.148518 0)
(1.01675 0.152231 0)
(1.01999 0.155924 0)
(1.02732 0.159911 0)
(1.03177 0.164073 0)
(1.03368 0.167831 0)
(1.03416 0.168911 5.62291e-026)
(0.603804 0.00465181 -1.82664e-027)
(0.615815 0.00930503 0)
(0.628949 0.016172 0)
(0.643128 0.023117 0)
(0.658264 0.0300456 0)
(0.674262 0.0370483 0)
(0.691022 0.0441595 0)
(0.708441 0.0513675 0)
(0.726417 0.0586544 0)
(0.74485 0.0660046 0)
(0.763642 0.0734026 0)
(0.782705 0.0808339 0)
(0.801949 0.0882834 0)
(0.821287 0.0957316 0)
(0.840633 0.103161 0)
(0.859903 0.110553 0)
(0.879013 0.117886 0)
(0.897877 0.125141 0)
(0.916407 0.132297 0)
(0.934513 0.139331 0)
(0.952115 0.146199 0)
(0.969196 0.152781 0)
(0.986341 0.159365 0)
(1.00076 0.166093 0)
(1.00801 0.170478 0)
(1.00964 0.173912 0)
(1.01448 0.175921 0)
(1.02253 0.181699 0)
(1.02674 0.187099 1.12077e-027)
(0.579965 0.0049715 6.97596e-026)
(0.591461 0.00996453 0)
(0.604101 0.0173167 0)
(0.617813 0.0247487 0)
(0.632511 0.0321647 0)
(0.648107 0.0396624 0)
(0.664505 0.0472783 0)
(0.681607 0.0550005 0)
(0.699315 0.0628105 0)
(0.717533 0.0706924 0)
(0.736168 0.0786303 0)
(0.755133 0.0866102 0)
(0.77434 0.0946129 0)
(0.793701 0.10262 0)
(0.813139 0.110614 0)
(0.832573 0.118575 0)
(0.851922 0.126483 0)
(0.871103 0.134315 0)
(0.89003 0.142049 0)
(0.908617 0.149662 0)
(0.926773 0.157124 0)
(0.944431 0.164322 0)
(0.961962 0.17163 0)
(0.978687 0.177526 0)
(0.992243 0.185284 0)
(1.0005 0.189244 0)
(1.0003 0.193206 0)
(1.00315 0.194945 0)
(1.00942 0.199565 -6.44301e-026)
(0.555906 0.00530992 0)
(0.566885 0.0106432 0)
(0.579029 0.0184994 0)
(0.592268 0.0264362 0)
(0.606521 0.0343573 0)
(0.621704 0.0423685 0)
(0.637728 0.050509 0)
(0.654498 0.0587664 0)
(0.671921 0.0671218 0)
(0.689906 0.0755588 0)
(0.708362 0.0840619 0)
(0.727204 0.0926144 0)
(0.74635 0.101198 0)
(0.765717 0.109795 0)
(0.785226 0.118384 0)
(0.8048 0.126945 0)
(0.824361 0.135457 0)
(0.843833 0.143895 0)
(0.863136 0.152238 0)
(0.882189 0.160458 0)
(0.900915 0.16852 0)
(0.919261 0.176345 0)
(0.937422 0.18398 0)
(0.955216 0.192028 0)
(0.970475 0.196594 0)
(0.984106 0.206223 0)
(0.990585 0.208554 0)
(0.994555 0.21435 0)
(0.995142 0.216785 0)
(0.53169 0.00566345 0)
(0.542153 0.0113388 0)
(0.553797 0.0197155 0)
(0.566557 0.0281722 0)
(0.580356 0.0366135 0)
(0.595116 0.0451543 0)
(0.610751 0.0538367 0)
(0.627173 0.0626479 0)
(0.644295 0.0715685 0)
(0.662026 0.0805822 0)
(0.680284 0.0896728 0)
(0.698982 0.0988225 0)
(0.718043 0.108014 0)
(0.73739 0.117227 0)
(0.756944 0.12644 0)
(0.776632 0.135633 0)
(0.79638 0.144783 0)
(0.816114 0.153865 0)
(0.835761 0.162858 0)
(0.855246 0.171735 0)
(0.874501 0.180471 0)
(0.893483 0.189011 0)
(0.91229 0.197202 0)
(0.931728 0.205761 0)
(0.948681 0.213685 0)
(0.962746 0.218864 0)
(0.974498 0.227937 0)
(0.980776 0.229247 0)
(0.988326 0.237091 7.60141e-026)
(0.507381 0.00602866 0)
(0.517329 0.0120495 0)
(0.528472 0.0209609 0)
(0.540747 0.0299502 0)
(0.554084 0.0389246 0)
(0.568409 0.0480091 0)
(0.583642 0.0572485 0)
(0.5997 0.0666298 0)
(0.616499 0.0761334 0)
(0.633957 0.0857427 0)
(0.651992 0.0954414 0)
(0.670524 0.105211 0)
(0.689476 0.115033 0)
(0.708775 0.124887 0)
(0.728347 0.134751 0)
(0.748119 0.144603 0)
(0.768022 0.154419 0)
(0.787984 0.164174 0)
(0.807935 0.173843 0)
(0.827803 0.183401 0)
(0.84752 0.192825 0)
(0.867031 0.202088 0)
(0.886349 0.211075 0)
(0.905892 0.21985 0)
(0.92716 0.228746 0)
(0.942017 0.237886 0)
(0.956004 0.241509 0)
(0.96463 0.249859 0)
(0.971751 0.252915 1.06865e-027)
(0.483047 0.00640224 0)
(0.492482 0.0127733 0)
(0.503123 0.0222315 0)
(0.514909 0.0317639 0)
(0.527775 0.0412822 0)
(0.541653 0.0509224 0)
(0.556469 0.0607319 0)
(0.572146 0.0706976 0)
(0.588604 0.0807998 0)
(0.605766 0.0910219 0)
(0.623555 0.101347 0)
(0.641895 0.111758 0)
(0.660713 0.122232 0)
(0.679937 0.132751 0)
(0.699498 0.14329 0)
(0.719328 0.153826 0)
(0.739357 0.164335 0)
(0.759519 0.174789 0)
(0.779745 0.185162 0)
(0.799966 0.195426 0)
(0.820116 0.205551 0)
(0.84013 0.215516 0)
(0.859966 0.225277 0)
(0.879751 0.234787 0)
(0.900195 0.243943 0)
(0.92202 0.253727 0)
(0.939426 0.26331 0)
(0.94843 0.264943 0)
(0.958125 0.273998 -1.74317e-025)
(0.458754 0.00678082 0)
(0.46768 0.013508 0)
(0.477819 0.0235226 0)
(0.489112 0.033606 0)
(0.5015 0.0436769 0)
(0.51492 0.0538823 0)
(0.529305 0.0642728 0)
(0.544583 0.074835 0)
(0.56068 0.0855493 0)
(0.577523 0.096399 0)
(0.59504 0.107368 0)
(0.613161 0.118436 0)
(0.631819 0.129585 0)
(0.650942 0.140792 0)
(0.670463 0.15203 0)
(0.690321 0.163277 0)
(0.710448 0.174506 0)
(0.730781 0.185689 0)
(0.751255 0.196797 0)
(0.771805 0.2078 0)
(0.792366 0.218666 0)
(0.812875 0.229364 0)
(0.833276 0.239862 0)
(0.85356 0.250149 0)
(0.874106 0.260061 0)
(0.894688 0.270062 0)
(0.91929 0.279774 0)
(0.93549 0.289676 0)
(0.943649 0.291514 -9.08445e-028)
(0.434569 0.00716108 0)
(0.442992 0.0142513 0)
(0.45263 0.0248294 0)
(0.463427 0.0354691 0)
(0.47533 0.0460986 0)
(0.488282 0.0568768 0)
(0.502222 0.0678568 0)
(0.517083 0.0790252 0)
(0.532799 0.0903627 0)
(0.5493 0.101853 0)
(0.566521 0.113479 0)
(0.584397 0.125223 0)
(0.602862 0.137063 0)
(0.621854 0.148975 0)
(0.641308 0.160934 0)
(0.661164 0.172914 0)
(0.68136 0.184887 0)
(0.701834 0.196823 0)
(0.722526 0.208692 0)
(0.743374 0.22046 0)
(0.764316 0.232094 0)
(0.785294 0.243559 0)
(0.806252 0.254819 0)
(0.827158 0.265838 0)
(0.848162 0.276582 0)
(0.869228 0.286936 0)
(0.892251 0.297848 0)
(0.916038 0.306731 0)
(0.93119 0.31663 9.96003e-026)
(0.410556 0.0075397 0)
(0.418485 0.0150005 0)
(0.427626 0.0261468 0)
(0.437926 0.0373453 0)
(0.449337 0.048537 0)
(0.461812 0.0598928 0)
(0.475293 0.0714684 0)
(0.489721 0.0832504 0)
(0.505034 0.0952199 0)
(0.521171 0.107361 0)
(0.538071 0.119657 0)
(0.555674 0.13209 0)
(0.573919 0.144636 0)
(0.59275 0.157272 0)
(0.612107 0.169972 0)
(0.631932 0.182706 0)
(0.652167 0.195445 0)
(0.672756 0.208157 0)
(0.69364 0.220807 0)
(0.71476 0.233361 0)
(0.736058 0.245783 0)
(0.757478 0.258034 0)
(0.778966 0.270078 0)
(0.800487 0.281871 0)
(0.822097 0.293395 0)
(0.843871 0.304471 0)
(0.866986 0.315612 0)
(0.89119 0.326915 0)
(0.913837 0.335124 1.07069e-025)
(0.386781 0.00791338 0)
(0.394224 0.0157529 0)
(0.402874 0.0274691 0)
(0.412676 0.0392263 0)
(0.423592 0.0509813 0)
(0.43558 0.0629173 0)
(0.448589 0.0750922 0)
(0.462566 0.0874928 0)
(0.477458 0.100101 0)
(0.493207 0.112902 0)
(0.50976 0.125879 0)
(0.527062 0.139014 0)
(0.545061 0.152283 0)
(0.563701 0.165661 0)
(0.58293 0.179121 0)
(0.602696 0.192632 0)
(0.622944 0.206161 0)
(0.643621 0.219673 0)
(0.664674 0.233131 0)
(0.686047 0.246495 0)
(0.707684 0.259725 0)
(0.72953 0.27278 0)
(0.751531 0.285619 0)
(0.773646 0.298199 0)
(0.795882 0.310493 0)
(0.818325 0.322424 0)
(0.841431 0.333917 0)
(0.867162 0.345989 0)
(0.891794 0.356881 -1.13433e-025)
(0.363305 0.00827873 0)
(0.370276 0.0165055 0)
(0.378441 0.0287906 0)
(0.387747 0.0411032 0)
(0.398163 0.0534199 0)
(0.409655 0.0659362 0)
(0.422179 0.0787116 0)
(0.43569 0.0917339 0)
(0.450139 0.104986 0)
(0.465477 0.118454 0)
(0.481656 0.132122 0)
(0.498629 0.145972 0)
(0.516348 0.15998 0)
(0.534768 0.174122 0)
(0.553839 0.188367 0)
(0.573514 0.20268 0)
(0.593748 0.217028 0)
(0.614491 0.231371 0)
(0.635693 0.245668 0)
(0.657303 0.259875 0)
(0.679267 0.273945 0)
(0.701534 0.287832 0)
(0.724047 0.301487 0)
(0.74676 0.314864 0)
(0.769649 0.327921 0)
(0.792762 0.340652 0)
(0.816188 0.352836 0)
(0.841361 0.365244 0)
(0.870043 0.377503 1.2056e-025)
(0.34019 0.0086323 0)
(0.346701 0.0172545 0)
(0.354389 0.0301042 0)
(0.363202 0.0429659 0)
(0.373115 0.0558398 0)
(0.384104 0.0689336 0)
(0.396131 0.0823085 0)
(0.409158 0.0959531 0)
(0.423143 0.109852 0)
(0.438044 0.123994 0)
(0.453821 0.138363 0)
(0.470433 0.152942 0)
(0.487839 0.167707 0)
(0.506002 0.182634 0)
(0.524883 0.197688 0)
(0.544436 0.212833 0)
(0.564624 0.228034 0)
(0.585404 0.243247 0)
(0.606733 0.258425 0)
(0.628565 0.273519 0)
(0.65085 0.288476 0)
(0.673537 0.30324 0)
(0.696572 0.317756 0)
(0.719904 0.331967 0)
(0.743489 0.345817 0)
(0.767332 0.359295 0)
(0.791457 0.372268 0)
(0.815997 0.384927 0)
(0.845249 0.398055 -2.54708e-025)
(0.317493 0.00897057 0)
(0.323561 0.0179955 0)
(0.330782 0.0314017 0)
(0.339104 0.0448024 0)
(0.348513 0.0582258 0)
(0.35899 0.0718912 0)
(0.370508 0.0858614 0)
(0.383033 0.100126 0)
(0.396531 0.114673 0)
(0.410969 0.129492 0)
(0.426312 0.14457 0)
(0.442529 0.15989 0)
(0.459587 0.175429 0)
(0.477455 0.191161 0)
(0.496106 0.207051 0)
(0.5155 0.223066 0)
(0.535606 0.239161 0)
(0.556391 0.25529 0)
(0.577819 0.271401 0)
(0.599851 0.287439 0)
(0.622444 0.303341 0)
(0.645551 0.319044 0)
(0.66912 0.33448 0)
(0.693096 0.349582 0)
(0.717426 0.364281 0)
(0.742081 0.378526 0)
(0.767057 0.39229 0)
(0.792155 0.405311 0)
(0.81952 0.418859 6.79757e-028)
(0.295272 0.00928989 0)
(0.300913 0.0187226 0)
(0.307678 0.0326732 0)
(0.315514 0.0465984 0)
(0.324416 0.0605594 0)
(0.334375 0.0747867 0)
(0.34537 0.0893441 0)
(0.357375 0.104224 0)
(0.370364 0.119415 0)
(0.384309 0.134913 0)
(0.399187 0.150705 0)
(0.414971 0.166776 0)
(0.431639 0.183105 0)
(0.449169 0.199663 0)
(0.467542 0.216424 0)
(0.486731 0.233346 0)
(0.506712 0.25038 0)
(0.527463 0.267479 0)
(0.548956 0.284584 0)
(0.571162 0.301632 0)
(0.594046 0.318552 0)
(0.617568 0.335269 0)
(0.64168 0.351704 0)
(0.666328 0.367773 0)
(0.691454 0.383392 0)
(0.717006 0.398482 0)
(0.742954 0.413009 0)
(0.769138 0.426765 0)
(0.795947 0.440024 1.17113e-027)
(0.273582 0.00958652 0)
(0.278814 0.0194289 0)
(0.285136 0.0339063 0)
(0.292491 0.0483368 0)
(0.300886 0.0628188 0)
(0.310319 0.0775937 0)
(0.320778 0.0927259 0)
(0.332245 0.10821 0)
(0.344699 0.124041 0)
(0.358123 0.140214 0)
(0.372498 0.156723 0)
(0.387809 0.173553 0)
(0.404042 0.190687 0)
(0.421183 0.208097 0)
(0.439225 0.225758 0)
(0.458159 0.243622 0)
(0.477963 0.261643 0)
(0.498629 0.27977 0)
(0.520143 0.297937 0)
(0.542486 0.316074 0)
(0.565635 0.334099 0)
(0.58956 0.351925 0)
(0.61422 0.369455 0)
(0.639566 0.386588 0)
(0.665538 0.403222 0)
(0.692072 0.419253 0)
(0.719113 0.434599 0)
(0.746553 0.449187 0)
(0.774178 0.462637 1.48288e-025)
(0.25248 0.00985666 0)
(0.257322 0.0201056 0)
(0.263213 0.0350866 0)
(0.270092 0.0499971 0)
(0.277978 0.0649784 0)
(0.28688 0.0802813 0)
(0.29679 0.0959709 0)
(0.307699 0.112045 0)
(0.319593 0.128503 0)
(0.332463 0.145346 0)
(0.3463 0.162569 0)
(0.361094 0.180163 0)
(0.376843 0.198111 0)
(0.393542 0.216393 0)
(0.411195 0.234975 0)
(0.429809 0.253821 0)
(0.449375 0.272887 0)
(0.469895 0.292105 0)
(0.491373 0.311412 0)
(0.513804 0.330728 0)
(0.53718 0.349959 0)
(0.561485 0.369003 0)
(0.58669 0.387747 0)
(0.612754 0.406066 0)
(0.639621 0.423833 0)
(0.667218 0.440918 0)
(0.695471 0.457192 0)
(0.724283 0.472604 0)
(0.753368 0.486735 -1.52646e-025)
(0.23202 0.0100964 0)
(0.236492 0.0207424 0)
(0.241965 0.0361972 0)
(0.248374 0.0515561 0)
(0.255751 0.0670088 0)
(0.264113 0.0828145 0)
(0.273462 0.0990386 0)
(0.283794 0.115683 0)
(0.295103 0.132752 0)
(0.307388 0.150251 0)
(0.320646 0.168181 0)
(0.334878 0.186536 0)
(0.35009 0.205305 0)
(0.366289 0.22447 0)
(0.383486 0.244001 0)
(0.401704 0.263872 0)
(0.420962 0.284029 0)
(0.441263 0.304405 0)
(0.462634 0.324935 0)
(0.485089 0.345529 0)
(0.508639 0.366083 0)
(0.533288 0.386477 0)
(0.559023 0.406577 0)
(0.585818 0.426232 0)
(0.613624 0.445281 0)
(0.642368 0.463561 0)
(0.671958 0.480899 0)
(0.702285 0.497194 0)
(0.733113 0.51214 1.61359e-025)
(0.212257 0.0103016 0)
(0.216378 0.0213275 0)
(0.221445 0.037219 0)
(0.22739 0.052988 0)
(0.234257 0.0688782 0)
(0.242073 0.0851557 0)
(0.250848 0.101885 0)
(0.260584 0.119073 0)
(0.271283 0.13673 0)
(0.28295 0.154867 0)
(0.295591 0.17349 0)
(0.309215 0.192599 0)
(0.323835 0.212188 0)
(0.339469 0.232244 0)
(0.356141 0.252746 0)
(0.373882 0.273664 0)
(0.392741 0.294954 0)
(0.412738 0.316562 0)
(0.433915 0.338401 0)
(0.456312 0.360382 0)
(0.479966 0.38239 0)
(0.504903 0.404287 0)
(0.531138 0.425914 0)
(0.558663 0.447089 0)
(0.587446 0.467611 0)
(0.61742 0.487268 0)
(0.648481 0.505842 0)
(0.680499 0.523153 0)
(0.713256 0.538955 0)
(0.193244 0.0104684 0)
(0.197033 0.0218481 0)
(0.201707 0.038132 0)
(0.207191 0.0542662 0)
(0.213547 0.0705541 0)
(0.220811 0.0872664 0)
(0.229 0.104467 0)
(0.238122 0.122167 0)
(0.248187 0.140382 0)
(0.259207 0.159131 0)
(0.271192 0.178424 0)
(0.28416 0.198269 0)
(0.298133 0.218666 0)
(0.313138 0.239611 0)
(0.329209 0.261091 0)
(0.346392 0.283076 0)
(0.364747 0.305546 0)
(0.38434 0.328437 0)
(0.405216 0.35167 0)
(0.427449 0.375152 0)
(0.451108 0.398757 0)
(0.476254 0.42233 0)
(0.502933 0.445685 0)
(0.53117 0.468604 0)
(0.560957 0.490836 0)
(0.592242 0.51211 0)
(0.624919 0.53214 0)
(0.658829 0.550661 0)
(0.693734 0.567407 1.68156e-025)
(0.175035 0.0105929 0)
(0.178507 0.022291 0)
(0.182797 0.0389165 0)
(0.187824 0.055365 0)
(0.193667 0.0720055 0)
(0.200373 0.0891105 0)
(0.207964 0.106742 0)
(0.216457 0.124915 0)
(0.225868 0.143653 0)
(0.236212 0.162979 0)
(0.247508 0.18291 0)
(0.259777 0.203462 0)
(0.273047 0.224645 0)
(0.287356 0.246462 0)
(0.302749 0.268912 0)
(0.319284 0.291981 0)
(0.337029 0.315642 0)
(0.356088 0.33986 0)
(0.376541 0.364571 0)
(0.398484 0.389662 0)
(0.422024 0.41501 0)
(0.447265 0.440446 0)
(0.4743 0.465757 0)
(0.503199 0.490684 0)
(0.533994 0.514919 0)
(0.566662 0.538116 0)
(0.601104 0.559897 0)
(0.637138 0.579888 0)
(0.674478 0.597744 -5.61718e-027)
(0.15768 0.0106726 0)
(0.160845 0.0226434 0)
(0.16476 0.0395549 0)
(0.169331 0.0562624 0)
(0.174658 0.0732063 0)
(0.180799 0.0906573 0)
(0.187784 0.108674 0)
(0.195636 0.127277 0)
(0.204375 0.146494 0)
(0.214022 0.166353 0)
(0.224598 0.186879 0)
(0.236129 0.208096 0)
(0.248648 0.230024 0)
(0.262196 0.25268 0)
(0.276831 0.276075 0)
(0.292622 0.300213 0)
(0.309656 0.325078 0)
(0.328042 0.350653 0)
(0.347922 0.376883 0)
(0.369418 0.403678 0)
(0.392682 0.430908 0)
(0.417868 0.458396 0)
(0.445128 0.485908 0)
(0.474596 0.513144 0)
(0.506364 0.539733 0)