/*--------------------------------*- C++ -*----------------------------------*\
| =========                 |                                                 |
| \\      /  F ield         | OpenFOAM: The Open Source CFD Toolbox           |
|  \\    /   O peration     | Version:  5.x                                   |
|   \\  /    A nd           | Web:      www.OpenFOAM.org                      |
|    \\/     M anipulation  |                                                 |
\*---------------------------------------------------------------------------*/
/*   Windows 32 and 64 bit porting by blueCAPE: http://www.bluecape.com.pt   *\
|  Based on Windows porting (2.0.x v4) by Symscape: http://www.symscape.com   |
\*---------------------------------------------------------------------------*/
FoamFile
{
    version     2.0;
    format      ascii;
    class       volScalarField;
    location    "30";
    object      epsilon;
}
// * * * * * * * * * * * * * * * * * * * * * * * * * * * * * * * * * * * * * //

dimensions      [0 2 -3 0 0 0 0];

internalField   nonuniform List<scalar> 
43900
(
0.00152831
0.00151964
0.00151974
0.00151974
0.00151974
0.00151974
0.00151974
0.00151974
0.00151974
0.00151974
0.00151974
0.00151974
0.00151974
0.00151974
0.00151974
0.00151974
0.00151974
0.00151974
0.00151974
0.00151974
0.00151974
0.00151974
0.00151974
0.00151974
0.00151974
0.00151974
0.00151974
0.00151974
0.00151974
0.000271517
3.26741e-005
3.17494e-005
3.17472e-005
3.17476e-005
3.17476e-005
3.17473e-005
3.17471e-005
3.17469e-005
3.17468e-005
3.17466e-005
3.17465e-005
3.17464e-005
3.17465e-005
3.17465e-005
3.17464e-005
3.17464e-005
3.17464e-005
3.17465e-005
3.17465e-005
3.17465e-005
3.17467e-005
3.17469e-005
3.1747e-005
3.17471e-005
3.17474e-005
3.17476e-005
3.17477e-005
3.17477e-005
0.00779325
0.000113707
5.66989e-006
5.40615e-006
5.40579e-006
5.40588e-006
5.40594e-006
5.406e-006
5.40606e-006
5.40608e-006
5.40611e-006
5.40613e-006
5.40614e-006
5.40616e-006
5.40615e-006
5.40614e-006
5.40612e-006
5.40609e-006
5.40606e-006
5.40601e-006
5.40596e-006
5.40588e-006
5.40582e-006
5.40575e-006
5.40567e-006
5.40558e-006
5.40549e-006
5.40539e-006
5.40525e-006
0.0224516
0.000663722
1.01026e-005
8.04965e-006
8.04634e-006
8.04651e-006
8.04667e-006
8.04682e-006
8.04694e-006
8.04702e-006
8.04708e-006
8.04711e-006
8.04713e-006
8.04714e-006
8.04712e-006
8.04708e-006
8.04702e-006
8.04694e-006
8.04684e-006
8.0467e-006
8.04657e-006
8.04641e-006
8.04624e-006
8.04602e-006
8.0458e-006
8.04555e-006
8.04527e-006
8.04495e-006
8.04465e-006
0.0277805
0.00101121
1.54557e-005
1.19557e-005
1.19505e-005
1.19505e-005
1.19506e-005
1.19506e-005
1.19507e-005
1.19507e-005
1.19507e-005
1.19507e-005
1.19507e-005
1.19507e-005
1.19507e-005
1.19506e-005
1.19506e-005
1.19505e-005
1.19504e-005
1.19504e-005
1.19502e-005
1.19502e-005
1.19501e-005
1.19499e-005
1.19498e-005
1.19496e-005
1.19493e-005
1.19491e-005
1.19489e-005
0.029265
0.00112232
1.72836e-005
1.31911e-005
1.31849e-005
1.31849e-005
1.31848e-005
1.31849e-005
1.31848e-005
1.31849e-005
1.31849e-005
1.31848e-005
1.31848e-005
1.31848e-005
1.31848e-005
1.31847e-005
1.31847e-005
1.31847e-005
1.31847e-005
1.31846e-005
1.31845e-005
1.31845e-005
1.31845e-005
1.31844e-005
1.31843e-005
1.31843e-005
1.31842e-005
1.31841e-005
1.3184e-005
0.0292241
0.00112872
1.76818e-005
1.34912e-005
1.34845e-005
1.34845e-005
1.34846e-005
1.34845e-005
1.34845e-005
1.34845e-005
1.34845e-005
1.34845e-005
1.34845e-005
1.34845e-005
1.34845e-005
1.34845e-005
1.34844e-005
1.34844e-005
1.34844e-005
1.34844e-005
1.34844e-005
1.34844e-005
1.34843e-005
1.34843e-005
1.34843e-005
1.34843e-005
1.34842e-005
1.34842e-005
1.34842e-005
0.0287034
0.00110804
1.77193e-005
1.35536e-005
1.35465e-005
1.35465e-005
1.35465e-005
1.35465e-005
1.35465e-005
1.35465e-005
1.35464e-005
1.35465e-005
1.35464e-005
1.35465e-005
1.35464e-005
1.35465e-005
1.35464e-005
1.35464e-005
1.35464e-005
1.35464e-005
1.35464e-005
1.35464e-005
1.35464e-005
1.35464e-005
1.35463e-005
1.35463e-005
1.35463e-005
1.35463e-005
1.35463e-005
0.0279471
0.0010679
1.76585e-005
1.35654e-005
1.35577e-005
1.35579e-005
1.35577e-005
1.35579e-005
1.35577e-005
1.35579e-005
1.35577e-005
1.35577e-005
1.35577e-005
1.35579e-005
1.35577e-005
1.35578e-005
1.35578e-005
1.35577e-005
1.35577e-005
1.35577e-005
1.35577e-005
1.35577e-005
1.35577e-005
1.35577e-005
1.35577e-005
1.35578e-005
1.35577e-005
1.35577e-005
1.35577e-005
0.0272566
0.00103401
1.76559e-005
1.35684e-005
1.35597e-005
1.35599e-005
1.35598e-005
1.35599e-005
1.35598e-005
1.35599e-005
1.35597e-005
1.35597e-005
1.35597e-005
1.35599e-005
1.35597e-005
1.35597e-005
1.35597e-005
1.35597e-005
1.35597e-005
1.35597e-005
1.35597e-005
1.35597e-005
1.35597e-005
1.35597e-005
1.35597e-005
1.35597e-005
1.35596e-005
1.35596e-005
1.35596e-005
0.0265055
0.000998535
1.76688e-005
1.35701e-005
1.35603e-005
1.35604e-005
1.35603e-005
1.35604e-005
1.35603e-005
1.35604e-005
1.35604e-005
1.35603e-005
1.35603e-005
1.35604e-005
1.35604e-005
1.35602e-005
1.35601e-005
1.35603e-005
1.35603e-005
1.35603e-005
1.35602e-005
1.35603e-005
1.35603e-005
1.35603e-005
1.35602e-005
1.35602e-005
1.35601e-005
1.35601e-005
1.356e-005
0.025692
0.000960993
1.76899e-005
1.35718e-005
1.35607e-005
1.35608e-005
1.35607e-005
1.35608e-005
1.35607e-005
1.35608e-005
1.35607e-005
1.35607e-005
1.35607e-005
1.35607e-005
1.35607e-005
1.35606e-005
1.35604e-005
1.35607e-005
1.35607e-005
1.35607e-005
1.35604e-005
1.35607e-005
1.35607e-005
1.35606e-005
1.35604e-005
1.35605e-005
1.35605e-005
1.35605e-005
1.35603e-005
0.0248211
0.00092181
1.77265e-005
1.35739e-005
1.35612e-005
1.35611e-005
1.35611e-005
1.35611e-005
1.35611e-005
1.35611e-005
1.35611e-005
1.35611e-005
1.35611e-005
1.35611e-005
1.3561e-005
1.3561e-005
1.35609e-005
1.3561e-005
1.3561e-005
1.3561e-005
1.35608e-005
1.3561e-005
1.3561e-005
1.3561e-005
1.35607e-005
1.35609e-005
1.35609e-005
1.35608e-005
1.35608e-005
0.0238908
0.000881101
1.77811e-005
1.35764e-005
1.35616e-005
1.35616e-005
1.35616e-005
1.35616e-005
1.35615e-005
1.35616e-005
1.35616e-005
1.35616e-005
1.35615e-005
1.35615e-005
1.35614e-005
1.35614e-005
1.35614e-005
1.35615e-005
1.35615e-005
1.35615e-005
1.35613e-005
1.35615e-005
1.35615e-005
1.35615e-005
1.35613e-005
1.35614e-005
1.35614e-005
1.35611e-005
1.35613e-005
0.0228997
0.000838991
1.78543e-005
1.35796e-005
1.35622e-005
1.35622e-005
1.35622e-005
1.35622e-005
1.35622e-005
1.35622e-005
1.35622e-005
1.35621e-005
1.35621e-005
1.35621e-005
1.3562e-005
1.3562e-005
1.3562e-005
1.35621e-005
1.35621e-005
1.35621e-005
1.3562e-005
1.3562e-005
1.3562e-005
1.3562e-005
1.35619e-005
1.35619e-005
1.35619e-005
1.35617e-005
1.35619e-005
0.0218489
0.000795694
1.79471e-005
1.35836e-005
1.35631e-005
1.3563e-005
1.35629e-005
1.35629e-005
1.35629e-005
1.35629e-005
1.35629e-005
1.35629e-005
1.35628e-005
1.35629e-005
1.35629e-005
1.35628e-005
1.35628e-005
1.35628e-005
1.35628e-005
1.35628e-005
1.35628e-005
1.35628e-005
1.35628e-005
1.35627e-005
1.35626e-005
1.35627e-005
1.35627e-005
1.35624e-005
1.35626e-005
0.0207407
0.000751487
1.80599e-005
1.35887e-005
1.35641e-005
1.3564e-005
1.35639e-005
1.35639e-005
1.35639e-005
1.35639e-005
1.35639e-005
1.35639e-005
1.35639e-005
1.35639e-005
1.35639e-005
1.35639e-005
1.35639e-005
1.35638e-005
1.35638e-005
1.35638e-005
1.35638e-005
1.35638e-005
1.35637e-005
1.35637e-005
1.35636e-005
1.35636e-005
1.35635e-005
1.35634e-005
1.35635e-005
0.0195794
0.000706702
1.81931e-005
1.35949e-005
1.35656e-005
1.35653e-005
1.35653e-005
1.35653e-005
1.35653e-005
1.35653e-005
1.35652e-005
1.35653e-005
1.35653e-005
1.35652e-005
1.35652e-005
1.35652e-005
1.35652e-005
1.35651e-005
1.35651e-005
1.35651e-005
1.3565e-005
1.3565e-005
1.3565e-005
1.3565e-005
1.35648e-005
1.35648e-005
1.35648e-005
1.35646e-005
1.35646e-005
0.018371
0.000661711
1.83468e-005
1.36028e-005
1.35675e-005
1.35671e-005
1.35671e-005
1.35671e-005
1.35671e-005
1.35671e-005
1.35671e-005
1.35671e-005
1.3567e-005
1.3567e-005
1.3567e-005
1.35669e-005
1.35669e-005
1.35668e-005
1.35668e-005
1.35668e-005
1.35667e-005
1.35666e-005
1.35666e-005
1.35665e-005
1.35665e-005
1.35665e-005
1.35664e-005
1.35662e-005
1.35661e-005
0.0171231
0.000616899
1.85203e-005
1.36127e-005
1.35699e-005
1.35695e-005
1.35695e-005
1.35694e-005
1.35694e-005
1.35694e-005
1.35694e-005
1.35693e-005
1.35693e-005
1.35693e-005
1.35692e-005
1.35692e-005
1.35691e-005
1.3569e-005
1.3569e-005
1.35689e-005
1.35688e-005
1.35688e-005
1.35687e-005
1.35687e-005
1.35686e-005
1.35686e-005
1.35685e-005
1.35683e-005
1.35681e-005
0.0158452
0.000572663
1.87126e-005
1.3625e-005
1.35732e-005
1.35725e-005
1.35725e-005
1.35725e-005
1.35725e-005
1.35724e-005
1.35724e-005
1.35724e-005
1.35723e-005
1.35722e-005
1.35722e-005
1.3572e-005
1.3572e-005
1.35719e-005
1.35718e-005
1.35717e-005
1.35716e-005
1.35716e-005
1.35716e-005
1.35715e-005
1.35713e-005
1.35711e-005
1.3571e-005
1.35708e-005
1.35706e-005
0.0145486
0.000529391
1.89224e-005
1.36403e-005
1.35775e-005
1.35765e-005
1.35765e-005
1.35764e-005
1.35764e-005
1.35764e-005
1.35763e-005
1.35763e-005
1.35762e-005
1.35761e-005
1.3576e-005
1.35758e-005
1.35757e-005
1.35757e-005
1.35755e-005
1.35754e-005
1.35753e-005
1.35751e-005
1.3575e-005
1.35748e-005
1.35746e-005
1.35743e-005
1.35741e-005
1.3574e-005
1.35737e-005
0.013246
0.000487433
1.91472e-005
1.36593e-005
1.35831e-005
1.35817e-005
1.35816e-005
1.35816e-005
1.35815e-005
1.35815e-005
1.35814e-005
1.35812e-005
1.35811e-005
1.3581e-005
1.35809e-005
1.35807e-005
1.35805e-005
1.35804e-005
1.35803e-005
1.35802e-005
1.358e-005
1.35796e-005
1.35794e-005
1.35791e-005
1.35789e-005
1.35786e-005
1.35784e-005
1.35783e-005
1.35779e-005
0.0119514
0.0004471
1.93842e-005
1.36826e-005
1.35902e-005
1.35883e-005
1.35881e-005
1.35881e-005
1.3588e-005
1.35878e-005
1.35877e-005
1.35876e-005
1.35875e-005
1.35874e-005
1.35873e-005
1.3587e-005
1.35867e-005
1.35865e-005
1.35863e-005
1.35861e-005
1.35859e-005
1.35855e-005
1.35852e-005
1.35848e-005
1.35846e-005
1.35843e-005
1.35841e-005
1.35839e-005
1.35834e-005
0.0106796
0.00040863
1.96294e-005
1.37111e-005
1.35994e-005
1.35967e-005
1.35965e-005
1.35964e-005
1.35962e-005
1.35961e-005
1.3596e-005
1.35958e-005
1.35956e-005
1.35954e-005
1.35952e-005
1.35947e-005
1.35943e-005
1.35941e-005
1.35939e-005
1.35937e-005
1.35934e-005
1.35931e-005
1.35928e-005
1.35924e-005
1.35921e-005
1.35917e-005
1.35913e-005
1.35908e-005
1.35902e-005
0.00944537
0.00037219
1.98777e-005
1.37456e-005
1.36111e-005
1.36074e-005
1.3607e-005
1.36069e-005
1.36067e-005
1.36066e-005
1.36063e-005
1.3606e-005
1.36058e-005
1.36055e-005
1.36052e-005
1.36048e-005
1.36044e-005
1.36041e-005
1.36038e-005
1.36034e-005
1.36031e-005
1.36027e-005
1.36022e-005
1.36017e-005
1.36012e-005
1.36006e-005
1.35999e-005
1.35994e-005
1.35985e-005
0.00826335
0.000337875
2.01227e-005
1.3787e-005
1.36258e-005
1.36207e-005
1.36201e-005
1.36199e-005
1.36198e-005
1.36195e-005
1.36193e-005
1.36191e-005
1.36189e-005
1.36186e-005
1.36182e-005
1.36177e-005
1.36171e-005
1.36166e-005
1.36161e-005
1.36157e-005
1.36151e-005
1.36145e-005
1.36138e-005
1.3613e-005
1.36122e-005
1.36115e-005
1.36109e-005
1.36101e-005
1.36091e-005
0.00714699
0.000305707
2.03565e-005
1.38361e-005
1.36442e-005
1.36373e-005
1.36364e-005
1.36364e-005
1.36363e-005
1.36361e-005
1.36358e-005
1.36354e-005
1.3635e-005
1.36345e-005
1.3634e-005
1.36335e-005
1.36329e-005
1.36323e-005
1.36316e-005
1.36309e-005
1.363e-005
1.36292e-005
1.36283e-005
1.36275e-005
1.36267e-005
1.36256e-005
1.36243e-005
1.36235e-005
1.36219e-005
0.00610803
0.000275653
2.05699e-005
1.38935e-005
1.36669e-005
1.36577e-005
1.36568e-005
1.36567e-005
1.36565e-005
1.36561e-005
1.36557e-005
1.3655e-005
1.36544e-005
1.3654e-005
1.36535e-005
1.36529e-005
1.36523e-005
1.36516e-005
1.36509e-005
1.36498e-005
1.36489e-005
1.36478e-005
1.36464e-005
1.36456e-005
1.36439e-005
1.36426e-005
1.36416e-005
1.36393e-005
1.36382e-005
0.0051559
0.00024764
2.07521e-005
1.39595e-005
1.36948e-005
1.36824e-005
1.36814e-005
1.36809e-005
1.36806e-005
1.36803e-005
1.36799e-005
1.36793e-005
1.36787e-005
1.36781e-005
1.36774e-005
1.36766e-005
1.36757e-005
1.36749e-005
1.36738e-005
1.36729e-005
1.36715e-005
1.36699e-005
1.3669e-005
1.36664e-005
1.36655e-005
1.3664e-005
1.36607e-005
1.36604e-005
1.3658e-005
0.00429721
0.000221574
2.0892e-005
1.40341e-005
1.37285e-005
1.37122e-005
1.3711e-005
1.37104e-005
1.37101e-005
1.37097e-005
1.37094e-005
1.37089e-005
1.37082e-005
1.37076e-005
1.37069e-005
1.37059e-005
1.37051e-005
1.37035e-005
1.37027e-005
1.37008e-005
1.36994e-005
1.36983e-005
1.36949e-005
1.36945e-005
1.3692e-005
1.36886e-005
1.36887e-005
1.36838e-005
1.36822e-005
0.00353552
0.000197362
2.09782e-005
1.41167e-005
1.37686e-005
1.37479e-005
1.37462e-005
1.37457e-005
1.37455e-005
1.37451e-005
1.37447e-005
1.37442e-005
1.37437e-005
1.3743e-005
1.37422e-005
1.37414e-005
1.37398e-005
1.37391e-005
1.37367e-005
1.3736e-005
1.37343e-005
1.37302e-005
1.37305e-005
1.37257e-005
1.37244e-005
1.37238e-005
1.37146e-005
1.37165e-005
1.37134e-005
0.00287126
0.000174926
2.09982e-005
1.42064e-005
1.38156e-005
1.37891e-005
1.37875e-005
1.37871e-005
1.37866e-005
1.37865e-005
1.37862e-005
1.3786e-005
1.37855e-005
1.37851e-005
1.37843e-005
1.37833e-005
1.37826e-005
1.37803e-005
1.37797e-005
1.37768e-005
1.37746e-005
1.37746e-005
1.3766e-005
1.37684e-005
1.37655e-005
1.37549e-005
1.37607e-005
1.37499e-005
1.37474e-005
0.00230189
0.000154212
2.09453e-005
1.43012e-005
1.387e-005
1.38373e-005
1.38344e-005
1.38343e-005
1.3834e-005
1.38338e-005
1.38338e-005
1.38337e-005
1.38336e-005
1.38335e-005
1.38333e-005
1.38327e-005
1.38309e-005
1.38308e-005
1.38269e-005
1.38273e-005
1.38265e-005
1.38175e-005
1.3823e-005
1.38113e-005
1.38077e-005
1.38141e-005
1.37962e-005
1.38018e-005
1.37967e-005
0.00182227
0.000135187
2.08254e-005
1.43993e-005
1.39314e-005
1.38928e-005
1.38881e-005
1.38885e-005
1.38888e-005
1.38888e-005
1.38887e-005
1.38889e-005
1.38883e-005
1.3889e-005
1.38884e-005
1.3889e-005
1.38893e-005
1.38857e-005
1.38886e-005
1.38848e-005
1.38798e-005
1.38866e-005
1.38703e-005
1.3877e-005
1.38769e-005
1.38558e-005
1.38653e-005
1.38476e-005
1.38436e-005
0.00142519
0.000117841
2.06239e-005
1.4498e-005
1.40001e-005
1.39546e-005
1.39492e-005
1.395e-005
1.39515e-005
1.39525e-005
1.39538e-005
1.39536e-005
1.39549e-005
1.39538e-005
1.39555e-005
1.39555e-005
1.39542e-005
1.39588e-005
1.39515e-005
1.39547e-005
1.39578e-005
1.39431e-005
1.39559e-005
1.39443e-005
1.39295e-005
1.39409e-005
1.39214e-005
1.39262e-005
1.39163e-005
0.00110202
0.000102169
2.03495e-005
1.45945e-005
1.40759e-005
1.40226e-005
1.40169e-005
1.40182e-005
1.4021e-005
1.40239e-005
1.40256e-005
1.40293e-005
1.40286e-005
1.40328e-005
1.40312e-005
1.40337e-005
1.40373e-005
1.40301e-005
1.404e-005
1.4036e-005
1.40287e-005
1.4041e-005
1.4024e-005
1.40313e-005
1.40327e-005
1.4007e-005
1.40163e-005
1.39933e-005
1.39975e-005
0.000843324
8.81613e-005
2.00116e-005
1.4686e-005
1.41571e-005
1.40966e-005
1.40908e-005
1.40927e-005
1.40973e-005
1.41012e-005
1.41068e-005
1.41084e-005
1.41166e-005
1.41154e-005
1.41232e-005
1.41242e-005
1.41227e-005
1.41359e-005
1.4123e-005
1.41361e-005
1.41355e-005
1.41188e-005
1.41408e-005
1.41227e-005
1.41211e-005
1.41264e-005
1.40978e-005
1.41123e-005
1.4089e-005
0.000639515
7.57901e-005
1.96237e-005
1.47709e-005
1.42418e-005
1.41759e-005
1.41703e-005
1.41731e-005
1.41793e-005
1.41863e-005
1.4191e-005
1.4202e-005
1.42029e-005
1.42168e-005
1.42173e-005
1.42235e-005
1.42378e-005
1.4228e-005
1.42537e-005
1.42333e-005
1.42427e-005
1.42702e-005
1.42313e-005
1.42587e-005
1.42538e-005
1.42229e-005
1.42398e-005
1.4209e-005
1.42087e-005
0.000481339
6.50044e-005
1.92008e-005
1.48473e-005
1.43284e-005
1.42593e-005
1.42543e-005
1.42581e-005
1.42669e-005
1.42753e-005
1.42865e-005
1.42922e-005
1.43104e-005
1.43126e-005
1.43286e-005
1.43397e-005
1.43411e-005
1.43701e-005
1.43506e-005
1.43911e-005
1.43894e-005
1.43616e-005
1.44093e-005
1.43775e-005
1.43783e-005
1.44047e-005
1.43686e-005
1.43624e-005
1.43613e-005
0.000360274
5.5726e-005
1.87588e-005
1.49138e-005
1.44155e-005
1.43453e-005
1.43415e-005
1.43465e-005
1.43582e-005
1.43697e-005
1.43823e-005
1.43985e-005
1.44078e-005
1.44326e-005
1.44405e-005
1.44585e-005
1.44826e-005
1.44789e-005
1.45298e-005
1.45046e-005
1.45237e-005
1.45712e-005
1.45351e-005
1.45608e-005
1.45824e-005
1.45428e-005
1.45536e-005
1.45566e-005
1.45105e-005
0.00026877
4.7849e-005
1.83132e-005
1.49697e-005
1.45015e-005
1.44326e-005
1.443e-005
1.44369e-005
1.44505e-005
1.44687e-005
1.44809e-005
1.45039e-005
1.45232e-005
1.45379e-005
1.4578e-005
1.45816e-005
1.46051e-005
1.46645e-005
1.46411e-005
1.47136e-005
1.47049e-005
1.46995e-005
1.47662e-005
1.47595e-005
1.47306e-005
1.47826e-005
1.47843e-005
1.47334e-005
1.47386e-005
0.00020037
4.1246e-005
1.78776e-005
1.50148e-005
1.45848e-005
1.45194e-005
1.45184e-005
1.45265e-005
1.45472e-005
1.45606e-005
1.45924e-005
1.46041e-005
1.46368e-005
1.46739e-005
1.46774e-005
1.47445e-005
1.47687e-005
1.47734e-005
1.48582e-005
1.4847e-005
1.4903e-005
1.49684e-005
1.49301e-005
1.49841e-005
1.50445e-005
1.49867e-005
1.50042e-005
1.50385e-005
1.4997e-005
0.000149717
3.57766e-005
1.74632e-005
1.50498e-005
1.46637e-005
1.46042e-005
1.46047e-005
1.46168e-005
1.46345e-005
1.46686e-005
1.46813e-005
1.47253e-005
1.47487e-005
1.47702e-005
1.48571e-005
1.48623e-005
1.48947e-005
1.49823e-005
1.50098e-005
1.50922e-005
1.50931e-005
1.51324e-005
1.52675e-005
1.52441e-005
1.524e-005
1.53473e-005
1.53079e-005
1.53143e-005
1.53061e-005
0.000112488
3.12959e-005
1.70785e-005
1.50754e-005
1.47368e-005
1.46853e-005
1.46877e-005
1.47003e-005
1.47324e-005
1.47488e-005
1.47995e-005
1.48162e-005
1.48603e-005
1.49315e-005
1.49409e-005
1.50248e-005
1.50769e-005
1.51152e-005
1.51987e-005
1.52558e-005
1.54247e-005
1.54111e-005
1.54475e-005
1.55762e-005
1.56586e-005
1.56165e-005
1.57123e-005
1.56798e-005
1.57007e-005
8.52803e-005
2.76619e-005
1.67292e-005
1.50929e-005
1.48031e-005
1.47614e-005
1.47653e-005
1.47849e-005
1.48067e-005
1.48577e-005
1.48743e-005
1.49368e-005
1.4976e-005
1.5002e-005
1.51213e-005
1.51405e-005
1.52146e-005
1.53377e-005
1.53815e-005
1.54974e-005
1.55563e-005
1.5756e-005
1.58214e-005
1.58607e-005
1.59416e-005
1.61615e-005
1.609e-005
1.62097e-005
1.61302e-005
6.54732e-005
2.47408e-005
1.64181e-005
1.51036e-005
1.48624e-005
1.48311e-005
1.48374e-005
1.48561e-005
1.48992e-005
1.49212e-005
1.49884e-005
1.50151e-005
1.5063e-005
1.51786e-005
1.5191e-005
1.53175e-005
1.54009e-005
1.54443e-005
1.55912e-005
1.56783e-005
1.59076e-005
1.59814e-005
1.6069e-005
1.64023e-005
1.64116e-005
1.64814e-005
1.67405e-005
1.66527e-005
1.67826e-005
5.10853e-005
2.24117e-005
1.61462e-005
1.5109e-005
1.49144e-005
1.48939e-005
1.49019e-005
1.49291e-005
1.49581e-005
1.502e-005
1.50478e-005
1.51129e-005
1.5198e-005
1.52204e-005
1.53681e-005
1.54135e-005
1.54853e-005
1.56753e-005
1.57762e-005
1.5984e-005
1.60447e-005
1.62441e-005
1.66519e-005
1.66723e-005
1.69985e-005
1.70572e-005
1.71965e-005
1.75483e-005
1.74077e-005
4.06427e-005
2.05685e-005
1.59126e-005
1.51105e-005
1.49595e-005
1.49488e-005
1.49593e-005
1.49871e-005
1.50341e-005
1.50701e-005
1.51342e-005
1.52066e-005
1.52375e-005
1.5382e-005
1.54188e-005
1.55416e-005
1.56944e-005
1.57892e-005
1.59669e-005
1.60838e-005
1.63927e-005
1.65663e-005
1.67884e-005
1.72975e-005
1.74194e-005
1.78294e-005
1.79665e-005
1.81076e-005
1.85485e-005
3.30637e-005
1.91207e-005
1.57151e-005
1.51092e-005
1.49982e-005
1.49954e-005
1.50084e-005
1.50419e-005
1.50895e-005
1.51297e-005
1.52127e-005
1.52417e-005
1.53736e-005
1.54137e-005
1.55503e-005
1.56386e-005
1.57954e-005
1.58945e-005
1.61492e-005
1.63243e-005
1.65124e-005
1.70227e-005
1.71505e-005
1.7459e-005
1.8267e-005
1.84379e-005
1.8969e-005
1.9221e-005
1.93457e-005
2.7563e-005
1.79925e-005
1.55512e-005
1.51066e-005
1.50311e-005
1.50335e-005
1.50502e-005
1.50918e-005
1.51274e-005
1.52055e-005
1.52364e-005
1.5351e-005
1.53942e-005
1.55101e-005
1.56124e-005
1.57647e-005
1.58502e-005
1.61308e-005
1.62389e-005
1.6506e-005
1.68685e-005
1.70494e-005
1.76673e-005
1.79256e-005
1.84172e-005
1.96825e-005
1.99114e-005
2.06115e-005
2.09961e-005
2.35743e-005
1.71216e-005
1.54177e-005
1.51034e-005
1.50579e-005
1.5064e-005
1.50873e-005
1.51217e-005
1.51892e-005
1.52198e-005
1.53273e-005
1.53586e-005
1.54813e-005
1.55689e-005
1.56809e-005
1.57743e-005
1.60324e-005
1.61579e-005
1.64317e-005
1.67246e-005
1.69006e-005
1.73858e-005
1.7762e-005
1.86918e-005
1.90392e-005
1.97909e-005
2.17767e-005
2.20412e-005
2.28997e-005
2.06928e-005
1.64582e-005
1.53113e-005
1.51007e-005
1.50792e-005
1.50885e-005
1.51137e-005
1.5163e-005
1.5201e-005
1.52806e-005
1.53275e-005
1.54216e-005
1.55343e-005
1.55833e-005
1.57781e-005
1.58796e-005
1.60514e-005
1.62487e-005
1.65628e-005
1.6751e-005
1.71557e-005
1.74776e-005
1.82878e-005
1.87173e-005
2.00218e-005
2.05758e-005
2.1881e-005
2.48244e-005
2.55927e-005
1.86265e-005
1.59605e-005
1.52276e-005
1.50985e-005
1.50937e-005
1.51055e-005
1.51387e-005
1.51766e-005
1.52445e-005
1.52823e-005
1.53884e-005
1.54267e-005
1.55851e-005
1.56222e-005
1.58577e-005
1.59055e-005
1.6166e-005
1.62953e-005
1.66616e-005
1.68218e-005
1.73083e-005
1.77322e-005
1.83036e-005
1.91843e-005
1.99778e-005
2.16914e-005
2.28992e-005
2.53785e-005
2.9447e-005
1.71723e-005
1.55989e-005
1.5166e-005
1.50994e-005
1.51034e-005
1.51214e-005
1.51569e-005
1.52045e-005
1.52565e-005
1.53093e-005
1.54098e-005
1.54482e-005
1.56344e-005
1.56646e-005
1.59009e-005
1.59673e-005
1.62345e-005
1.63357e-005
1.67488e-005
1.6914e-005
1.74451e-005
1.77598e-005
1.86036e-005
1.92533e-005
2.09501e-005
2.24657e-005
2.60618e-005
2.98383e-005
3.84597e-005
1.61681e-005
1.53397e-005
1.51161e-005
1.50962e-005
1.51043e-005
1.51269e-005
1.51611e-005
1.52109e-005
1.52521e-005
1.53327e-005
1.53845e-005
1.54785e-005
1.56155e-005
1.5693e-005
1.59552e-005
1.60422e-005
1.65431e-005
1.68247e-005
1.80979e-005
1.98038e-005
2.73659e-005
3.7962e-005
8.4257e-005
0.000134385
0.000339795
0.000497268
0.00087969
0.00158968
0.00164917
1.55397e-005
1.51734e-005
1.51001e-005
1.5104e-005
1.51215e-005
1.51596e-005
1.52088e-005
1.52887e-005
1.53952e-005
1.55549e-005
1.59887e-005
1.64686e-005
1.82015e-005
2.07218e-005
3.17696e-005
4.43813e-005
0.000100245
0.000166383
0.000424747
0.000697866
0.00164339
0.00253804
0.00539031
0.00771637
0.0148495
0.0200904
0.0339398
0.0477387
0.0623582
1.51276e-005
1.51369e-005
1.52489e-005
1.55425e-005
1.6167e-005
1.74546e-005
2.00639e-005
2.56175e-005
3.64187e-005
5.66508e-005
0.000114978
0.000175268
0.00038114
0.000603638
0.00134215
0.0019901
0.00404995
0.00586722
0.0110568
0.0153699
0.0267411
0.0359895
0.0591628
0.0779532
0.12474
0.164618
0.264101
0.351877
0.533901
1.53689e-005
1.8509e-005
2.67582e-005
4.46009e-005
7.9793e-005
0.000146461
0.000266826
0.000484084
0.000853862
0.00139758
0.00266585
0.00379562
0.0068329
0.00954581
0.0163934
0.02197
0.0353948
0.0464091
0.0713498
0.0918561
0.136921
0.174729
0.256754
0.328738
0.490041
0.641908
1.00469
1.35103
2.1925
0.00151974
0.00151974
0.00151974
0.00151974
0.00151974
0.00151974
0.00151974
0.00151974
0.00151974
0.00151974
0.00151974
0.00151974
0.00151975
0.00151975
0.00151975
0.00151975
0.00151975
0.00151975
0.00151975
0.00151975
0.00151975
0.00151975
0.00151975
0.00151975
0.00151975
0.00151975
0.00151975
0.00151975
0.00151975
0.00151975
0.00151975
0.00151975
0.00151975
0.00151976
0.00151976
0.00151976
0.00151976
0.00151976
0.00151976
0.00151976
0.00151976
0.00151976
0.00151976
0.00151976
0.00151976
0.00151976
0.00151976
0.00151976
0.00151976
0.00151976
0.00151976
0.00151976
0.00151977
0.00151977
0.00151977
0.00151977
0.00151977
0.00151977
0.00151977
0.00151977
0.00151977
0.00151977
0.00151977
0.00151977
0.00151977
0.00151977
0.00151977
0.00151977
0.00151977
0.00151977
0.00151977
0.00151977
0.00151977
0.00151977
0.00151978
0.00151978
0.00151978
0.00151978
0.00151978
0.00151978
0.00151978
0.00151978
0.00151978
0.00151978
0.00151978
0.00151978
0.00151978
0.00151978
0.00151978
0.00151978
0.00151978
0.00151978
0.00151978
0.00151978
0.00151978
0.00151978
0.00151978
0.00151978
0.00151978
0.00151978
0.00151978
0.00151978
0.00151978
0.00151978
0.00151978
0.00151978
0.00151978
0.00151979
0.00151979
0.00151979
0.00151979
0.00151979
0.00151979
0.00151979
0.00151979
0.00151979
0.00151979
0.00151979
0.00151979
0.00151979
0.00151979
0.00151979
0.00151979
0.00151979
0.00151979
0.00151979
0.00151979
0.00151979
0.00151979
0.00151979
0.00151979
0.00151979
0.00151979
0.00151979
0.00151979
0.00151979
0.0015198
0.0015198
0.0015381
3.1748e-005
3.17484e-005
3.17486e-005
3.17489e-005
3.17492e-005
3.17495e-005
3.17499e-005
3.17502e-005
3.17505e-005
3.17509e-005
3.17514e-005
3.17517e-005
3.17521e-005
3.17526e-005
3.1753e-005
3.17534e-005
3.17539e-005
3.17543e-005
3.17548e-005
3.17553e-005
3.17558e-005
3.17563e-005
3.17568e-005
3.17573e-005
3.17578e-005
3.17583e-005
3.17589e-005
3.17594e-005
3.17599e-005
3.17605e-005
3.1761e-005
3.17615e-005
3.17621e-005
3.17626e-005
3.17632e-005
3.17638e-005
3.17643e-005
3.17649e-005
3.17654e-005
3.1766e-005
3.17666e-005
3.17671e-005
3.17677e-005
3.17682e-005
3.17688e-005
3.17693e-005
3.17699e-005
3.17704e-005
3.1771e-005
3.17715e-005
3.1772e-005
3.17726e-005
3.17731e-005
3.17737e-005
3.17742e-005
3.17747e-005
3.17752e-005
3.17757e-005
3.17762e-005
3.17767e-005
3.17772e-005
3.17777e-005
3.17782e-005
3.17787e-005
3.17792e-005
3.17796e-005
3.178e-005
3.17805e-005
3.1781e-005
3.17814e-005
3.17819e-005
3.17823e-005
3.17827e-005
3.17831e-005
3.17835e-005
3.17839e-005
3.17843e-005
3.17847e-005
3.17851e-005
3.17855e-005
3.17859e-005
3.17862e-005
3.17866e-005
3.17869e-005
3.17873e-005
3.17876e-005
3.1788e-005
3.17883e-005
3.17887e-005
3.1789e-005
3.17893e-005
3.17896e-005
3.17899e-005
3.17902e-005
3.17905e-005
3.17907e-005
3.1791e-005
3.17913e-005
3.17915e-005
3.17918e-005
3.17921e-005
3.17923e-005
3.17926e-005
3.17928e-005
3.17931e-005
3.17933e-005
3.17935e-005
3.17938e-005
3.1794e-005
3.17942e-005
3.17944e-005
3.17946e-005
3.17948e-005
3.1795e-005
3.17952e-005
3.17955e-005
3.17957e-005
3.17959e-005
3.17961e-005
3.17963e-005
3.17966e-005
3.17968e-005
3.17971e-005
3.17973e-005
3.17976e-005
3.1798e-005
3.17983e-005
3.17987e-005
3.17991e-005
3.17995e-005
3.18e-005
3.18005e-005
3.18012e-005
3.18018e-005
3.18026e-005
3.18032e-005
3.18048e-005
3.18275e-005
5.75394e-005
5.40514e-006
5.40501e-006
5.40483e-006
5.40467e-006
5.40449e-006
5.4043e-006
5.40411e-006
5.40391e-006
5.4037e-006
5.40348e-006
5.40327e-006
5.40304e-006
5.4028e-006
5.40257e-006
5.40233e-006
5.40208e-006
5.40183e-006
5.40156e-006
5.40131e-006
5.40105e-006
5.40079e-006
5.40051e-006
5.40023e-006
5.39996e-006
5.39967e-006
5.3994e-006
5.39912e-006
5.39882e-006
5.39854e-006
5.39825e-006
5.39796e-006
5.39766e-006
5.39738e-006
5.39708e-006
5.39679e-006
5.39649e-006
5.3962e-006
5.3959e-006
5.39562e-006
5.39531e-006
5.39502e-006
5.39473e-006
5.39444e-006
5.39414e-006
5.39386e-006
5.39355e-006
5.39328e-006
5.39298e-006
5.3927e-006
5.39242e-006
5.39215e-006
5.39187e-006
5.3916e-006
5.39133e-006
5.39105e-006
5.39079e-006
5.39052e-006
5.39027e-006
5.38999e-006
5.38973e-006
5.38949e-006
5.38924e-006
5.38899e-006
5.38875e-006
5.38851e-006
5.38827e-006
5.38802e-006
5.3878e-006
5.38757e-006
5.38734e-006
5.38712e-006
5.3869e-006
5.38669e-006
5.38647e-006
5.38626e-006
5.38605e-006
5.38585e-006
5.38566e-006
5.38546e-006
5.38527e-006
5.38508e-006
5.38489e-006
5.38471e-006
5.38452e-006
5.38435e-006
5.38418e-006
5.38402e-006
5.38385e-006
5.38369e-006
5.38353e-006
5.38337e-006
5.38321e-006
5.38307e-006
5.38291e-006
5.38278e-006
5.38264e-006
5.38251e-006
5.38237e-006
5.38224e-006
5.38212e-006
5.38199e-006
5.38187e-006
5.38176e-006
5.38165e-006
5.38153e-006
5.38142e-006
5.3813e-006
5.3812e-006
5.3811e-006
5.381e-006
5.3809e-006
5.38082e-006
5.38071e-006
5.38061e-006
5.38053e-006
5.38044e-006
5.38035e-006
5.38027e-006
5.38019e-006
5.3801e-006
5.38002e-006
5.37994e-006
5.37987e-006
5.37979e-006
5.37971e-006
5.37965e-006
5.37959e-006
5.37952e-006
5.37944e-006
5.37938e-006
5.3793e-006
5.37924e-006
5.37917e-006
5.37911e-006
5.37906e-006
5.37896e-006
5.37994e-006
7.29967e-006
0.000633823
8.0443e-006
8.04388e-006
8.04341e-006
8.04295e-006
8.0425e-006
8.04199e-006
8.04147e-006
8.04093e-006
8.04036e-006
8.03978e-006
8.03919e-006
8.03857e-006
8.03794e-006
8.0373e-006
8.03664e-006
8.03596e-006
8.03529e-006
8.03456e-006
8.03387e-006
8.03315e-006
8.03244e-006
8.03168e-006
8.03092e-006
8.03016e-006
8.02939e-006
8.02862e-006
8.02784e-006
8.02705e-006
8.02628e-006
8.02547e-006
8.02468e-006
8.02387e-006
8.02308e-006
8.02225e-006
8.02145e-006
8.02062e-006
8.01982e-006
8.019e-006
8.0182e-006
8.01739e-006
8.01656e-006
8.01575e-006
8.01494e-006
8.01414e-006
8.01335e-006
8.01253e-006
8.01173e-006
8.01094e-006
8.01015e-006
8.00938e-006
8.00861e-006
8.00785e-006
8.00708e-006
8.00633e-006
8.00559e-006
8.00485e-006
8.00413e-006
8.00338e-006
8.00265e-006
8.00196e-006
8.00124e-006
8.00056e-006
7.99987e-006
7.99921e-006
7.99853e-006
7.99788e-006
7.9972e-006
7.99657e-006
7.99593e-006
7.99532e-006
7.9947e-006
7.9941e-006
7.9935e-006
7.9929e-006
7.99232e-006
7.99175e-006
7.99118e-006
7.99066e-006
7.99011e-006
7.98957e-006
7.98904e-006
7.98853e-006
7.98802e-006
7.98751e-006
7.98703e-006
7.98655e-006
7.9861e-006
7.98565e-006
7.98519e-006
7.98475e-006
7.98431e-006
7.98388e-006
7.98348e-006
7.98306e-006
7.98267e-006
7.98229e-006
7.98191e-006
7.98153e-006
7.98116e-006
7.98081e-006
7.98047e-006
7.98014e-006
7.97979e-006
7.97949e-006
7.97915e-006
7.97886e-006
7.97853e-006
7.97825e-006
7.97796e-006
7.97767e-006
7.9774e-006
7.97715e-006
7.97687e-006
7.9766e-006
7.97635e-006
7.97611e-006
7.97586e-006
7.97562e-006
7.9754e-006
7.97513e-006
7.97494e-006
7.97471e-006
7.97449e-006
7.97428e-006
7.97404e-006
7.97386e-006
7.97363e-006
7.97342e-006
7.97318e-006
7.97298e-006
7.97274e-006
7.97254e-006
7.97228e-006
7.97206e-006
7.97182e-006
7.97157e-006
7.97781e-006
2.43759e-005
0.00306031
1.19486e-005
1.19483e-005
1.19481e-005
1.19478e-005
1.19475e-005
1.19471e-005
1.19468e-005
1.19465e-005
1.19461e-005
1.19457e-005
1.19454e-005
1.1945e-005
1.19446e-005
1.19442e-005
1.19438e-005
1.19434e-005
1.19429e-005
1.19425e-005
1.1942e-005
1.19416e-005
1.19411e-005