/*--------------------------------*- C++ -*----------------------------------*\
| =========                 |                                                 |
| \\      /  F ield         | OpenFOAM: The Open Source CFD Toolbox           |
|  \\    /   O peration     | Version:  5.x                                   |
|   \\  /    A nd           | Web:      www.OpenFOAM.org                      |
|    \\/     M anipulation  |                                                 |
\*---------------------------------------------------------------------------*/
/*   Windows 32 and 64 bit porting by blueCAPE: http://www.bluecape.com.pt   *\
|  Based on Windows porting (2.0.x v4) by Symscape: http://www.symscape.com   |
\*---------------------------------------------------------------------------*/
FoamFile
{
    version     2.0;
    format      ascii;
    class       volScalarField;
    location    "30";
    object      k;
}
// * * * * * * * * * * * * * * * * * * * * * * * * * * * * * * * * * * * * * //

dimensions      [0 2 -2 0 0 0 0];

internalField   nonuniform List<scalar> 
43900
(
0.000983802
0.00099008
0.000990208
0.000990206
0.000990207
0.000990207
0.000990206
0.000990206
0.000990206
0.000990206
0.000990206
0.000990206
0.000990206
0.000990206
0.000990206
0.000990206
0.000990206
0.000990206
0.000990206
0.000990206
0.000990206
0.000990206
0.000990206
0.000990206
0.000990206
0.000990206
0.000990206
0.000990207
0.000990207
0.000994524
4.12627e-005
3.84357e-005
3.84294e-005
3.84297e-005
3.84297e-005
3.84293e-005
3.8429e-005
3.84288e-005
3.84285e-005
3.84283e-005
3.84282e-005
3.84281e-005
3.84281e-005
3.84281e-005
3.8428e-005
3.8428e-005
3.8428e-005
3.8428e-005
3.8428e-005
3.8428e-005
3.84282e-005
3.84284e-005
3.84286e-005
3.84287e-005
3.84305e-005
3.84306e-005
3.84307e-005
3.84307e-005
0.0442809
0.00092999
3.96191e-005
3.74037e-005
3.74005e-005
3.74016e-005
3.7402e-005
3.74026e-005
3.7403e-005
3.74032e-005
3.74033e-005
3.74034e-005
3.74033e-005
3.74034e-005
3.74033e-005
3.74029e-005
3.74025e-005
3.7402e-005
3.74014e-005
3.74006e-005
3.73998e-005
3.73984e-005
3.73974e-005
3.73964e-005
3.73953e-005
3.73921e-005
3.73908e-005
3.73892e-005
3.73873e-005
0.130488
0.00602371
0.000197427
0.00017461
0.000174574
0.000174581
0.000174587
0.000174593
0.000174597
0.0001746
0.000174603
0.000174604
0.000174605
0.000174605
0.000174604
0.000174603
0.000174601
0.000174598
0.000174595
0.00017459
0.000174585
0.000174579
0.000174573
0.000174566
0.000174558
0.000174549
0.000174539
0.000174527
0.000174517
0.162096
0.00930419
0.000365345
0.0003254
0.000325333
0.000325336
0.000325339
0.000325341
0.000325342
0.000325343
0.000325343
0.000325344
0.000325343
0.000325343
0.000325342
0.000325341
0.000325338
0.000325337
0.000325333
0.00032533
0.000325326
0.000325324
0.00032532
0.000325315
0.000325309
0.000325301
0.000325293
0.000325285
0.000325277
0.170879
0.0103463
0.000417974
0.000370921
0.000370839
0.000370838
0.000370838
0.000370839
0.000370838
0.000370838
0.000370839
0.000370837
0.000370838
0.000370836
0.000370836
0.000370833
0.000370834
0.000370832
0.000370831
0.000370828
0.000370828
0.000370825
0.000370824
0.00037082
0.00037082
0.000370817
0.000370814
0.00037081
0.000370807
0.170965
0.0104298
0.000429988
0.000381775
0.000381683
0.000381683
0.000381685
0.000381683
0.000381684
0.000381682
0.000381683
0.000381684
0.000381682
0.000381681
0.000381681
0.000381683
0.00038168
0.00038168
0.000381679
0.00038168
0.000381678
0.000381678
0.000381677
0.000381677
0.000381675
0.000381675
0.000381673
0.000381674
0.000381671
0.168776
0.0102843
0.000431963
0.000383997
0.0003839
0.000383902
0.000383901
0.000383902
0.000383901
0.000383902
0.000383899
0.000383901
0.000383899
0.000383901
0.000383899
0.000383901
0.000383898
0.000383899
0.000383898
0.0003839
0.000383897
0.000383899
0.000383897
0.000383899
0.000383896
0.000383897
0.000383896
0.000383896
0.000383896
0.165073
0.00996148
0.000431379
0.000384402
0.000384299
0.000384306
0.0003843
0.000384306
0.0003843
0.000384306
0.000384299
0.0003843
0.000384299
0.000384305
0.0003843
0.0003843
0.000384301
0.000384299
0.000384299
0.0003843
0.000384301
0.0003843
0.000384297
0.000384299
0.000384299
0.000384301
0.000384299
0.000384298
0.0003843
0.161687
0.00968113
0.000431141
0.000384481
0.000384368
0.000384375
0.000384369
0.000384375
0.000384369
0.000384375
0.000384368
0.000384368
0.000384368
0.000384375
0.000384368
0.000384364
0.000384367
0.000384368
0.000384368
0.000384368
0.000384368
0.000384368
0.000384366
0.000384367
0.000384367
0.000384371
0.000384365
0.000384362
0.000384366
0.158016
0.00939017
0.000430989
0.000384511
0.000384385
0.00038439
0.000384386
0.000384389
0.000384386
0.000384389
0.000384386
0.000384386
0.000384385
0.000384389
0.000384387
0.000384377
0.000384379
0.000384385
0.000384385
0.000384385
0.00038438
0.000384384
0.000384384
0.000384384
0.000384378
0.000384384
0.000384378
0.000384378
0.000384378
0.154027
0.00908167
0.000430918
0.000384534
0.000384395
0.000384396
0.000384395
0.000384396
0.000384395
0.000384396
0.000384395
0.000384395
0.000384394
0.000384395
0.000384393
0.000384388
0.000384385
0.000384393
0.000384394
0.000384394
0.000384385
0.000384393
0.000384393
0.000384393
0.000384382
0.000384391
0.000384388
0.000384385
0.000384383
0.149733
0.00875817
0.000430995
0.00038456
0.000384404
0.000384403
0.000384403
0.000384402
0.000384402
0.000384402
0.000384402
0.000384403
0.000384401
0.000384402
0.000384397
0.000384398
0.000384395
0.000384401
0.000384401
0.000384401
0.000384392
0.000384401
0.000384401
0.0003844
0.000384388
0.000384398
0.000384398
0.00038439
0.000384392
0.145118
0.00842036
0.000431253
0.000384591
0.000384412
0.000384411
0.000384411
0.000384411
0.00038441
0.000384411
0.000384411
0.000384411
0.00038441
0.00038441
0.000384405
0.000384407
0.000384407
0.00038441
0.00038441
0.00038441
0.000384403
0.000384409
0.000384409
0.000384409
0.000384401
0.000384407
0.000384407
0.000384397
0.000384403
0.140167
0.00806906
0.000431704
0.000384631
0.000384423
0.000384423
0.000384423
0.000384423
0.000384423
0.000384423
0.000384423
0.000384422
0.000384422
0.000384421
0.000384419
0.00038442
0.00038442
0.000384421
0.000384421
0.000384421
0.000384416
0.00038442
0.00038442
0.00038442
0.000384415
0.000384418
0.000384418
0.000384408
0.000384417
0.134878
0.0077058
0.000432363
0.000384681
0.000384438
0.000384438
0.000384437
0.000384438
0.000384438
0.000384438
0.000384438
0.000384437
0.000384436
0.000384437
0.000384437
0.000384437
0.000384434
0.000384435
0.000384435
0.000384435
0.000384431
0.000384434
0.000384434
0.000384434
0.000384427
0.000384431
0.00038443
0.000384424
0.00038443
0.129253
0.00733269
0.000433245
0.000384743
0.000384459
0.000384457
0.000384456
0.000384456
0.000384456
0.000384456
0.000384456
0.000384456
0.000384456
0.000384457
0.000384456
0.000384455
0.000384453
0.000384454
0.000384454
0.000384454
0.000384451
0.00038445
0.00038445
0.000384449
0.000384441
0.000384445
0.000384445
0.000384444
0.000384447
0.123302
0.00695231
0.000434365
0.000384822
0.000384489
0.000384483
0.000384484
0.000384483
0.000384484
0.000384484
0.000384483
0.000384484
0.000384484
0.00038448
0.000384481
0.00038448
0.000384478
0.000384479
0.000384479
0.000384479
0.000384473
0.000384474
0.000384474
0.000384474
0.000384466
0.00038447
0.000384471
0.000384468
0.000384468
0.117043
0.00656768
0.000435736
0.000384922
0.000384525
0.000384519
0.00038452
0.00038452
0.00038452
0.000384519
0.00038452
0.00038452
0.000384518
0.000384514
0.000384515
0.000384515
0.00038451
0.00038451
0.00038451
0.00038451
0.000384502
0.000384506
0.000384505
0.000384507
0.000384507
0.000384507
0.000384505
0.000384493
0.000384493
0.110505
0.00618204
0.000437366
0.000385049
0.000384571
0.000384567
0.000384567
0.000384565
0.000384565
0.000384565
0.000384564
0.000384561
0.00038456
0.000384559
0.000384559
0.000384557
0.000384553
0.000384553
0.000384552
0.000384551
0.000384545
0.000384551
0.000384551
0.000384551
0.000384549
0.000384547
0.000384544
0.000384536
0.000384531
0.103721
0.00579882
0.000439262
0.000385209
0.000384635
0.000384626
0.000384626
0.000384626
0.000384626
0.000384625
0.000384622
0.000384621
0.000384621
0.00038462
0.000384617
0.00038461
0.000384609
0.000384609
0.000384609
0.000384608
0.000384605
0.000384607
0.000384607
0.000384606
0.000384594
0.000384592
0.00038459
0.000384586
0.000384579
0.0967386
0.00542152
0.000441428
0.00038541
0.000384719
0.000384705
0.000384707
0.000384705
0.000384704
0.000384703
0.000384702
0.000384701
0.0003847
0.000384697
0.000384693
0.000384684
0.000384686
0.000384686
0.000384685
0.000384684
0.000384681
0.000384676
0.000384671
0.000384663
0.000384654
0.000384653
0.000384652
0.00038465
0.000384644
0.0896112
0.00505343
0.000443866
0.000385662
0.000384829
0.000384812
0.00038481
0.000384807
0.000384807
0.000384806
0.000384803
0.000384796
0.000384794
0.000384793
0.00038479
0.000384785
0.000384784
0.000384782
0.000384781
0.00038478
0.000384776
0.000384768
0.00038476
0.000384749
0.000384742
0.000384739
0.000384737
0.000384734
0.000384728
0.0824024
0.00469762
0.000446572
0.000385978
0.000384969
0.000384946
0.000384939
0.000384938
0.000384937
0.000384931
0.00038493
0.000384929
0.000384927
0.000384925
0.00038492
0.000384909
0.000384907
0.000384905
0.000384903
0.000384898
0.000384892
0.000384882
0.000384875
0.000384865
0.00038486
0.000384856
0.000384852
0.000384848
0.00038484
0.0751821
0.00435658
0.000449536
0.000386371
0.000385147
0.000385115
0.000385109
0.000385105
0.000385102
0.000385099
0.000385097
0.000385094
0.000385089
0.000385084
0.000385077
0.00038506
0.000385057
0.000385055
0.000385054
0.000385051
0.000385047
0.000385042
0.000385034
0.000385025
0.000385018
0.000385011
0.000385
0.00038499
0.000384976
0.0680254
0.00403224
0.000452743
0.000386857
0.000385377
0.000385334
0.00038532
0.000385313
0.000385311
0.000385307
0.000385298
0.000385291
0.000385289
0.000385286
0.000385281
0.00038527
0.000385267
0.000385263
0.000385258
0.000385249
0.000385245
0.000385235
0.000385225
0.000385216
0.000385202
0.000385188
0.000385173
0.000385158
0.000385141
0.0610107
0.00372583
0.000456165
0.000387455
0.000385663
0.000385602
0.000385577
0.000385575
0.000385573
0.000385569
0.000385563
0.000385563
0.000385562
0.000385558
0.000385551
0.000385539
0.000385528
0.000385517
0.000385507
0.000385497
0.000385484
0.000385471
0.000385455
0.000385434
0.000385415
0.000385401
0.000385391
0.000385376
0.000385359
0.0542161
0.00343788
0.000459758
0.000388182
0.000386021
0.000385937
0.000385909
0.000385914
0.000385914
0.000385913
0.000385909
0.000385897
0.000385888
0.000385879
0.000385872
0.000385861
0.00038585
0.000385837
0.00038582
0.000385804
0.00038578
0.000385761
0.000385744
0.00038573
0.000385717
0.000385692
0.000385664
0.000385645
0.000385614
0.0477164
0.00316822
0.000463463
0.000389059
0.000386464
0.000386353
0.00038633
0.000386332
0.00038633
0.000386321
0.000386311
0.000386292
0.00038628
0.000386274
0.000386267
0.00038626
0.000386248
0.000386236
0.000386222
0.000386195
0.000386174
0.000386149
0.000386121
0.000386097
0.000386063
0.000386035
0.000386012
0.000385966
0.000385943
0.0415796
0.00291615
0.000467191
0.000390103
0.000387007
0.000386852
0.000386832
0.000386819
0.000386809
0.000386805
0.0003868
0.000386787
0.000386778
0.000386766
0.000386754
0.000386732
0.000386714
0.000386699
0.000386676
0.000386655
0.000386625
0.00038659
0.000386567
0.000386508
0.00038649
0.000386457
0.000386396
0.000386389
0.000386343
0.0358642
0.00268058
0.000470835
0.000391325
0.000387667
0.00038746
0.000387442
0.00038742
0.000387415
0.000387405
0.000387398
0.000387386
0.000387374
0.000387363
0.000387348
0.000387335
0.000387314
0.000387274
0.000387249
0.000387214
0.000387184
0.000387161
0.000387098
0.000387087
0.000387026
0.000386958
0.000386963
0.00038687
0.000386835
0.0306159
0.00246021
0.000474257
0.000392738
0.000388455
0.000388192
0.000388162
0.000388147
0.000388139
0.00038813
0.000388117
0.000388108
0.000388099
0.000388082
0.00038807
0.000388047
0.000388018
0.000388
0.000387952
0.000387938
0.000387901
0.000387814
0.000387823
0.000387725
0.000387693
0.000387682
0.000387498
0.000387532
0.00038747
0.0258658
0.00225377
0.000477307
0.000394344
0.000389382
0.000389022
0.000388997
0.000388983
0.000388953
0.000388952
0.000388951
0.000388948
0.000388943
0.000388936
0.00038892
0.000388899
0.000388885
0.00038884
0.000388831
0.00038877
0.000388719
0.000388714
0.000388533
0.000388579
0.00038852
0.000388309
0.000388425
0.00038821
0.000388157
0.0216298
0.00206016
0.000479824
0.000396124
0.000390461
0.000389996
0.000389958
0.000389951
0.000389931
0.000389923
0.000389921
0.00038991
0.000389912
0.000389911
0.000389908
0.000389899
0.00038987
0.000389868
0.000389783
0.000389785
0.000389768
0.000389583
0.000389681
0.000389445
0.000389362
0.00038949
0.000389138
0.000389246
0.000389145
0.0179083
0.00187856
0.000481637
0.000398064
0.000391686
0.000391141
0.000391064
0.000391068
0.000391068
0.000391072
0.000391071
0.000391069
0.000391055
0.000391067
0.000391056
0.000391062
0.000391067
0.000390998
0.000391051
0.000390966
0.000390862
0.000390994
0.00039067
0.000390794
0.000390788
0.000390349
0.000390526
0.000390172
0.000390079
0.014687
0.00170853
0.000482613
0.000400124
0.000393073
0.000392421
0.000392316
0.000392324
0.000392352
0.000392379
0.000392411
0.000392409
0.00039244
0.000392416
0.000392446
0.000392442
0.000392402
0.00039248
0.000392329
0.000392384
0.000392445
0.000392155
0.000392401
0.000392164
0.000391864
0.00039208
0.000391673
0.00039175
0.000391546
0.0119395
0.00154991
0.000482558
0.000402244
0.000394629
0.000393816
0.0003937
0.000393716
0.00039377
0.000393831
0.000393874
0.000393953
0.000393944
0.000394034
0.000394003
0.000394051
0.000394111
0.000393959
0.000394141
0.000394053
0.000393889
0.000394123
0.000393785
0.000393922
0.000393942
0.000393419
0.000393587
0.000393121
0.00039318
0.00962956
0.00140281
0.000481613
0.000404368
0.000396313
0.000395331
0.000395212
0.000395239
0.000395326
0.000395406
0.000395521
0.000395555
0.000395724
0.000395705
0.000395865
0.00039589
0.00039586
0.000396118
0.000395856
0.000396099
0.000396075
0.000395722
0.000396146
0.000395784
0.000395737
0.000395829
0.000395255
0.000395522
0.000395053
0.00771416
0.00126742
0.000479706
0.000406458
0.000398076
0.000396957
0.000396844
0.000396887
0.000397002
0.000397141
0.000397235
0.00039745
0.000397471
0.000397749
0.00039776
0.000397881
0.000398171
0.000397986
0.00039849
0.000398093
0.000398269
0.00039879
0.000397998
0.000398523
0.00039842
0.000397803
0.000398122
0.000397504
0.00039747
0.00614666
0.00114395
0.000476784
0.000408455
0.000399887
0.000398672
0.000398574
0.000398635
0.000398796
0.000398961
0.000399179
0.000399288
0.000399642
0.000399689
0.000399999
0.000400211
0.000400245
0.000400822
0.00040045
0.000401247
0.000401215
0.000400658
0.000401597
0.000400957
0.000400953
0.000401439
0.000400726
0.000400584
0.00040055
0.00487953
0.00103252
0.000473014
0.000410293
0.00040172
0.000400445
0.000400367
0.000400452
0.000400669
0.000400893
0.000401138
0.000401449
0.00040163
0.000402111
0.000402263
0.000402613
0.000403078
0.000403013
0.000404014
0.000403526
0.000403897
0.000404855
0.000404137
0.000404627
0.000405035
0.000404247
0.00040443
0.000404474
0.000403554
0.00386669
0.000933052
0.000468547
0.000411915
0.000403544
0.000402248
0.000402191
0.00040231
0.000402568
0.000402921
0.000403156
0.000403603
0.000403975
0.00040426
0.000405038
0.000405106
0.000405555
0.000406712
0.000406257
0.000407678
0.000407518
0.000407416
0.000408726
0.000408597
0.00040802
0.000409017
0.000409032
0.000408012
0.000408076
0.00306525
0.000845237
0.000463564
0.000413288
0.000405319
0.000404045
0.000404016
0.000404157
0.000404548
0.000404811
0.000405433
0.000405658
0.000406289
0.000407012
0.000407078
0.000408381
0.000408856
0.000408933
0.000410584
0.000410376
0.000411452
0.000412723
0.000411984
0.000413026
0.000414217
0.000413075
0.000413401
0.000414018
0.000413205
0.00243669
0.000768562
0.000458262
0.000414398
0.000407003
0.000405804
0.000405799
0.000406011
0.000406351
0.000407019
0.000407266
0.000408122
0.000408577
0.000408994
0.000410687
0.000410785
0.000411397
0.000413114
0.000413649
0.000415226
0.000415249
0.000416013
0.000418632
0.000418178
0.000418079
0.000420144
0.000419395
0.00041948
0.000419293
0.00194745
0.000702343
0.000452838
0.000415247
0.000408563
0.000407486
0.000407517
0.00040774
0.000408353
0.000408678
0.000409673
0.000409999
0.000410858
0.000412249
0.00041242
0.000414048
0.000415074
0.00041581
0.000417415
0.00041852
0.00042178
0.000421526
0.000422205
0.000424653
0.000426257
0.000425428
0.000427241
0.000426633
0.000426997
0.00156905
0.000645769
0.000447477
0.000415853
0.000409974
0.000409068
0.000409126
0.000409475
0.000409899
0.000410901
0.000411229
0.00041245
0.000413218
0.000413718
0.000416057
0.000416434
0.000417847
0.000420237
0.00042108
0.000423308
0.000424432
0.000428236
0.000429541
0.000430228
0.000431765
0.000435969
0.000434627
0.000436833
0.000435324
0.00127792
0.000597951
0.000442336
0.000416245
0.000411229
0.000410517
0.000410622
0.000410957
0.000411789
0.000412226
0.000413549
0.000414073
0.00041501
0.000417279
0.000417517
0.000419965
0.000421591
0.000422417
0.000425243
0.000426927
0.000431339
0.000432733
0.000434369
0.000440704
0.0004409
0.000442185
0.000446977
0.000445317
0.000447757
0.00105488
0.000557964
0.000437544
0.000416463
0.000412322
0.000411827
0.000411963
0.000412456
0.000413023
0.000414244
0.000414792
0.000416071
0.000417738
0.000418178
0.000421057
0.000421942
0.000423331
0.000427035
0.000428963
0.000432914
0.00043408
0.000437902
0.000445571
0.000445966
0.000452045
0.000453192
0.00045577
0.000462277
0.000459654
0.000884657
0.000524893
0.000433193
0.000416547
0.000413264
0.000412974
0.000413156
0.000413658
0.000414586
0.000415294
0.000416564
0.000417981
0.000418587
0.000421415
0.000422141
0.000424542
0.000427498
0.000429317
0.000432752
0.000434983
0.000440883
0.000444173
0.000448327
0.000457895
0.000460113
0.000467566
0.000470351
0.000472797
0.000480643
0.000755222
0.00049786
0.00042934
0.000416534
0.000414064
0.000413951
0.000414178
0.000414792
0.000415733
0.000416537
0.00041816
0.000418735
0.000421331
0.000422121
0.000424797
0.000426499
0.000429548
0.000431477
0.000436356
0.000439757
0.0004433
0.000452919
0.000455364
0.000461098
0.000476047
0.000479053
0.000488323
0.000493772
0.000495589
0.000657231
0.000476041
0.000426014
0.000416471
0.000414741
0.000414752
0.000415041
0.000415824
0.000416537
0.000418081
0.000418687
0.000420941
0.000421798
0.000424082
0.000426053
0.000429054
0.000430708
0.000436122
0.000438193
0.000443301
0.000450184
0.000453602
0.00046511
0.000469981
0.000478965
0.000502017
0.000505823
0.000517271
0.00052606
0.000583479
0.000458682
0.000423221
0.000416381
0.000415297
0.000415388
0.000415802
0.00041647
0.000417801
0.000418409
0.000420533
0.000421158
0.000423561
0.00042528
0.000427472
0.000429303
0.000434319
0.000436738
0.00044202
0.000447598
0.000450938
0.000460099
0.000467079
0.000484171
0.000490517
0.000504076
0.000539492
0.000543293
0.000556708
0.000528469
0.000445119
0.000420944
0.000416293
0.000415735
0.000415896
0.000416353
0.00041732
0.00041807
0.000419652
0.000420581
0.000422449
0.000424645
0.000425619
0.000429432
0.00043143
0.000434737
0.000438595
0.000444576
0.000448177
0.000455947
0.000461972
0.000477036
0.000484903
0.00050847
0.000518317
0.000541202
0.000593568
0.000599918
0.000487963
0.000434736
0.000419119
0.000416213
0.00041604
0.00041625
0.000416863
0.000417617
0.000418967
0.000419718
0.000421805
0.00042258
0.000425683
0.00042644
0.000431009
0.000431976
0.000436998
0.000439516
0.000446541
0.000449618
0.000458803
0.000466934
0.000477329
0.000493894
0.000508055
0.000538334
0.00056071
0.000599537
0.000680373
0.000458841
0.000427069
0.000417752
0.000416201
0.000416247
0.000416562
0.000417247
0.000418195
0.000419229
0.000420277
0.000422266
0.000423033
0.000426666
0.000427298
0.000431894
0.000433244
0.000438413
0.00044038
0.000448269
0.00045143
0.000461409
0.000467227
0.000482408
0.000493627
0.000521452
0.000543894
0.000599837
0.00064361
0.000762735
0.000438411
0.000421522
0.000416641
0.000416124
0.000416265
0.00041668
0.000417356
0.000418346
0.000419172
0.000420761
0.000421813
0.000423638
0.000426336
0.000427825
0.000432776
0.000434271
0.00044296
0.000446756
0.000463273
0.000480956
0.000554952
0.000640887
0.0010089
0.0013528
0.00272276
0.00357932
0.00544766
0.00881181
0.00816301
0.000425443
0.000417874
0.000416259
0.00041632
0.000416676
0.000417464
0.000418479
0.000420101
0.00042204
0.000424691
0.000431506
0.000437753
0.000458907
0.000485785
0.000599524
0.000711247
0.00120174
0.00171805
0.0036877
0.0055072
0.0115921
0.0165326
0.0317295
0.0420117
0.072523
0.0900915
0.132142
0.177171
0.184123
0.000416986
0.000417374
0.000420005
0.000426548
0.000439143
0.000462194
0.000501779
0.000580999
0.000706541
0.000923196
0.00151188
0.00202035
0.00371824
0.00533141
0.010505
0.0143573
0.0262654
0.0353408
0.0603045
0.0780746
0.122857
0.154053
0.228636
0.279934
0.401446
0.487442
0.685105
0.849323
1.05222
0.000421725
0.00048118
0.000628364
0.000914068
0.00139066
0.00216778
0.00336232
0.00529293
0.00798337
0.0117121
0.0195157
0.0252351
0.0401876
0.0519372
0.0802562
0.100113
0.145861
0.179076
0.250932
0.303155
0.412245
0.493417
0.660587
0.789649
1.06191
1.28263
1.77021
2.16087
2.93015
0.000990207
0.000990207
0.000990207
0.000990208
0.000990208
0.000990208
0.000990209
0.000990209
0.000990209
0.000990209
0.00099021
0.00099021
0.000990211
0.000990211
0.000990211
0.000990212
0.000990212
0.000990213
0.000990213
0.000990213
0.000990214
0.000990214
0.000990215
0.000990215
0.000990216
0.000990216
0.000990217
0.000990217
0.000990218
0.000990218
0.000990219
0.000990219
0.00099022
0.00099022
0.000990221
0.000990221
0.000990222
0.000990222
0.000990223
0.000990223
0.000990224
0.000990224
0.000990225
0.000990225
0.000990226
0.000990226
0.000990227
0.000990227
0.000990228
0.000990228
0.000990229
0.000990229
0.00099023
0.00099023
0.000990231
0.000990231
0.000990232
0.000990232
0.000990233
0.000990233
0.000990233
0.000990234
0.000990234
0.000990235
0.000990235
0.000990236
0.000990236
0.000990237
0.000990237
0.000990237
0.000990238
0.000990238
0.000990238
0.000990239
0.000990239
0.00099024
0.00099024
0.00099024
0.000990241
0.000990241
0.000990241
0.000990242
0.000990242
0.000990242
0.000990243
0.000990243
0.000990243
0.000990244
0.000990244
0.000990244
0.000990245
0.000990245
0.000990245
0.000990245
0.000990246
0.000990246
0.000990246
0.000990246
0.000990247
0.000990247
0.000990247
0.000990247
0.000990248
0.000990248
0.000990248
0.000990248
0.000990248
0.000990249
0.000990249
0.000990249
0.000990249
0.000990249
0.00099025
0.00099025
0.00099025
0.00099025
0.00099025
0.000990251
0.000990251
0.000990251
0.000990251
0.000990251
0.000990252
0.000990252
0.000990252
0.000990252
0.000990253
0.000990253
0.000990253
0.000990254
0.000990254
0.000990255
0.000990255
0.000990256
0.000990257
0.000990257
0.000990259
0.000990257
0.00100383
3.8431e-005
3.84315e-005
3.84318e-005
3.84322e-005
3.84325e-005
3.84328e-005
3.84332e-005
3.84337e-005
3.8434e-005
3.84345e-005
3.8435e-005
3.84354e-005
3.84358e-005
3.84364e-005
3.84368e-005
3.84373e-005
3.84379e-005
3.84384e-005
3.84389e-005
3.84395e-005
3.84401e-005
3.84406e-005
3.84412e-005
3.84418e-005
3.84424e-005
3.8443e-005
3.84436e-005
3.84442e-005
3.84449e-005
3.84455e-005
3.84461e-005
3.84468e-005
3.84474e-005
3.8448e-005
3.84487e-005
3.84493e-005
3.845e-005
3.84506e-005
3.84513e-005
3.84519e-005
3.84526e-005
3.84532e-005
3.84538e-005
3.84545e-005
3.84552e-005
3.84558e-005
3.84564e-005
3.84571e-005
3.84577e-005
3.84583e-005
3.84589e-005
3.84596e-005
3.84602e-005
3.84608e-005
3.84614e-005
3.8462e-005
3.84626e-005
3.84632e-005
3.84638e-005
3.84643e-005
3.84649e-005
3.84655e-005
3.8466e-005
3.84666e-005
3.84672e-005
3.84677e-005
3.84682e-005
3.84687e-005
3.84693e-005
3.84698e-005
3.84703e-005
3.84708e-005
3.84713e-005
3.84717e-005
3.84722e-005
3.84727e-005
3.84732e-005
3.84736e-005
3.84741e-005
3.84745e-005
3.8475e-005
3.84754e-005
3.84758e-005
3.84762e-005
3.84766e-005
3.8477e-005
3.84774e-005
3.84778e-005
3.84782e-005
3.84786e-005
3.84789e-005
3.84793e-005
3.84796e-005
3.84799e-005
3.84803e-005
3.84806e-005
3.84809e-005
3.84812e-005
3.84815e-005
3.84818e-005
3.84821e-005
3.84825e-005
3.84828e-005
3.8483e-005
3.84833e-005
3.84836e-005
3.84838e-005
3.84841e-005
3.84844e-005
3.84846e-005
3.84849e-005
3.84851e-005
3.84854e-005
3.84856e-005
3.84859e-005
3.84861e-005
3.84864e-005
3.84866e-005
3.84869e-005
3.84871e-005
3.84874e-005
3.84877e-005
3.8488e-005
3.84883e-005
3.84887e-005
3.84891e-005
3.84896e-005
3.849e-005
3.84905e-005
3.8491e-005
3.84916e-005
3.84923e-005
3.8493e-005
3.84938e-005
3.84948e-005
3.84956e-005
3.84974e-005
3.85885e-005
0.000103949
3.73857e-005
3.73837e-005
3.73811e-005
3.73787e-005
3.73761e-005
3.73733e-005
3.73705e-005
3.73675e-005
3.73644e-005
3.73613e-005
3.73581e-005
3.73547e-005
3.73512e-005
3.73478e-005
3.73441e-005
3.73405e-005
3.73368e-005
3.73329e-005
3.73291e-005
3.73253e-005
3.73214e-005
3.73172e-005
3.73132e-005
3.73091e-005
3.73049e-005
3.73008e-005
3.72966e-005
3.72922e-005
3.7288e-005
3.72837e-005
3.72793e-005
3.7275e-005
3.72707e-005
3.72663e-005
3.72619e-005
3.72575e-005
3.72532e-005
3.72487e-005
3.72445e-005
3.724e-005
3.72357e-005
3.72312e-005
3.7227e-005
3.72225e-005
3.72183e-005
3.72138e-005
3.72096e-005
3.72053e-005
3.72012e-005
3.71969e-005
3.71928e-005
3.71887e-005
3.71847e-005
3.71806e-005
3.71765e-005
3.71726e-005
3.71686e-005
3.71648e-005
3.71608e-005
3.71569e-005
3.71532e-005
3.71495e-005
3.71458e-005
3.71422e-005
3.71386e-005
3.7135e-005
3.71313e-005
3.7128e-005
3.71245e-005
3.71212e-005
3.7118e-005
3.71146e-005
3.71114e-005
3.71082e-005
3.7105e-005
3.7102e-005
3.7099e-005
3.70961e-005
3.70932e-005
3.70903e-005
3.70874e-005
3.70846e-005
3.70819e-005
3.70791e-005
3.70765e-005
3.70739e-005
3.70716e-005
3.70691e-005
3.70667e-005
3.70643e-005
3.70619e-005
3.70595e-005
3.70574e-005
3.70551e-005
3.7053e-005
3.70509e-005
3.70489e-005
3.70469e-005
3.70449e-005
3.7043e-005
3.70412e-005
3.70394e-005
3.70377e-005
3.70359e-005
3.70342e-005
3.70325e-005
3.70308e-005
3.70292e-005
3.70277e-005
3.70262e-005
3.70247e-005
3.70233e-005
3.70218e-005
3.70203e-005
3.7019e-005
3.70176e-005
3.70163e-005
3.7015e-005
3.70137e-005
3.70123e-005
3.70112e-005
3.70099e-005
3.70088e-005
3.70075e-005
3.70063e-005
3.70054e-005
3.70044e-005
3.70033e-005
3.70021e-005
3.70011e-005
3.69999e-005
3.69989e-005
3.69978e-005
3.69969e-005
3.69958e-005
3.69949e-005
3.70018e-005
5.28705e-005
0.00463654
0.000174504
0.000174489
0.000174473
0.000174456
0.00017444
0.000174422
0.000174403
0.000174384
0.000174363
0.000174343
0.000174322
0.000174299
0.000174277
0.000174254
0.00017423
0.000174206
0.000174182
0.000174156
0.000174131
0.000174105
0.00017408
0.000174053
0.000174026
0.000173998
0.00017397
0.000173943
0.000173915
0.000173887
0.000173859
0.00017383
0.000173802
0.000173773
0.000173744
0.000173715
0.000173686
0.000173656
0.000173628
0.000173598
0.000173569
0.000173541
0.000173511
0.000173482
0.000173453
0.000173424
0.000173396
0.000173367
0.000173338
0.00017331
0.000173281
0.000173254
0.000173226
0.000173199
0.000173171
0.000173144
0.000173118
0.000173091
0.000173065
0.000173039
0.000173013
0.000172988
0.000172962
0.000172938
0.000172913
0.000172889
0.000172865
0.000172841
0.000172817
0.000172794
0.000172772
0.00017275
0.000172728
0.000172706
0.000172685
0.000172663
0.000172642
0.000172622
0.000172602
0.000172583
0.000172563
0.000172544
0.000172525
0.000172507
0.000172489
0.00017247
0.000172453
0.000172436
0.000172419
0.000172403
0.000172387
0.000172371
0.000172356
0.00017234
0.000172326
0.000172311
0.000172297
0.000172283
0.000172269
0.000172256
0.000172242
0.00017223
0.000172218
0.000172206
0.000172193
0.000172182
0.00017217
0.00017216
0.000172148
0.000172138
0.000172127
0.000172117
0.000172107
0.000172098
0.000172088
0.000172079
0.00017207
0.000172061
0.000172052
0.000172043
0.000172035
0.000172026
0.000172018
0.00017201
0.000172002
0.000171995
0.000171986
0.000171979
0.000171971
0.000171963
0.000171954
0.000171946
0.000171938
0.00017193
0.000171921
0.000171912
0.000171903
0.000171894
0.000171985
0.000358724
0.0236114
0.000325269
0.000325258
0.000325247
0.000325237
0.000325226
0.000325214
0.000325202
0.00032519
0.000325178
0.000325163
0.00032515
0.000325137
0.000325122
0.000325108
0.000325092
0.000325077
0.000325061
0.000325046
0.000325029
0.000325012
0.000324996
0.000324979
0.000324961
0.000324944
0.000324927
0.00032491
0.000324892
0.000324874
0.000324855
0.000324838
0.000324819
0.000324802
0.000324782
0.000324765
0.000324745
0.000324727
0.000324709
0.00032469
0.000324673
0.000324651
0.000324634
0.000324617
0.000324598
0.00032458
0.000324561
0.000324543
0.000324526
0.000324508
0.00032449
0.000324473
0.000324455
0.000324437
0.000324422
0.000324404
0.000324387
0.00032437
0.000324352
0.000324338
0.000324322
0.000324304
0.000324289
0.000324274
0.00032426
0.000324243
0.000324229
0.000324213
0.000324199
0.000324185
0.000324171
0.000324156
0.000324143
0.000324129
0.000324115
0.000324103
0.000324089
0.000324077
0.000324065
0.000324052
0.00032404
0.000324028
0.000324016
0.000324004
0.000323993
0.000323981
0.000323971
0.000323961
0.000323951
0.00032394
0.000323931
0.000323921
0.000323911
0.000323901
0.000323892
0.000323882
0.000323874
0.000323864
0.000323857
0.000323848
0.000323841
0.000323832
0.000323825
0.000323817
0.000323812
0.000323803
0.000323798
0.000323789
0.000323783
0.000323776
0.000323771
0.000323765
0.000323759
0.000323752
0.000323746
0.00032374
0.000323735
0.00032373
0.000323726
0.00032372
0.000323715
0.000323711
0.000323705
0.0003237
0.000323696
0.00032369
0.000323686
0.000323681
0.000323679
0.000323674
0.000323669
0.000323666
0.00032366
0.000323656
0.000323652
0.000323649
0.000323643
0.000323637
0.000323938
0.000708976
0.0360514
0.000370804
0.0003708
0.000370797
0.000370791
0.000370787
0.000370783
0.000370778
0.000370773
0.000370767
0.000370762
0.000370757
0.00037075
0.000370745
0.000370739
0.000370732
0.000370726
0.000370721
0.000370711
0.000370706
0.000370702
0.000370694
0.000370686