/*--------------------------------*- C++ -*----------------------------------*\
| =========                 |                                                 |
| \\      /  F ield         | OpenFOAM: The Open Source CFD Toolbox           |
|  \\    /   O peration     | Version:  5.x                                   |
|   \\  /    A nd           | Web:      www.OpenFOAM.org                      |
|    \\/     M anipulation  |                                                 |
\*---------------------------------------------------------------------------*/
/*   Windows 32 and 64 bit porting by blueCAPE: http://www.bluecape.com.pt   *\
|  Based on Windows porting (2.0.x v4) by Symscape: http://www.symscape.com   |
\*---------------------------------------------------------------------------*/
FoamFile
{
    version     2.0;
    format      ascii;
    class       volScalarField;
    location    "30";
    object      nut;
}
// * * * * * * * * * * * * * * * * * * * * * * * * * * * * * * * * * * * * * //

dimensions      [0 2 -1 0 0 0 0];

internalField   nonuniform List<scalar> 
43900
(
5.69964e-005
5.80554e-005
5.80664e-005
5.80663e-005
5.80664e-005
5.80664e-005
5.80663e-005
5.80663e-005
5.80663e-005
5.80663e-005
5.80663e-005
5.80663e-005
5.80663e-005
5.80663e-005
5.80663e-005
5.80663e-005
5.80663e-005
5.80663e-005
5.80663e-005
5.80663e-005
5.80663e-005
5.80663e-005
5.80663e-005
5.80663e-005
5.80663e-005
5.80663e-005
5.80663e-005
5.80664e-005
5.80664e-005
0.00032785
4.68981e-006
4.1877e-006
4.18663e-006
4.18664e-006
4.18664e-006
4.18659e-006
4.18656e-006
4.18653e-006
4.1865e-006
4.18647e-006
4.18645e-006
4.18644e-006
4.18644e-006
4.18643e-006
4.18642e-006
4.18642e-006
4.18641e-006
4.18641e-006
4.18641e-006
4.18641e-006
4.18643e-006
4.18645e-006
4.18647e-006
4.18648e-006
4.18683e-006
4.18684e-006
4.18685e-006
4.18685e-006
0.0226442
0.000684563
2.49159e-005
2.32908e-005
2.32883e-005
2.32892e-005
2.32896e-005
2.329e-005
2.32903e-005
2.32904e-005
2.32905e-005
2.32905e-005
2.32903e-005
2.32904e-005
2.32902e-005
2.32898e-005
2.32894e-005
2.32889e-005
2.32882e-005
2.32875e-005
2.32867e-005
2.32853e-005
2.32844e-005
2.32834e-005
2.32823e-005
2.32788e-005
2.32775e-005
2.3276e-005
2.32742e-005
0.0682549
0.00492022
0.000347233
0.00034088
0.000340882
0.000340902
0.000340919
0.000340934
0.000340946
0.000340955
0.000340962
0.000340965
0.000340968
0.000340969
0.000340967
0.000340963
0.000340958
0.00034095
0.000340941
0.000340927
0.000340915
0.000340899
0.000340883
0.000340862
0.000340841
0.000340816
0.000340788
0.000340758
0.00034073
0.0851236
0.00770475
0.000777249
0.000797082
0.000797103
0.000797113
0.000797121
0.000797127
0.000797133
0.000797136
0.000797135
0.000797138
0.000797136
0.000797136
0.000797131
0.000797129
0.00079712
0.000797115
0.000797105
0.000797097
0.000797083
0.000797079
0.000797065
0.00079705
0.000797031
0.000797008
0.000796982
0.000796957
0.000796935
0.0897988
0.00858416
0.000909716
0.000938696
0.000938721
0.00093872
0.000938718
0.000938721
0.000938719
0.00093872
0.000938723
0.000938716
0.000938719
0.000938714
0.000938714
0.000938704
0.000938707
0.000938702
0.000938699
0.000938688
0.000938688
0.00093868
0.000938678
0.000938666
0.000938663
0.000938654
0.000938645
0.000938633
0.000938624
0.090015
0.00867384
0.000941085
0.000972313
0.000972328
0.000972327
0.000972333
0.000972327
0.000972332
0.000972326
0.000972327
0.00097233
0.000972324
0.000972322
0.000972323
0.000972328
0.00097232
0.000972317
0.000972317
0.000972319
0.000972313
0.000972314
0.000972311
0.000972312
0.000972304
0.000972302
0.000972299
0.000972301
0.000972292
0.0893167
0.00859079
0.000947736
0.000979139
0.000979158
0.000979165
0.000979164
0.000979164
0.000979163
0.000979164
0.000979158
0.000979162
0.000979157
0.000979162
0.000979157
0.000979162
0.000979152
0.000979154
0.000979155
0.000979159
0.000979151
0.000979157
0.000979149
0.000979157
0.000979147
0.000979149
0.000979145
0.000979148
0.000979146
0.0877519
0.00836294
0.000948434
0.00098035
0.000980382
0.000980402
0.000980385
0.000980402
0.000980386
0.000980402
0.000980383
0.000980384
0.000980382
0.000980401
0.000980384
0.000980381
0.000980386
0.000980382
0.000980383
0.000980385
0.000980389
0.000980386
0.000980374
0.000980381
0.000980383
0.000980387
0.000980381
0.000980378
0.000980387
0.0863219
0.00815775
0.000947528
0.00098054
0.000980587
0.000980609
0.00098059
0.000980608
0.000980591
0.000980608
0.000980587
0.000980588
0.000980587
0.000980607
0.000980585
0.000980568
0.000980585
0.000980588
0.000980587
0.000980588
0.000980587
0.000980587
0.00098058
0.000980584
0.000980581
0.000980599
0.00098058
0.000980568
0.000980587
0.0847832
0.00794741
0.000946165
0.000980565
0.000980631
0.000980646
0.000980634
0.000980645
0.000980634
0.000980645
0.000980634
0.000980633
0.000980631
0.000980644
0.000980637
0.000980601
0.000980614
0.000980632
0.000980632
0.000980632
0.000980615
0.00098063
0.000980627
0.00098063
0.000980603
0.000980636
0.000980611
0.000980613
0.000980617
0.0831076
0.0077242
0.000944725
0.000980559
0.000980651
0.000980655
0.000980652
0.000980657
0.000980651
0.000980655
0.000980652
0.000980651
0.000980648
0.000980654
0.000980644
0.000980627
0.000980623
0.000980647
0.000980649
0.000980649
0.000980623
0.000980647
0.000980647
0.000980646
0.000980606
0.000980647
0.000980635
0.000980622
0.00098062
0.0812941
0.00748907
0.000943111
0.000980542
0.000980667
0.000980664
0.000980664
0.000980663
0.000980663
0.000980663
0.000980661
0.000980664
0.000980656
0.00098066
0.000980645
0.000980648
0.000980641
0.000980661
0.000980661
0.000980661
0.000980632
0.000980659
0.000980661
0.000980659
0.000980615
0.000980653
0.000980653
0.000980625
0.000980632
0.0793329
0.00724232
0.000941346
0.000980518
0.000980676
0.000980675
0.000980673
0.000980673
0.000980671
0.000980675
0.000980675
0.000980674
0.000980668
0.000980672
0.000980654
0.000980663
0.000980663
0.000980675
0.000980675
0.000980673
0.00098065
0.000980671
0.000980671
0.000980672
0.000980642
0.000980668
0.000980668
0.00098063
0.000980654
0.0772157
0.00698443
0.000939444
0.000980488
0.000980687
0.00098069
0.000980691
0.000980691
0.000980691
0.000980692
0.000980692
0.000980689
0.000980689
0.000980688
0.000980682
0.000980685
0.000980683
0.00098069
0.00098069
0.000980688
0.000980667
0.000980688
0.000980688
0.000980686
0.000980671
0.000980684
0.000980684
0.000980647
0.000980679
0.0749369
0.00671633
0.000937444
0.000980453
0.000980704
0.000980709
0.000980706
0.000980713
0.000980712
0.000980711
0.000980711
0.00098071
0.00098071
0.000980713
0.000980713
0.000980712
0.000980697
0.000980707
0.000980707
0.000980706
0.000980686
0.000980703
0.000980704
0.000980704
0.000980679
0.000980695
0.000980694
0.000980675
0.000980697
0.0724934
0.00643943
0.000935394
0.00098041
0.000980731
0.000980733
0.000980731
0.000980733
0.000980734
0.000980734
0.000980735
0.000980736
0.000980736
0.000980737
0.000980735
0.000980732
0.000980721
0.000980733
0.000980733
0.00098073
0.000980716
0.000980716
0.000980715
0.000980713
0.000980679
0.000980702
0.000980704
0.000980712
0.000980719
0.0698845
0.00615551
0.000933352
0.000980358
0.000980776
0.000980771
0.000980774
0.000980774
0.000980778
0.000980777
0.000980775
0.000980779
0.000980777
0.000980761
0.000980765
0.000980763
0.000980753
0.000980765
0.000980766
0.000980765
0.000980741
0.000980747
0.000980745
0.000980748
0.000980719
0.000980739
0.000980746
0.000980742
0.000980743
0.0671126
0.00586676
0.000931385
0.0009803
0.000980825
0.000980827
0.000980828
0.000980828
0.000980828
0.000980827
0.000980833
0.000980832
0.000980827
0.000980809
0.000980815
0.000980816
0.000980796
0.000980801
0.000980802
0.000980801
0.000980768
0.000980791
0.000980791
0.000980802
0.000980805
0.000980808
0.000980803
0.000980757
0.000980763
0.0641832
0.0055756
0.000929576
0.000980234
0.000980886
0.000980899
0.000980898
0.00098089
0.000980891
0.000980892
0.00098089
0.00098088
0.000980876
0.000980873
0.000980872
0.000980868
0.000980852
0.000980855
0.000980858
0.000980857
0.000980836
0.000980865
0.000980867
0.000980871
0.000980867
0.000980859
0.00098085
0.000980825
0.000980811
0.0611054
0.00528473
0.000928014
0.000980161
0.000980975
0.000980979
0.000980978
0.000980979
0.00098098
0.000980978
0.000980966
0.000980965
0.000980966
0.000980966
0.00098096
0.000980933
0.000980932
0.000980935
0.000980942
0.000980944
0.000980935
0.000980948
0.00098095
0.00098095
0.000980905
0.000980905
0.000980904
0.000980897
0.00098088
0.0578923
0.00499699
0.000926804
0.000980084
0.000981094
0.000981093
0.000981103
0.000981097
0.000981096
0.000981093
0.000981091
0.000981092
0.00098109
0.000981083
0.000981069
0.000981038
0.00098105
0.000981056
0.000981062
0.000981061
0.000981055
0.000981041
0.000981027
0.000981004
0.000980975
0.000980989
0.000980994
0.000980992
0.000980983
0.054561
0.0047152
0.000926065
0.000980007
0.000981251
0.000981261
0.000981258
0.00098125
0.000981251
0.000981251
0.000981244
0.000981221
0.000981217
0.000981215
0.000981211
0.000981196
0.000981203
0.000981206
0.000981209
0.000981209
0.000981205
0.000981185
0.000981163
0.000981131
0.000981112
0.000981115
0.000981117
0.000981114
0.000981108
0.0511331
0.00444214
0.000925928
0.00097994
0.00098145
0.000981465
0.000981448
0.000981447
0.000981445
0.00098143
0.000981429
0.000981429
0.000981429
0.000981426
0.000981414
0.000981376
0.000981388
0.000981393
0.000981393
0.000981384
0.000981373
0.000981349
0.000981334
0.000981306
0.000981298
0.000981296
0.000981296
0.000981292
0.000981282
0.0476339
0.00418026
0.000926542
0.000979898
0.000981696
0.000981725
0.000981708
0.000981698
0.000981692
0.000981685
0.000981686
0.000981681
0.00098167
0.000981661
0.00098164
0.000981587
0.000981601
0.000981611
0.000981615
0.000981617
0.000981613
0.000981609
0.000981593
0.000981574
0.000981564
0.000981557
0.000981531
0.000981509
0.000981486
0.0440926
0.0039316
0.000928069
0.000979897
0.000982024
0.000982067
0.000982023
0.000982001
0.000982001
0.000981994
0.000981966
0.00098195
0.000981954
0.000981959
0.000981957
0.00098193
0.000981946
0.000981948
0.000981944
0.000981927
0.000981923
0.000981906
0.000981888
0.000981876
0.000981848
0.000981819
0.000981787
0.000981754
0.00098173
0.0405414
0.00369771
0.000930679
0.000979976
0.00098242
0.000982474
0.000982393
0.000982395
0.000982396
0.000982392
0.000982379
0.000982392
0.000982403
0.000982401
0.000982396
0.000982369
0.000982353
0.000982338
0.00098232
0.000982304
0.00098228
0.000982254
0.000982221
0.000982173
0.000982136
0.000982114
0.000982109
0.00098209
0.000982077
0.0370148
0.00347951
0.00093454
0.000980167
0.000982917
0.00098299
0.000982903
0.000982936
0.000982943
0.000982952
0.000982948
0.000982921
0.000982905
0.00098289
0.000982888
0.000982873
0.000982861
0.000982838
0.000982801
0.000982767
0.000982714
0.000982677
0.000982647
0.000982643
0.00098263
0.000982581
0.000982531
0.000982492
0.000982454
0.0335487
0.00327726
0.000939811
0.000980533
0.000983536
0.000983634
0.000983581
0.0009836
0.000983604
0.000983587
0.000983568
0.000983516
0.000983498
0.000983501
0.000983499
0.000983504
0.000983488
0.000983477
0.000983458
0.000983402
0.00098336
0.00098331
0.000983262
0.000983206
0.000983152
0.000983101
0.000983055
0.000982989
0.000982953
0.0301786
0.0030906
0.000946605
0.000981139
0.000984295
0.000984398
0.000984366
0.000984333
0.000984311
0.000984313
0.000984311
0.000984287
0.000984287
0.000984269
0.000984255
0.000984203
0.000984175
0.000984155
0.00098412
0.00098408
0.000984025
0.000983967
0.000983911
0.000983798
0.00098377
0.00098371
0.000983637
0.000983628
0.000983564
0.0269388
0.00291864
0.000954991
0.00098205
0.000985234
0.000985346
0.000985339
0.000985276
0.000985269
0.000985244
0.000985233
0.000985209
0.000985192
0.000985185
0.000985162
0.000985162
0.000985112
0.000985023
0.000984961
0.000984917
0.000984866
0.000984825
0.000984744
0.000984719
0.000984591
0.000984491
0.000984513
0.000984386
0.000984324
0.0238606
0.00276009
0.000964945
0.000983364
0.000986359
0.000986505
0.000986475
0.000986433
0.000986405
0.000986388
0.000986352
0.000986343
0.000986329
0.000986299
0.000986293
0.000986233
0.000986197
0.000986163
0.000986088
0.000986065
0.000986003
0.000985854
0.000985882
0.000985728
0.000985657
0.000985643
0.000985369
0.000985405
0.000985313
0.0209711
0.00261341
0.000976463
0.000985163
0.000987698
0.000987767
0.000987758
0.000987709
0.000987595
0.000987599
0.000987611
0.000987617
0.00098763
0.000987619
0.00098759
0.00098756
0.000987539
0.000987476
0.00098747
0.000987366
0.000987268
0.000987244
0.000986942
0.000987005
0.000986913
0.000986598
0.00098677
0.000986453
0.000986364
0.0182922
0.002477
0.000989283
0.000987491
0.000989286
0.000989261
0.000989274
0.000989252
0.00098917
0.000989143
0.000989132
0.000989087
0.000989101
0.000989104
0.000989104
0.0009891
0.00098908
0.000989075
0.000988926
0.000988909
0.000988873
0.00098858
0.000988692
0.000988327
0.000988159
0.000988355
0.000987852
0.000987997
0.000987848
0.0158394
0.00234941
0.00100251
0.000990393
0.000991115
0.000991103
0.000991044
0.000991042
0.000991015
0.000991036
0.00099104
0.000991017
0.00099099
0.000991003
0.000990982
0.000990971
0.000990982
0.000990885
0.000990944
0.00099079
0.000990619
0.0009908
0.000990324
0.000990474
0.000990451
0.000989729
0.000989949
0.000989418
0.000989236
0.0136218
0.00222941
0.00101641
0.000993855
0.000993246
0.000993178
0.000993037
0.000993024
0.000993055
0.000993117
0.000993188
0.000993194
0.000993254
0.000993213
0.000993246
0.000993224
0.00099312
0.000993187
0.000992937
0.000992988
0.000993078
0.000992653
0.000992991
0.00099262
0.000992148
0.000992432
0.000991764
0.00099181
0.00099148
0.011642
0.00211611
0.00102989
0.000997777
0.000995734
0.000995408
0.000995226
0.000995214
0.000995285
0.000995391
0.000995485
0.000995621
0.000995628
0.000995782
0.000995739
0.000995806
0.000995856
0.000995596
0.000995814
0.000995649
0.000995346
0.000995653
0.00099515
0.000995327
0.000995331
0.000994509
0.000994695
0.000993969
0.000993977
0.00989601
0.00200892
0.00104317
0.00100206
0.000998492
0.000997816
0.000997625
0.000997625
0.000997735
0.000997863
0.000998052
0.00099811
0.000998386
0.000998376
0.000998629
0.000998684
0.00099864
0.00099901
0.000998599
0.000998896
0.000998819
0.000998213
0.000998802
0.000998256
0.000998127
0.000998219
0.000997346
0.000997668
0.000996955
0.00837469
0.00190752
0.00105538
0.00100663
0.00100141
0.00100042
0.00100024
0.00100026
0.0010004
0.0010006
0.00100074
0.00100105
0.0010011
0.00100152
0.00100154
0.00100171
0.00100217
0.00100192
0.00100265
0.00100208
0.00100231
0.001003
0.00100175
0.00100247
0.00100229
0.00100136
0.00100178
0.00100083
0.00100068
0.0070643
0.0018118
0.00106553
0.00101131
0.00100443
0.00100317
0.00100303
0.00100307
0.00100326
0.0010035
0.00100381
0.00100396
0.00100446
0.00100454
0.00100498
0.00100526
0.00100534
0.0010062
0.0010057
0.00100687
0.00100683
0.00100598
0.00100735
0.00100636
0.00100629
0.00100688
0.00100582
0.00100555
0.00100545
0.00594793
0.00172179
0.00107346
0.00101588
0.00100754
0.00100605
0.00100593
0.001006
0.00100627
0.00100659
0.00100694
0.00100737
0.00100762
0.0010083
0.00100851
0.00100901
0.00100966
0.00100958
0.00101106
0.00101037
0.0010109
0.00101239
0.00101131
0.00101197
0.00101251
0.00101132
0.00101148
0.00101149
0.00101009
0.00500656
0.0016375
0.00107891
0.0010201
0.00101067
0.00100899
0.00100889
0.001009
0.00100934
0.00100984
0.00101016
0.0010108
0.00101132
0.00101172
0.00101283
0.00101292
0.00101353
0.0010152
0.00101455
0.00101662
0.00101642
0.00101629
0.00101821
0.00101803
0.00101715
0.00101853
0.00101849
0.00101692
0.00101687
0.00422027
0.0015589
0.00108182
0.00102383
0.00101376
0.00101194
0.00101186
0.001012
0.00101252
0.0010129
0.0010138
0.00101411
0.00101501
0.00101604
0.00101613
0.00101798
0.00101869
0.00101875
0.00102113
0.00102086
0.00102237
0.0010242
0.00102315
0.00102463
0.00102641
0.00102469
0.00102511
0.00102583
0.00102464
0.00356921
0.00148594
0.0010823
0.00102695
0.0010167
0.00101483
0.00101478
0.001015
0.00101547
0.00101644
0.0010168
0.00101803
0.00101868
0.00101927
0.00102171
0.00102185
0.00102267
0.00102519
0.00102596
0.00102815
0.00102821
0.00102932
0.00103309
0.00103243
0.00103223
0.00103516
0.00103413
0.00103411
0.00103375
0.00303437
0.00141858
0.00108064
0.00102941
0.00101943
0.00101762
0.00101761
0.00101784
0.00101869
0.00101917
0.00102063
0.00102111
0.00102234
0.00102437
0.00102458
0.00102691
0.00102844
0.00102948
0.00103174
0.00103333
0.001038
0.00103767
0.00103856
0.00104195
0.00104432
0.00104306
0.00104556
0.00104475
0.00104514
0.00259818
0.0013568
0.00107723
0.00103122
0.00102189
0.00102025
0.00102027
0.00102066
0.00102126
0.00102274
0.00102323
0.00102501
0.00102614
0.00102684
0.00103029
0.00103084
0.0010328
0.00103627
0.00103746
0.00104063
0.0010422
0.00104752
0.00104956
0.00105031
0.00105246
0.00105846
0.00105662
0.0010595
0.00105737
0.00224483
0.00130065
0.00107257
0.00103243
0.00102405
0.00102266
0.00102275
0.00102313
0.0010243
0.00102497
0.00102693
0.00102771
0.00102908
0.00103243
0.00103277
0.00103629
0.00103868
0.00103982
0.00104385
0.00104628
0.00105263
0.00105455
0.00105675
0.00106569
0.00106603
0.00106772
0.0010741
0.00107176
0.00107515
0.00196044
0.0012502
0.00106712
0.00103314
0.00102592
0.00102485
0.00102498
0.00102557
0.00102639
0.00102821
0.00102904
0.00103093
0.00103339
0.00103404
0.00103825
0.00103955
0.00104156
0.00104702
0.00104973
0.00105527
0.00105694
0.00106243
0.00107303
0.00107362
0.00108192
0.00108367
0.00108716
0.001096
0.00109235
0.00173304
0.00120554
0.00106137
0.00103346
0.0010275
0.00102678
0.00102698
0.00102756
0.00102895
0.00103
0.00103192
0.00103401
0.0010349
0.00103908
0.00104018
0.00104373
0.00104801
0.00105061
0.00105561
0.00105876
0.00106718
0.00107182
0.00107751
0.00109091
0.0010938
0.00110355
0.00110822
0.00111104
0.00112093
0.00155253
0.00116668
0.00105566
0.00103348
0.00102882
0.00102845
0.00102868
0.00102944
0.00103085
0.00103209
0.00103448
0.00103535
0.00103923
0.00104042
0.0010444
0.00104684
0.00105132
0.00105417
0.00106114
0.00106619
0.0010711
0.00108456
0.00108813
0.001096
0.00111654
0.0011202
0.00113139
0.00114161
0.00114262
0.00141043
0.00113355
0.00105033
0.00103334
0.00102993
0.00102982
0.00103011
0.00103115
0.00103225
0.00103457
0.00103547
0.00103884
0.00104015
0.00104358
0.00104641
0.00105095
0.00105335
0.00106121
0.00106418
0.00107151
0.0010813
0.00108613
0.00110201
0.001109
0.00112106
0.00115239
0.00115648
0.00116834
0.00118625
0.00129974
0.00110591
0.00104558
0.00103311
0.00103085
0.00103088
0.00103134
0.00103231
0.0010343
0.00103523
0.00103843
0.00103939
0.00104295
0.00104553
0.00104879
0.00105152
0.00105892
0.00106243
0.00107015
0.00107811
0.00108286
0.00109585
0.00110543
0.00112873
0.00113737
0.0011555
0.00120288
0.00120524
0.00121806
0.00121468
0.00108346
0.00104155
0.00103287
0.00103157
0.00103173
0.00103227
0.0010337
0.00103483
0.00103724
0.00103865
0.0010415
0.00104473
0.00104623
0.0010519
0.00105493
0.0010597
0.00106549
0.00107399
0.0010792
0.00109059
0.00109899
0.00111991
0.0011306
0.00116217
0.00117511
0.00120474
0.00127733
0.00126564
0.00115049
0.00106573
0.00103821
0.00103262
0.00103209
0.00103233
0.00103309
0.00103424
0.00103631
0.00103745
0.00104057
0.00104181
0.00104642
0.00104765
0.00105433
0.00105588
0.00106316
0.00106692
0.00107708
0.00108158
0.00109456
0.0011066
0.00112032
0.00114436
0.00116283
0.00120243
0.00123566
0.0012747
0.0014148
0.00110341
0.00105231
0.00103564
0.0010325
0.00103245
0.00103279
0.00103376
0.00103521
0.00103679
0.00103839
0.0010414
0.00104259
0.00104794
0.00104902
0.00105578
0.00105797
0.00106554
0.00106847
0.00107978
0.00108437
0.00109835
0.00110627
0.00112583
0.00113903
0.00116812
0.00118509
0.00124252
0.00124944
0.00136139
0.00106991
0.00104248
0.00103353
0.00103233
0.00103248
0.00103299
0.00103401
0.00103552
0.0010368
0.00103919
0.00104087
0.00104353
0.00104759
0.00104971
0.00105649
0.00105803
0.00106746
0.00106767
0.0010673
0.00105125
0.00101285
0.000973771
0.00108726
0.00122562
0.00196356
0.00231874
0.00303621
0.00439604
0.00363644
0.0010483
0.00103574
0.00103274
0.00103277
0.00103334
0.00103465
0.00103633
0.00103892
0.00104127
0.00104357
0.0010481
0.00104724
0.00104132
0.00102495
0.00101823
0.00102585
0.00129659
0.00159664
0.00288154
0.00391139
0.00735916
0.00969236
0.0168095
0.0205859
0.0318774
0.0363598
0.0463038
0.0591778
0.0489286
0.00103446
0.00103575
0.00104115
0.00105355
0.00107356
0.00110149
0.00112941
0.00118592
0.00123365
0.00135402
0.00178923
0.00209601
0.00326463
0.0042379
0.00739999
0.0093221
0.0153307
0.0191586
0.0296013
0.0356937
0.0507999
0.0593484
0.0795216
0.0904729
0.116276
0.1299
0.159951
0.1845
0.186636
0.00104149
0.00112584
0.00132803
0.00168599
0.00218133
0.00288769
0.00381322
0.0052085
0.0067178
0.00883349
0.012858
0.0150998
0.0212727
0.0254324
0.0353615
0.0410575
0.0540982
0.0621889
0.0794261
0.090046
0.111708
0.125402
0.152963
0.170711
0.207101
0.230659
0.280713
0.311052
0.352439
5.80664e-005
5.80664e-005
5.80664e-005
5.80664e-005
5.80665e-005
5.80665e-005
5.80665e-005
5.80665e-005
5.80666e-005
5.80666e-005
5.80666e-005
5.80666e-005
5.80667e-005
5.80667e-005
5.80667e-005
5.80668e-005
5.80668e-005
5.80668e-005
5.80669e-005
5.80669e-005
5.80669e-005
5.8067e-005
5.8067e-005
5.8067e-005
5.80671e-005
5.80671e-005
5.80671e-005
5.80672e-005
5.80672e-005
5.80673e-005
5.80673e-005
5.80673e-005
5.80674e-005
5.80674e-005
5.80674e-005
5.80675e-005
5.80675e-005
5.80676e-005
5.80676e-005
5.80676e-005
5.80677e-005
5.80677e-005
5.80678e-005
5.80678e-005
5.80678e-005
5.80679e-005
5.80679e-005
5.8068e-005
5.8068e-005
5.8068e-005
5.80681e-005
5.80681e-005
5.80681e-005
5.80682e-005
5.80682e-005
5.80683e-005
5.80683e-005
5.80683e-005
5.80684e-005
5.80684e-005
5.80684e-005
5.80685e-005
5.80685e-005
5.80685e-005
5.80686e-005
5.80686e-005
5.80686e-005
5.80687e-005
5.80687e-005
5.80687e-005
5.80688e-005
5.80688e-005
5.80688e-005
5.80688e-005
5.80689e-005
5.80689e-005
5.80689e-005
5.8069e-005
5.8069e-005
5.8069e-005
5.8069e-005
5.80691e-005
5.80691e-005
5.80691e-005
5.80691e-005
5.80692e-005
5.80692e-005
5.80692e-005
5.80692e-005
5.80693e-005
5.80693e-005
5.80693e-005
5.80693e-005
5.80693e-005
5.80694e-005
5.80694e-005
5.80694e-005
5.80694e-005
5.80694e-005
5.80695e-005
5.80695e-005
5.80695e-005
5.80695e-005
5.80695e-005
5.80695e-005
5.80696e-005
5.80696e-005
5.80696e-005
5.80696e-005
5.80696e-005
5.80696e-005
5.80697e-005
5.80697e-005
5.80697e-005
5.80697e-005
5.80697e-005
5.80697e-005
5.80697e-005
5.80698e-005
5.80698e-005
5.80698e-005
5.80698e-005
5.80698e-005
5.80698e-005
5.80699e-005
5.80699e-005
5.80699e-005
5.80699e-005
5.807e-005
5.807e-005
5.807e-005
5.80701e-005
5.80701e-005
5.80702e-005
5.80702e-005
5.80703e-005
5.80704e-005
5.80702e-005
5.89629e-005
4.18688e-006
4.18693e-006
4.18696e-006
4.187e-006
4.18703e-006
4.18706e-006
4.18711e-006
4.18715e-006
4.18719e-006
4.18724e-006
4.18729e-006
4.18733e-006
4.18738e-006
4.18744e-006
4.18748e-006
4.18754e-006
4.1876e-006
4.18765e-006
4.1877e-006
4.18777e-006
4.18782e-006
4.18788e-006
4.18794e-006
4.188e-006
4.18806e-006
4.18813e-006
4.18819e-006
4.18825e-006
4.18832e-006
4.18839e-006
4.18845e-006
4.18852e-006
4.18859e-006
4.18865e-006
4.18872e-006
4.18878e-006
4.18885e-006
4.18892e-006
4.18899e-006
4.18905e-006
4.18912e-006
4.18919e-006
4.18926e-006
4.18932e-006
4.18939e-006
4.18945e-006
4.18952e-006
4.18959e-006
4.18966e-006
4.18972e-006
4.18978e-006
4.18985e-006
4.18992e-006
4.18998e-006
4.19004e-006
4.1901e-006
4.19016e-006
4.19023e-006
4.19029e-006
4.19035e-006
4.1904e-006
4.19046e-006
4.19052e-006
4.19058e-006
4.19064e-006
4.19069e-006
4.19075e-006
4.1908e-006
4.19086e-006
4.19091e-006
4.19097e-006
4.19102e-006
4.19107e-006
4.19112e-006
4.19116e-006
4.19121e-006
4.19126e-006
4.19131e-006
4.19136e-006
4.19141e-006
4.19145e-006
4.19149e-006
4.19154e-006
4.19158e-006
4.19162e-006
4.19166e-006
4.19171e-006
4.19175e-006
4.19179e-006
4.19183e-006
4.19186e-006
4.1919e-006
4.19194e-006
4.19197e-006
4.192e-006
4.19204e-006
4.19207e-006
4.1921e-006
4.19213e-006
4.19216e-006
4.1922e-006
4.19223e-006
4.19227e-006
4.1923e-006
4.19232e-006
4.19235e-006
4.19238e-006
4.19241e-006
4.19243e-006
4.19246e-006
4.19249e-006
4.19251e-006
4.19254e-006
4.19256e-006
4.19259e-006
4.19262e-006
4.19264e-006
4.19267e-006
4.1927e-006
4.19273e-006
4.19276e-006
4.19279e-006
4.19282e-006
4.19286e-006
4.19289e-006
4.19295e-006
4.19299e-006
4.19304e-006
4.19309e-006
4.19315e-006
4.19322e-006
4.19329e-006
4.19337e-006
4.19346e-006
4.19357e-006
4.19366e-006
4.19385e-006
4.21071e-006
1.69012e-005
2.32727e-005
2.32707e-005
2.32683e-005
2.3266e-005
2.32636e-005
2.32608e-005
2.32582e-005
2.32554e-005
2.32524e-005
2.32494e-005
2.32464e-005
2.32431e-005
2.32398e-005
2.32366e-005
2.32331e-005
2.32296e-005
2.32261e-005
2.32224e-005
2.32188e-005
2.32151e-005
2.32113e-005
2.32074e-005
2.32036e-005
2.31997e-005
2.31956e-005
2.31917e-005
2.31877e-005
2.31836e-005
2.31795e-005
2.31755e-005
2.31713e-005
2.31671e-005
2.3163e-005
2.31588e-005
2.31546e-005
2.31505e-005
2.31463e-005
2.3142e-005
2.31379e-005
2.31337e-005
2.31296e-005
2.31253e-005
2.31212e-005
2.3117e-005
2.3113e-005
2.31087e-005
2.31047e-005
2.31006e-005
2.30966e-005
2.30926e-005
2.30887e-005
2.30847e-005
2.30809e-005
2.3077e-005
2.30731e-005
2.30693e-005
2.30656e-005
2.30619e-005
2.30581e-005
2.30544e-005
2.30508e-005
2.30473e-005
2.30438e-005
2.30404e-005
2.30369e-005
2.30335e-005
2.303e-005
2.30268e-005
2.30235e-005
2.30204e-005
2.30173e-005
2.30141e-005
2.3011e-005
2.30079e-005
2.30049e-005
2.3002e-005
2.29991e-005
2.29964e-005
2.29936e-005
2.29909e-005
2.29881e-005
2.29855e-005
2.29828e-005
2.29802e-005
2.29777e-005
2.29753e-005
2.2973e-005
2.29706e-005
2.29684e-005
2.29661e-005
2.29638e-005
2.29616e-005
2.29595e-005
2.29573e-005
2.29553e-005
2.29533e-005
2.29514e-005
2.29494e-005
2.29475e-005
2.29457e-005
2.2944e-005
2.29423e-005
2.29407e-005
2.2939e-005
2.29373e-005
2.29357e-005
2.29341e-005
2.29326e-005
2.29311e-005
2.29296e-005
2.29282e-005
2.29268e-005
2.29254e-005
2.2924e-005
2.29227e-005
2.29214e-005
2.29201e-005
2.29189e-005
2.29176e-005
2.29163e-005
2.29152e-005
2.2914e-005
2.29129e-005
2.29117e-005
2.29105e-005
2.29097e-005
2.29087e-005
2.29076e-005
2.29065e-005
2.29055e-005
2.29044e-005
2.29034e-005
2.29023e-005
2.29014e-005
2.29003e-005
2.28996e-005
2.2904e-005
3.4464e-005
0.00305255
0.000340695
0.000340654
0.00034061
0.000340565
0.00034052
0.000340471
0.00034042
0.000340368
0.000340312
0.000340256
0.000340199
0.000340138
0.000340077
0.000340014
0.00033995
0.000339885
0.000339818
0.000339748
0.000339681
0.000339609
0.00033954
0.000339467
0.000339393
0.000339319
0.000339243
0.000339168
0.000339093
0.000339016
0.00033894
0.000338861
0.000338784
0.000338706
0.000338628
0.000338548
0.00033847
0.000338389
0.00033831
0.000338231
0.000338152
0.000338074
0.000337993
0.000337913
0.000337835
0.000337758
0.000337681
0.000337602
0.000337523
0.000337446
0.000337369
0.000337294
0.000337218
0.000337145
0.00033707
0.000336996
0.000336924
0.000336852
0.000336782
0.000336709
0.000336639
0.000336572
0.000336501
0.000336435
0.000336368
0.000336304
0.000336237
0.000336173
0.000336109
0.000336046
0.000335984
0.000335925
0.000335865
0.000335806
0.000335747
0.00033569
0.000335633
0.000335577
0.000335523
0.000335471
0.000335418
0.000335366
0.000335315
0.000335265
0.000335215
0.000335166
0.000335118
0.000335071
0.000335027
0.000334984
0.00033494
0.000334896
0.000334854
0.000334813
0.000334773
0.000334733
0.000334695
0.000334658
0.000334619
0.000334583
0.000334546
0.000334513
0.00033448
0.000334448
0.000334414
0.000334384
0.000334351
0.000334323
0.000334291
0.000334264
0.000334234
0.000334206
0.00033418
0.000334155
0.000334128
0.000334102
0.000334077
0.000334053
0.000334028
0.000334005
0.000333983
0.000333958
0.000333937
0.000333915
0.000333892
0.000333872
0.000333849
0.00033383
0.000333806
0.000333785
0.000333762
0.00033374
0.000333717
0.000333696
0.00033367
0.000333645
0.00033362
0.000333596
0.000333689
0.00047512
0.0163953
0.000796909
0.000796874
0.000796843
0.000796811
0.000796777
0.000796741
0.000796704
0.000796666
0.000796629
0.000796585
0.000796545
0.000796503
0.000796458
0.000796415
0.000796366
0.00079632
0.000796271
0.000796226
0.000796172
0.000796123
0.000796072
0.000796022
0.000795967
0.000795915
0.000795861
0.000795809
0.000795755
0.0007957
0.000795642
0.000795588
0.00079553
0.000795479
0.000795418
0.000795364
0.000795305
0.000795249
0.000795194
0.000795137
0.000795084
0.000795018
0.000794964
0.000794912
0.000794854
0.000794798
0.000794741
0.000794685
0.000794634
0.000794579
0.000794523
0.000794472
0.000794418
0.000794363
0.000794314
0.000794261
0.000794208
0.000794157
0.000794102
0.000794057
0.000794009
0.000793954
0.000793908
0.000793862
0.00079382
0.000793766
0.000793725
0.000793676
0.000793631
0.000793589
0.000793546
0.000793502
0.000793461
0.000793417
0.000793377
0.000793338
0.000793298
0.00079326
0.000793222
0.000793183
0.000793147
0.000793109
0.000793074
0.000793036
0.000793003
0.000792965
0.000792934
0.000792905
0.000792875
0.00079284
0.000792811
0.000792781
0.000792751
0.000792721
0.000792692
0.000792663
0.000792637
0.000792606
0.000792585
0.000792559
0.000792538
0.00079251
0.000792489
0.000792462
0.000792448
0.00079242
0.000792405
0.000792379
0.000792359
0.000792337
0.000792322
0.000792305
0.000792286
0.000792264
0.000792247
0.000792229
0.000792214
0.000792197
0.000792185
0.000792168
0.00079215
0.000792139
0.000792121
0.000792107
0.000792092
0.000792073
0.000792062
0.000792045
0.00079204
0.000792025
0.000792011
0.000792001
0.000791983
0.000791969
0.000791957
0.000791948
0.00079193
0.00079191
0.000792151
0.000980726
0.0251044
0.000938614
0.000938603
0.000938592
0.000938575
0.000938562
0.000938549
0.000938535
0.000938518
0.000938499
0.000938486
0.00093847
0.000938447
0.000938433
0.000938412
0.000938392
0.000938371
0.000938357
0.000938328
0.000938313
0.000938298
0.000938276
0.000938249
0.000938234
0.000938212
0.000938192
0.000938165
0.000938148
0.000938121
0.000938104
0.000938082
0.000938058
0.000938029
0.000938015
0.000937991
0.000937969
0.000937952
0.000937926
0.000937903
0.000937869
0.000937861
0.000937841
0.000937807
0.000937793
0.000937776
0.000937754
0.000937731
0.00093771
0.000937685