/*--------------------------------*- C++ -*----------------------------------*\
| =========                 |                                                 |
| \\      /  F ield         | OpenFOAM: The Open Source CFD Toolbox           |
|  \\    /   O peration     | Version:  5.x                                   |
|   \\  /    A nd           | Web:      www.OpenFOAM.org                      |
|    \\/     M anipulation  |                                                 |
\*---------------------------------------------------------------------------*/
/*   Windows 32 and 64 bit porting by blueCAPE: http://www.bluecape.com.pt   *\
|  Based on Windows porting (2.0.x v4) by Symscape: http://www.symscape.com   |
\*---------------------------------------------------------------------------*/
FoamFile
{
    version     2.0;
    format      ascii;
    class       volScalarField;
    location    "30";
    object      p;
}
// * * * * * * * * * * * * * * * * * * * * * * * * * * * * * * * * * * * * * //

dimensions      [0 2 -2 0 0 0 0];

internalField   nonuniform List<scalar> 
43900
(
0.456834
0.456651
0.456582
0.456457
0.456336
0.456205
0.456067
0.455921
0.455768
0.455608
0.455441
0.455268
0.455087
0.4549
0.454707
0.454507
0.454302
0.45409
0.453872
0.453649
0.45342
0.453185
0.452944
0.452698
0.452447
0.45219
0.451929
0.451661
0.451389
0.442026
0.442956
0.442309
0.442352
0.442165
0.442003
0.441842
0.441673
0.441498
0.441316
0.441128
0.440934
0.440734
0.440528
0.440316
0.440098
0.439874
0.439644
0.439408
0.439167
0.43892
0.438668
0.43841
0.438146
0.437877
0.437603
0.437323
0.437037
0.436747
0.435956
0.438403
0.436593
0.437062
0.436501
0.436291
0.436023
0.435759
0.435497
0.435237
0.434977
0.434717
0.434457
0.434195
0.433933
0.433668
0.433401
0.433131
0.432859
0.432584
0.432305
0.432023
0.431737
0.431448
0.431154
0.430857
0.430555
0.43025
0.42994
0.44396
0.446592
0.444889
0.445467
0.444977
0.444841
0.444631
0.444418
0.4442
0.443976
0.443747
0.443513
0.443274
0.44303
0.44278
0.442525
0.442265
0.441999
0.441729
0.441453
0.441172
0.440886
0.440595
0.440299
0.439998
0.439692
0.439381
0.439065
0.438744
0.450323
0.451337
0.450715
0.450921
0.450746
0.450664
0.450555
0.450434
0.450301
0.450155
0.449997
0.449827
0.449645
0.449452
0.449247
0.449032
0.448805
0.448568
0.44832
0.448061
0.447792
0.447512
0.447222
0.446921
0.44661
0.446287
0.445954
0.445608
0.445252
0.451354
0.451565
0.451421
0.451413
0.451342
0.451267
0.451174
0.451067
0.450946
0.45081
0.45066
0.450497
0.450321
0.450131
0.449929
0.449714
0.449486
0.449247
0.448995
0.448732
0.448458
0.448172
0.447876
0.44757
0.447253
0.446927
0.446591
0.446247
0.445894
0.455143
0.455092
0.455028
0.454979
0.454905
0.454817
0.454713
0.454594
0.454459
0.454309
0.454144
0.453964
0.453769
0.453558
0.453333
0.453094
0.452839
0.452571
0.452288
0.451991
0.451681
0.451357
0.451019
0.450668
0.450305
0.449928
0.44954
0.449141
0.448731
0.462422
0.462285
0.462252
0.462204
0.462136
0.46205
0.461945
0.461821
0.461678
0.461517
0.461338
0.46114
0.460924
0.460691
0.460439
0.460169
0.459882
0.459577
0.459255
0.458917
0.458561
0.458188
0.457799
0.457394
0.456973
0.456535
0.456082
0.455613
0.455128
0.470277
0.470107
0.470093
0.470045
0.469975
0.469883
0.469768
0.469632
0.469474
0.469293
0.469092
0.468868
0.468623
0.468357
0.46807
0.467763
0.467434
0.467085
0.466716
0.466327
0.465918
0.465489
0.465041
0.464574
0.464089
0.463584
0.463062
0.462521
0.461962
0.478296
0.47811
0.478081
0.478017
0.477929
0.477815
0.477677
0.477513
0.477323
0.477109
0.476869
0.476605
0.476315
0.476002
0.475664
0.475301
0.474915
0.474505
0.474072
0.473616
0.473136
0.472635
0.47211
0.471565
0.470997
0.470408
0.469799
0.469169
0.468519
0.487507
0.487294
0.487254
0.487175
0.487068
0.486931
0.486764
0.486567
0.48634
0.486084
0.485798
0.485483
0.485138
0.484765
0.484363
0.483933
0.483475
0.48299
0.482477
0.481937
0.48137
0.480778
0.480159
0.479515
0.478846
0.478153
0.477436
0.476695
0.475931
0.498006
0.497762
0.497713
0.497619
0.497491
0.497327
0.497128
0.496893
0.496623
0.496317
0.495977
0.495602
0.495192
0.494749
0.494271
0.493761
0.493217
0.492641
0.492033
0.491394
0.490723
0.490022
0.48929
0.48853
0.48774
0.486922
0.486076
0.485202
0.484303
0.509695
0.509417
0.509357
0.509245
0.509092
0.508897
0.508659
0.508379
0.508056
0.507692
0.507287
0.50684
0.506353
0.505826
0.505259
0.504652
0.504007
0.503323
0.502602
0.501844
0.501049
0.500218
0.499353
0.498453
0.497519
0.496553
0.495554
0.494525
0.493464
0.522594
0.522278
0.522204
0.522069
0.521886
0.521653
0.521369
0.521034
0.52065
0.520216
0.519733
0.519202
0.518622
0.517994
0.51732
0.516599
0.515832
0.515021
0.514165
0.513266
0.512324
0.51134
0.510316
0.509252
0.508148
0.507007
0.505828
0.504614
0.503364
0.536749
0.536389
0.536298
0.536137
0.535918
0.535639
0.5353
0.534901
0.534443
0.533926
0.533351
0.532718
0.532028
0.531282
0.53048
0.529624
0.528714
0.527751
0.526736
0.525671
0.524556
0.523392
0.52218
0.520922
0.519619
0.518272
0.516882
0.515452
0.513981
0.552193
0.551786
0.551674
0.551482
0.551221
0.550888
0.550484
0.550008
0.549463
0.548847
0.548163
0.547411
0.546591
0.545705
0.544753
0.543737
0.542658
0.541517
0.540316
0.539054
0.537735
0.53636
0.534929
0.533444
0.531908
0.530321
0.528685
0.527002
0.525274
0.568956
0.568497
0.56836
0.568131
0.567819
0.567423
0.566941
0.566376
0.565727
0.564996
0.564184
0.56329
0.562318
0.561267
0.56014
0.558937
0.557659
0.55631
0.554889
0.5534
0.551843
0.55022
0.548534
0.546786
0.544978
0.543112
0.541191
0.539215
0.537189
0.587057
0.586542
0.586376
0.586103
0.585733
0.585261
0.584689
0.584018
0.583249
0.582382
0.581419
0.580361
0.57921
0.577967
0.576634
0.575213
0.573705
0.572112
0.570437
0.568681
0.566848
0.564938
0.562956
0.560902
0.55878
0.556592
0.554341
0.552029
0.549659
0.60651
0.605936
0.605735
0.605411
0.604971
0.604412
0.603735
0.60294
0.60203
0.601005
0.599868
0.598618
0.597259
0.595793
0.594221
0.592546
0.59077
0.588896
0.586926
0.584862
0.582709
0.580469
0.578144
0.575738
0.573254
0.570696
0.568066
0.565368
0.562605
0.627317
0.62668
0.626437
0.626053
0.625533
0.624873
0.624073
0.623136
0.622063
0.620855
0.619515
0.618044
0.616445
0.61472
0.612873
0.610905
0.60882
0.606621
0.604311
0.601894
0.599374
0.596753
0.594036
0.591226
0.588328
0.585346
0.582284
0.579145
0.575935
0.649462
0.648759
0.648469
0.648017
0.647404
0.646627
0.645686
0.644585
0.643324
0.641906
0.640332
0.638607
0.636732
0.634711
0.632547
0.630244
0.627805
0.625234
0.622535
0.619713
0.616773
0.613718
0.610553
0.607283
0.603914
0.60045
0.596896
0.593257
0.58954
0.672915
0.672145
0.671799
0.671269
0.67055
0.669639
0.668538
0.667248
0.665773
0.664114
0.662276
0.66026
0.65807
0.655711
0.653187
0.650501
0.647658
0.644664
0.641524
0.638242
0.634824
0.631276
0.627603
0.623812
0.619909
0.6159
0.611791
0.607589
0.603299
0.697621
0.696784
0.696375
0.695756
0.694917
0.693854
0.692571
0.691069
0.689351
0.68742
0.685281
0.682936
0.680391
0.67765
0.674717
0.671599
0.668301
0.664828
0.661188
0.657386
0.65343
0.649325
0.645081
0.640702
0.636199
0.631576
0.626844
0.622009
0.617079
0.723505
0.722602
0.722122
0.721402
0.720429
0.719196
0.717708
0.715968
0.713978
0.711742
0.709265
0.706552
0.703608
0.700437
0.697047
0.693444
0.689634
0.685625
0.681424
0.677039
0.672479
0.667751
0.662865
0.657829
0.652653
0.647346
0.641917
0.636375
0.630732
0.750465
0.749497
0.748939
0.748108
0.746985
0.745564
0.743849
0.741844
0.739551
0.736977
0.734126
0.731003
0.727615
0.723967
0.720068
0.715925
0.711545
0.706939
0.702114
0.69708
0.691847
0.686425
0.680825
0.675057
0.669133
0.663063
0.65686
0.650535
0.6441
0.77837
0.777342
0.776697
0.775746
0.774458
0.77283
0.770867
0.768571
0.765947
0.763001
0.759738
0.756165
0.752287
0.748115
0.743654
0.738915
0.733907
0.728641
0.723126
0.717374
0.711397
0.705207
0.698816
0.692239
0.685487
0.678574
0.671516
0.664325
0.657017
0.807062
0.80598
0.805242
0.80416
0.802694
0.800843
0.79861
0.795999
0.793017
0.789667
0.785956
0.781893
0.777484
0.772738
0.767665
0.762275
0.756579
0.750589
0.744318
0.737778
0.730984
0.723949
0.716689
0.70922
0.701558
0.693718
0.685718
0.677576
0.669308
0.836355
0.835227
0.83439
0.833168
0.831514
0.829424
0.826903
0.823957
0.820589
0.816807
0.812617
0.808026
0.803045
0.797681
0.791946
0.785851
0.779409
0.772634
0.765539
0.75814
0.750454
0.742497
0.734287
0.725842
0.717181
0.708326
0.699296
0.690112
0.680797
0.866038
0.864872
0.863933
0.862564
0.860712
0.858372
0.855549
0.852249
0.848476
0.844237
0.839539
0.834389
0.828798
0.822775
0.816332
0.809482
0.802238
0.794617
0.786633
0.778305
0.769651
0.760692
0.751448
0.74194
0.732195
0.72223
0.712076
0.701757
0.691295
0.895876
0.894683
0.89364
0.892121
0.890064
0.887466
0.884331
0.880665
0.876471
0.871757
0.866528
0.860793
0.854562
0.847844
0.840652
0.833
0.824903
0.816377
0.807441
0.798113
0.78842
0.778376
0.768014
0.757357
0.746425
0.735262
0.723883
0.712324
0.700625
0.925621
0.924411
0.923265
0.921594
0.919331
0.916472
0.91302
0.908981
0.904358
0.899156
0.893382
0.887043
0.880147
0.872706
0.864731
0.856236
0.847239
0.837756
0.827804
0.817416
0.806598
0.7954
0.783829
0.77192
0.759727
0.747241
0.734544
0.721651
0.708582
0.955013
0.953797
0.952552
0.950731
0.948264
0.945145
0.941379
0.936967
0.931913
0.926221
0.919894
0.91294
0.905365
0.89718
0.888394
0.879025
0.869085
0.858594
0.847581
0.836046
0.824061
0.811597
0.798738
0.785505
0.771895
0.758035
0.743878
0.729516
0.71502
0.983791
0.982581
0.981242
0.979277
0.976612
0.973241
0.969168
0.964392
0.958914
0.952735
0.945859
0.938288
0.930029
0.921086
0.911477
0.901201
0.89029
0.878753
0.8666
0.85391
0.840611
0.826867
0.812604
0.797902
0.782871
0.767415
0.751743
0.735811
0.719652
1.0117
1.01051
1.00908
1.00698
1.00413
1.00052
0.996156
0.99103
0.985143
0.978493
0.971078
0.9629
0.953956
0.944263
0.933805
0.922628
0.910702
0.898079
0.884791
0.870774
0.856243
0.841
0.825298
0.809086
0.792372
0.775357
0.757892
0.740246
0.722415
1.03851
1.03734
1.03584
1.03362
1.03059
1.02676
1.02213
1.01667
1.0104
1.0033
0.995367
0.986596
0.976994
0.966534
0.95527
0.943127
0.93022
0.916474
0.901924
0.886725
0.870638
0.854031
0.83667
0.818768
0.800395
0.781527
0.762486
0.74292
0.723084
1.06401
1.06287
1.06131
1.05897
1.05579
1.05177
1.04688
1.04113
1.0345
1.02698
1.01856
1.00923
0.998964
0.987811
0.975659
0.962678
0.948657
0.933806
0.918079
0.901349
0.883966
0.865656
0.846713
0.827053
0.806747
0.786243
0.764637
0.743148
0.721669
1.08802
1.08692
1.0853
1.08287
1.07956
1.07536
1.07025
1.06423
1.05728
1.04938
1.04051
1.03064
1.01979
1.00787
0.995028
0.980977
0.966072
0.950006
0.932895
0.914976
0.895939
0.876143
0.855204
0.833601
0.811641
0.788215
0.765148
0.741488
0.717172
1.11041
1.10935
1.10768
1.10517
1.10175
1.0974
1.09211
1.08586
1.07862
1.07037
1.06108
1.05075
1.03928
1.02679
1.013
0.998284
0.982169
0.964992
0.946802
0.927192
0.906773
0.884695
0.861914
0.838585
0.81394
0.788962
0.763057
0.736637
0.71067
1.13108
1.13005
1.12836
1.12578
1.12227
1.1178
1.11235
1.10589
1.09841
1.08986
1.08021
1.06941
1.05748
1.04422
1.02992
1.0141
0.997118
0.97885
0.958822
0.938198
0.915742
0.89212
0.867581
0.841306
0.814472
0.787014
0.758495
0.729888
0.700437
1.14997
1.14898
1.14726
1.14464
1.14105
1.13648
1.13091
1.12429
1.1166
1.10779
1.09781
1.08664
1.07415
1.06047
1.04525
1.02874
1.0109
0.991288
0.970435
0.947503
0.923317
0.898285
0.871047
0.842867
0.813402
0.782729
0.751449
0.719473
0.68751
1.16706
1.1661
1.16438
1.16172
1.15808
1.15344
1.14776
1.14101
1.13314
1.12412
1.11387
1.10233
1.08948
1.07513
1.05942
1.04224
1.02331
1.00248
0.980034
0.956009
0.930346
0.902412
0.873089
0.842406
0.809933
0.776093
0.741901
0.706466
0.670433
1.18237
1.18145
1.17972
1.17704
1.17336
1.16866
1.16291
1.15606
1.14806
1.13884
1.12837
1.11654
1.10327
1.08859
1.07218
1.05416
1.0343
1.01251
0.988794
0.962925
0.935202
0.905398
0.873615
0.839862
0.804169
0.767743
0.728788
0.689709
0.650849
1.19596
1.19507
1.19334
1.19065
1.18695
1.18221
1.1764
1.16947
1.16136
1.15202
1.14132
1.12926
1.11569
1.10037
1.08356
1.06488
1.04409
1.02135
0.996382
0.96896
0.939051
0.90697
0.872532
0.835428
0.796995
0.755486
0.713706
0.670419
0.625394
1.20789
1.20703
1.20531
1.20261
1.1989
1.19414
1.1883
1.1813
1.17312
1.16364
1.15284
1.14053
1.12664
1.11122
1.09361
1.07436
1.05306
1.02916
1.00242
0.973509
0.942071
0.907218
0.869854
0.830069
0.78692
0.742361
0.694534
0.645777
0.597565
1.21827
1.21744
1.21573
1.21303
1.20932
1.20455
1.19868
1.19165
1.18339
1.17386
1.16287
1.15043
1.13639
1.12036
1.10282
1.08286
1.06038
1.03573
1.00827
0.977647
0.943059
0.906708
0.866126
0.822287
0.775503
0.724928
0.673068
0.61899
0.563275
1.22721
1.22641
1.22471
1.22202
1.21831
1.21353
1.20765
1.20059
1.19231
1.18266
1.17164
1.15903
1.14468
1.12871
1.11033
1.0898
1.06736
1.04163
1.01239
0.979938
0.945207
0.904438
0.860831
0.813239
0.761671
0.706687
0.647412
0.586411
0.524695
1.23483
1.23406
1.23237
1.22969
1.22598
1.22121
1.21532
1.20826
1.19992
1.19027
1.17912
1.1664
1.15202
1.13549
1.11716
1.09639
1.07269
1.0461
1.01614
0.982942
0.944007
0.902534
0.855706
0.802848
0.746233
0.684667
0.619259
0.55003
0.480096
1.24127
1.24051
1.23883
1.23617
1.23247
1.2277
1.22181
1.21474
1.20639
1.19668
1.18549
1.17271
1.15803
1.14159
1.1228
1.10133
1.07765
1.0503
1.01922
0.983615
0.944348
0.899772
0.848583
0.792531
0.72919
0.660517
0.586989
0.5096
0.428388
1.24664
1.2459
1.24423
1.24158
1.23789
1.23313
1.22725
1.22017
1.21181
1.20206
1.19085
1.17791
1.16329
1.14651
1.12742
1.10614
1.08154
1.05338
1.02141
0.985204
0.943354
0.895385
0.841783
0.780879
0.711937
0.634859
0.551474
0.462156
0.37052
1.25106
1.25034
1.24869
1.24604
1.24237
1.23762
1.23174
1.22466
1.21628
1.20654
1.19523
1.18234
1.16749
1.15064
1.13166
1.10968
1.08465
1.05607
1.02347
0.985778
0.942497
0.892228
0.835004
0.768311
0.69304
0.607972
0.512845
0.410669
0.303452
1.25467
1.25396
1.25231
1.24968
1.24601
1.24127
1.2354
1.22831
1.21996
1.21015
1.19891
1.18583
1.17099
1.15418
1.13479
1.11259
1.08728
1.05827
1.02492
0.986257
0.941588
0.889542
0.828197
0.756814
0.673543
0.579275
0.471891
0.353096
0.227933
1.25755
1.25685
1.25522
1.25259
1.24894
1.2442
1.23833
1.23126
1.22288
1.21311
1.20178
1.18871
1.1739
1.15676
1.1374
1.11502
1.0894
1.06006
1.02604
0.98677
0.940152
0.886311
0.822502
0.745722
0.655773
0.549728
0.427578
0.290094
0.141088
1.25982
1.25913
1.2575
1.25488
1.25123
1.24651
1.24065
1.23357
1.22523
1.21537
1.20415
1.19093
1.17615
1.15888
1.13954
1.11684
1.09111
1.06144
1.02718
0.986265
0.939224
0.883566
0.817074
0.736006
0.639407
0.521203
0.381283
0.221016
0.0421377
1.26156
1.26088
1.25925
1.25664
1.253
1.24828
1.24243
1.23536
1.22701
1.21716
1.20592
1.19263
1.178
1.16037
1.14121
1.1182
1.09251
1.06244
1.02759
0.986061
0.938506
0.881113
0.811973
0.727415
0.624548
0.494345
0.335877
0.145418
-0.0714468
1.26286
1.26218
1.26056
1.25795
1.25432
1.24961
1.24377
1.23668
1.22835
1.21848
1.20725
1.19396
1.1792
1.16164
1.14246
1.11901
1.09367
1.06292
1.02786
0.985972
0.937627
0.878528
0.807722
0.719627
0.611718
0.46994
0.292365
0.0659389
-0.206418
1.26378
1.26311
1.26149
1.25889
1.25526
1.25055
1.24471
1.23764
1.2293
1.21946
1.20815
1.19498
1.18
1.16271
1.14301
1.12001
1.09422
1.06319
1.02804
0.98591
0.93655
0.876112
0.803896
0.713119
0.598912
0.448815
0.249894
-0.0164798
-0.361873
1.2644
1.26373
1.26211
1.25951
1.25589
1.25118
1.24535
1.23828
1.22993
1.22012
1.20872
1.19575
1.1803
1.16369
1.14297
1.12082
1.09398
1.06359
1.02691
0.98541
0.933699
0.874087
0.797711
0.706622
0.583789
0.428709
0.205878
-0.101341
-0.536107
1.26476
1.26409
1.26247
1.25987
1.25624
1.25152
1.24568
1.23861
1.23025
1.22056
1.20897
1.19632
1.18047
1.16459
1.14284
1.12169
1.09311
1.06345
1.02489
0.983439
0.929165
0.869128
0.788341
0.69543
0.564953
0.402496
0.159768
-0.186628
-0.73294
1.26493
1.26426
1.26263
1.26002
1.25637
1.25161
1.24569
1.23852
1.22999
1.21996
1.20818
1.19506
1.17858
1.16197
1.13931
1.11743
1.08763
1.05665
1.01679
0.973619
0.917888
0.854972
0.772222
0.674305
0.540446
0.366906
0.118462
-0.244088
-0.762712
0.451063
0.450677
0.450283
0.44988
0.449469
0.449048
0.44862
0.448183
0.447739
0.447287
0.446826
0.446359
0.445884
0.445402
0.444913
0.444417
0.443915
0.443406
0.442891
0.442369
0.441842
0.441309
0.440771
0.440227
0.439679
0.439125
0.438567
0.438005
0.437438
0.436867
0.436292
0.435714
0.435133
0.434548
0.433961
0.433371
0.432778
0.432183
0.431586
0.430988
0.430388
0.429786
0.429184
0.428581
0.427977
0.427373
0.426768
0.426164
0.42556
0.424957
0.424354
0.423752
0.423152
0.422553
0.421955
0.42136
0.420766
0.420175
0.419586
0.419
0.418417
0.417837
0.41726
0.416687
0.416118
0.415553
0.414991
0.414434
0.413882
0.413334
0.412791
0.412254
0.411721
0.411194
0.410673
0.410157
0.409647
0.409144
0.408646
0.408155
0.407671
0.407194
0.406723
0.406259
0.405803
0.405354
0.404912
0.404478
0.404052
0.403633
0.403223
0.40282
0.402426
0.40204
0.401663
0.401294
0.400934
0.400583
0.400241
0.399907
0.399583
0.399268
0.398963
0.398667
0.39838
0.398103
0.397836
0.397579
0.397331
0.397094
0.396866
0.396649
0.396442
0.396245
0.396058
0.395882
0.395716
0.39556
0.395415
0.39528
0.395156
0.395041
0.394938
0.394844
0.394762
0.394689
0.394627
0.394576
0.394534
0.394503
0.394483
0.394473
0.394473
0.394482
0.394508
0.394527
0.394596
0.394593
0.394755
0.436399
0.435989
0.435569
0.435141
0.434703
0.434257
0.433801
0.433337
0.432865
0.432384
0.431895
0.431398
0.430893
0.430381
0.42986
0.429333
0.428798
0.428256
0.427708
0.427152
0.426591
0.426023
0.42545
0.42487
0.424286
0.423696
0.423101
0.422501
0.421897
0.421289
0.420676
0.42006
0.419441
0.418818
0.418193
0.417564
0.416933
0.4163
0.415665
0.415028
0.41439
0.413751
0.41311
0.412469
0.411828
0.411186
0.410544
0.409903
0.409262
0.408622
0.407983
0.407345
0.406708
0.406074
0.405441
0.404811
0.404183
0.403557
0.402935
0.402315
0.401699
0.401087
0.400478
0.399873
0.399272
0.398676
0.398084
0.397497
0.396915
0.396338
0.395766
0.3952
0.39464
0.394086
0.393538
0.392996
0.39246
0.391931
0.391409
0.390894
0.390386
0.389885
0.389392
0.388906
0.388428
0.387958
0.387495
0.387041
0.386595
0.386157
0.385728
0.385308
0.384896
0.384493
0.384098
0.383713
0.383337
0.382969
0.382611
0.382262
0.381923
0.381593
0.381272
0.380961
0.380661
0.38037
0.38009
0.37982
0.379561
0.379313
0.379075
0.378848
0.378632
0.378427
0.378233
0.378049
0.377876
0.377714
0.377563
0.377422
0.377292
0.377173
0.377064
0.376967
0.376879
0.376802
0.376736
0.376679
0.376634
0.376598
0.376572
0.376556
0.37655
0.376551
0.376565
0.37659
0.376607
0.3767
0.376586
0.42957
0.429135
0.428693
0.428242
0.427783
0.427316
0.42684
0.426356
0.425863
0.425362
0.424853
0.424335
0.423809
0.423274
0.422732
0.422182
0.421624
0.421059
0.420486
0.419906
0.41932
0.418727
0.418127
0.417522
0.416911
0.416294
0.415672
0.415045
0.414413
0.413776
0.413136
0.412492
0.411844
0.411192
0.410538
0.409881
0.409221
0.408559
0.407895
0.40723
0.406563
0.405894
0.405225
0.404556
0.403885
0.403215
0.402545
0.401875
0.401206
0.400538
0.399871
0.399206
0.398542
0.39788
0.39722
0.396563
0.395908
0.395256
0.394607
0.393962
0.39332
0.392681
0.392047
0.391417
0.390792
0.390171
0.389555
0.388944
0.388338
0.387738
0.387143
0.386554
0.385972
0.385395
0.384825
0.384262
0.383706
0.383156
0.382614
0.382079
0.381551
0.381031
0.38052
0.380016
0.37952
0.379032
0.378553
0.378083
0.377621
0.377169
0.376725
0.37629
0.375864
0.375447
0.37504
0.374642
0.374253
0.373873
0.373502
0.373141
0.372787
0.372442
0.372105
0.371775
0.371453
0.371141
0.370842
0.370559
0.37029
0.370034
0.369792
0.369562
0.369344
0.369139
0.368945
0.368763
0.368592
0.368434
0.368288
0.368154
0.368032
0.367922
0.367826
0.367742
0.367671
0.367615
0.367572
0.367543
0.367529
0.367531
0.367548
0.367581
0.367632
0.367714
0.367748
0.367932
0.367897
0.368344
0.367994
0.43836
0.437908
0.437446
0.436976
0.436496
0.436005
0.435505
0.434993
0.434471
0.433939
0.433395
0.432841
0.432276
0.431701
0.431115
0.430519
0.429913
0.429298
0.428675
0.428043
0.427402
0.426755
0.4261
0.425438
0.424769
0.424095
0.423414
0.422728
0.422037
0.42134
0.42064
0.419935
0.419226
0.418513
0.417798
0.417079
0.416359
0.415636
0.414911
0.414185
0.413457
0.412728
0.411999
0.411269
0.410539
0.409809
0.40908
0.408351
0.407623
0.406897
0.406171
0.405448
0.404727
0.404009
0.403292
0.402579
0.401869
0.401163
0.40046
0.399761
0.399066
0.398375
0.397689
0.397008
0.396332
0.395662
0.394996
0.394337
0.393683
0.393036
0.392394
0.39176
0.391131
0.39051
0.389896
0.389289
0.388689
0.388097
0.387513
0.386937
0.38637
0.385811
0.385261
0.384719
0.384187
0.383665
0.383152
0.382649
0.382156
0.381673
0.381201
0.380739
0.380288
0.379848
0.37942
0.379004
0.3786
0.378209
0.377831
0.377467
0.377119
0.376786
0.376469
0.376176
0.375912
0.375677
0.375465
0.375258
0.375048
0.374837
0.374627
0.374421
0.37422
0.374025
0.373837
0.373658
0.373488
0.373327
0.373176
0.373037
0.372908
0.372791
0.372686
0.372593
0.372512
0.372445
0.37239
0.372349
0.372321
0.372306
0.372305
0.372318
0.372345
0.372397
0.372353
0.372723
0.372282
0.373117
0.372115
0.444818
0.444298
0.443765
0.443225
0.442678
0.442123
0.441561
0.44099
0.440412
0.439825
0.43923
0.438627
0.438016
0.437398
0.436769
0.436125
0.43547
0.434803
0.434127
0.43344
0.432745
0.432041
0.431328
0.430608
0.42988
0.429146
0.428405
0.427658
0.426906
0.426148
0.425385
0.424618
0.423846
0.42307
0.422291
0.421509
0.420724
0.419937
0.419147
0.418355
0.417563
0.416769
0.415974
0.41518
0.414385
0.413591
0.412797
0.412005
0.411214
0.410424
0.409637
0.408852
0.408069
0.40729
0.406514
0.405741
0.404972
0.404207
0.403446
0.40269
0.401938
0.401192
0.400451
0.399716
0.398986
0.398262
0.397545
0.396834
0.39613
0.395432
0.394742
0.394058
0.393382
0.392714
0.392054
0.391401
0.390756
0.39012
0.389492
0.388873
0.388263
0.387661
0.387069
0.386485
0.385911
0.385347
0.384792
0.384246
0.38371
0.383184
0.382668
0.382162
0.381666
0.381182
0.380708
0.380245
0.379794
0.379354
0.378926
0.37851
0.378106
0.377713
0.377334
0.376961
0.376588
0.376211
0.375831
0.375462
0.375114
0.374786
0.374475
0.37418
0.373902
0.373637
0.373388
0.373152
0.372929
0.37272
0.372524
0.372341
0.37217
0.372012
0.371867
0.371734
0.371614
0.371506
0.371411
0.371328
0.371257
0.371199
0.371153
0.37112
0.371099
0.371094
0.371082
0.371166
0.371026
0.371438
0.370996
0.445471
0.44497
0.444449
0.443902
0.443332
0.44274
0.442129
0.441499
0.440851
0.440186
0.439505
0.438808
0.438095
0.437365
0.436623
0.435871
0.435107
0.434333
0.43355
0.432758
0.431959
0.431152
0.430337
0.429514
0.428684
0.427847
0.427004
0.426154
0.425299
0.424438
0.423573
0.422703
0.421829
0.420951
0.42007
0.419186
0.4183
0.417412
0.416522
0.41563
0.414738
0.413846
0.412953
0.412062
0.411171
0.410282
0.409394
0.408509
0.407626
0.406746
0.405869
0.404995
0.404126
0.40326
0.402399
0.401542
0.400691
0.399844
0.399003
0.398168
0.39734
0.396517
0.395701
0.394892
0.39409
0.393296
0.392509
0.391729
0.390958
0.390195
0.38944
0.388694
0.387956
0.387227
0.386507
0.385796
0.385094
0.384402
0.38372
0.383047
0.382384
0.381731
0.381089
0.380457
0.379835
0.379223
0.378622
0.378032
0.377452
0.376884
0.376326
0.375779
0.375243
0.374717
0.374203
0.373699
0.373206
0.372723
0.37225
0.371788
0.371335
0.370892
0.370457
0.370031
0.369612
0.369204
0.368807
0.368424
0.368056
0.367702
0.367363
0.367038
0.366727
0.36643
0.366147
0.365878
0.365622
0.36538
0.365151
0.364935
0.364732
0.364542
0.364364
0.3642
0.364047
0.363907
0.363779
0.363663
0.363558
0.363465
0.363383
0.363312
0.363251
0.363201
0.363156
0.363134
0.363072
0.363157
0.362911
0.448234
0.447642
0.447028
0.446394
0.445739
0.445063
0.444366
0.44365
0.442914
0.442159
0.441386
0.440596
0.439791
0.438971
0.438137
0.437292
0.436435
0.435565
0.434681
0.433785
0.432876
0.431955
0.431024
0.430084
0.429135
0.428177
0.427212
0.426239
0.425261
0.424277
0.423287
0.422294
0.421296
0.420295
0.419292
0.418286
0.417279
0.416271
0.415263
0.414254
0.413245
0.412236
0.411228
0.410222
0.409216
0.408213
0.407212
0.406213
0.405217
0.404224
0.403234
0.402247
0.401264
0.400286
0.399315
0.39835
0.397392
0.396441
0.395497
0.394561
0.393633
0.392713
0.3918
0.390896
0.390001
0.389115
0.388238
0.38737
0.386511
0.385663
0.384824
0.383995
0.383177
0.382369
0.381572
0.380786
0.38001
0.379246
0.378494
0.377753
0.377023
0.376307
0.375602
0.374909
0.374228
0.37356
0.372904
0.37226
0.371629
0.37101
0.370404
0.36981
0.369228
0.368659
0.368101
0.367557
0.367024
0.366504
0.365995
0.365499
0.365015
0.364543
0.364083
0.363635
0.3632
0.362777
0.362367
0.361969
0.361584
0.361213
0.360854
0.36051
0.360178
0.35986
0.359555
0.359264
0.358986
0.358722
0.35847
0.358233
0.358008
0.357797
0.357598
0.357413
0.357241
0.357081
0.356934
0.3568
0.356679
0.35657
0.356474
0.35639
0.356318
0.356258
0.35621
0.356177
0.35615
0.35615
0.356103
0.454539
0.453833
0.453102
0.452345
0.451564
0.450759
0.449931
0.449081
0.44821
0.447319
0.44641
0.445482
0.444537
0.443575
0.442599
0.441609
0.440606
0.439591
0.438564
0.437526
0.436476
0.435416
0.434346
0.433266
0.432178
0.431082
0.429978
0.428868
0.427752
0.42663
0.425503
0.424373
0.423239
0.422102
0.420962
0.419821
0.418679
0.417537
0.416394
0.415253
0.414113
0.412975
0.41184
0.410707
0.409579
0.408454
0.407334
0.406219
0.40511
0.404006
0.40291
0.401822
0.400741
0.399668
0.398601
0.397541
0.396489
0.395445
0.39441
0.393383
0.392366
0.391359
0.390361
0.389374
0.388397
0.387431
0.386476
0.385533
0.384601
0.38368
0.382772
0.381875
0.380991
0.38012
0.379261
0.378415
0.377582
0.376763
0.375958
0.375167
0.37439
0.373625
0.372873
0.372135
0.371409
0.370697
0.369998
0.369313
0.36864
0.367981
0.367336
0.366704
0.366085
0.365479
0.364887
0.364308
0.363743
0.363191
0.362652
0.362127
0.361615
0.361116
0.360631
0.36016
0.359701
0.359257
0.358825
0.358408
0.358004
0.357613
0.357237
0.356874
0.356525
0.356189
0.355867
0.355559
0.355265
0.354985
0.354718
0.354464
0.354225
0.353998
0.353786
0.353587
0.353401
0.353228
0.353069
0.352923
0.35279
0.352671
0.352564
0.35247
0.352389
0.352321
0.352265
0.352222
0.352191
0.352172
0.352148
0.461284
0.460471
0.459628
0.458755
0.457853
0.456923
0.455967
0.454985
0.453978
0.452949
0.451896
0.450823
0.449729
0.448616
0.447485
0.446337
0.445173
0.443995
0.442802
0.441597
0.440379
0.43915
0.437911
0.436663
0.435406
0.434141
0.432869
0.431591
0.430308
0.429021
0.42773
0.426436
0.425139
0.423841
0.422543
0.421244
0.419946
0.41865
0.417355
0.416063
0.414775
0.41349
0.41221
0.410936
0.409667
0.408405
0.40715
0.405903
0.404664
0.403433
0.402211
0.400999
0.399797
0.398604
0.397422
0.396251
0.39509
0.393941
0.392803
0.391677
0.390563
0.389462
0.388373
0.387297
0.386234
0.385184
0.384148
0.383125
0.382117
0.381122
0.380142
0.379176
0.378224
0.377287
0.376365
0.375458
0.374565
0.373686
0.372822
0.371971
0.371134
0.370312
0.369505
0.368712
0.367934
0.367171
0.366422
0.365689
0.36497
0.364266
0.363577
0.362903
0.362243
0.361599
0.360969
0.360353
0.359753
0.359167
0.358596
0.358039
0.357497
0.35697
0.356457
0.355959
0.355476
0.355007
0.354552
0.354112
0.353687
0.353276
0.352879
0.352497
0.352129
0.351775
0.351436
0.351111
0.350801
0.350504
0.350222
0.349954
0.3497
0.34946
0.349235
0.349023
0.348825
0.34864
0.34847
0.348313
0.34817
0.348041
0.347925
0.347822
0.347733
0.347658
0.347595
0.347546
0.34751
0.347484
0.347457
0.46773
0.466787
0.465809
0.464798
0.463755
0.462681
0.461577
0.460445
0.459285
0.458098
0.456887
0.455652
0.454394
0.453115
0.451816
0.450498
0.449163
0.44781
0.446443
0.445061
0.443667
0.44226
0.440843
0.439417
0.437981
0.436538
0.435089
0.433634
0.432175
0.430712
0.429247
0.427781
0.426313
0.424846
0.423379
0.421915
0.420454
0.418995
0.417542
0.416093
0.41465
0.413213
0.411783
0.410361
0.408948
0.407543
0.406148
0.404763
0.403388
0.402025
0.400673
0.399333
0.398005
0.39669
0.395388
0.3941
0.392825
0.391564
0.390318
0.389086
0.387869
0.386667
0.38548
0.384309
0.383153
0.382012
0.380888
0.379779
0.378687
0.37761
0.37655
0.375506
0.374478
0.373467
0.372472
0.371493
0.37053
0.369584
0.368653
0.367739
0.366841
0.36596
0.365095
0.364246
0.363414
0.362599
0.3618
0.361017
0.360251
0.359501
0.358767
0.35805
0.35735
0.356665
0.355997
0.355344
0.354708
0.354088
0.353484
0.352896
0.352323
0.351767
0.351226
0.350701
0.350192
0.349698
0.349219
0.348757
0.348309
0.347877
0.34746
0.347058
0.346672
0.3463
0.345944
0.345603
0.345276
0.344964
0.344668
0.344386
0.344118
0.343866
0.343628
0.343404
0.343195
0.343001
0.34282
0.342655
0.342503
0.342366
0.342242
0.342134
0.342039
0.341958
0.341891
0.341838
0.3418
0.341772
0.341743
0.475005
0.473899
0.472753
0.47157
0.470351
0.469097
0.467809
0.46649
0.46514
0.463761
0.462355
0.460922
0.459465
0.457985
0.456483
0.454961
0.45342
0.451862
0.450289
0.4487
0.447099
0.445486
0.443863
0.442231
0.440592
0.438946
0.437294
0.435639
0.433981
0.432322
0.430661
0.429002
0.427344
0.425689
0.424037
0.42239
0.420749
0.419114
0.417486
0.415866
0.414255
0.412653
0.411062
0.409481
0.407912
0.406356
0.404811
0.403281
0.401763
0.40026
0.398772
0.397299
0.395842
0.3944
0.392974
0.391565
0.390173
0.388798
0.38744
0.386099
0.384777
0.383472
0.382185
0.380917
0.379666
0.378434
0.377221
0.376026
0.37485
0.373692
0.372553
0.371432
0.370331
0.369248
0.368183
0.367138
0.366111
0.365102
0.364113
0.363141
0.362189
0.361254
0.360339
0.359441
0.358562
0.357701
0.356859
0.356034
0.355227
0.354439
0.353668
0.352915
0.352179
0.351462
0.350761
0.350079
0.349413
0.348765
0.348133
0.347519
0.346922
0.346342
0.345778
0.345231
0.344701
0.344187
0.343689
0.343208
0.342743
0.342294
0.341861
0.341444
0.341043
0.340658
0.340288
0.339934
0.339596
0.339273
0.338965
0.338673
0.338396
0.338135
0.337888
0.337657
0.33744
0.337239
0.337052
0.33688
0.336724
0.336582
0.336454
0.336342
0.336244
0.336161
0.336092
0.336038
0.335999
0.335972
0.335943
0.483213
0.481912
0.480566
0.479178
0.477749
0.47628
0.474774
0.473232
0.471657
0.470049
0.468412
0.466746
0.465053
0.463336
0.461596
0.459835
0.458055
0.456257
0.454443
0.452616
0.450776
0.448925
0.447065
0.445198
0.443325
0.441447
0.439566
0.437684
0.435802
0.433921
0.432042
0.430167
0.428297
0.426433
0.424576
0.422727
0.420887
0.419058
0.417239
0.415433
0.413639
0.411858
0.410092
0.408341
0.406606
0.404886
0.403184
0.401499
0.399831
0.398182
0.396551
0.39494
0.393347
0.391775
0.390223
0.38869
0.387179
0.385688
0.384218