/*--------------------------------*- C++ -*----------------------------------*\
| =========                 |                                                 |
| \\      /  F ield         | OpenFOAM: The Open Source CFD Toolbox           |
|  \\    /   O peration     | Version:  5.x                                   |
|   \\  /    A nd           | Web:      www.OpenFOAM.org                      |
|    \\/     M anipulation  |                                                 |
\*---------------------------------------------------------------------------*/
/*   Windows 32 and 64 bit porting by blueCAPE: http://www.bluecape.com.pt   *\
|  Based on Windows porting (2.0.x v4) by Symscape: http://www.symscape.com   |
\*---------------------------------------------------------------------------*/
FoamFile
{
    version     2.0;
    format      ascii;
    class       surfaceScalarField;
    location    "30";
    object      phi;
}
// * * * * * * * * * * * * * * * * * * * * * * * * * * * * * * * * * * * * * //

dimensions      [0 3 -1 0 0 0 0];

internalField   nonuniform List<scalar> 
87341
(
0.463026
39.46
0.496958
39.8891
0.526218
39.8938
0.55795
39.8913
0.589088
39.8919
0.620083
39.892
0.651326
39.8918
0.682778
39.8916
0.714405
39.8914
0.746177
39.8913
0.778064
39.8911
0.81004
39.8911
0.842063
39.891
0.874022
39.8911
0.905966
39.8911
0.937909
39.8911
0.969832
39.8911
1.00172
39.8912
1.03355
39.8912
1.06531
39.8913
1.09701
39.8913
1.12839
39.8917
1.15962
39.8918
1.19061
39.892
1.22145
39.8922
1.25214
39.8923
1.28266
39.8925
1.31301
39.8927
39.8927
1.34338
0.519493
38.9405
0.614075
39.7945
0.680978
39.8269
0.747622
39.8247
0.812977
39.8265
0.87845
39.8266
0.942974
39.8273
1.00673
39.8278
1.06961
39.8285
1.13168
39.8292
1.19301
39.8298
1.25364
39.8304
1.3137
39.831
1.3735
39.8313
1.43285
39.8317
1.49165
39.8323
1.54992
39.8328
1.60767
39.8334
1.66492
39.834
1.72165
39.8345
1.77788
39.8351
1.83341
39.8361
1.88852
39.8367
1.94349
39.8371
1.99795
39.8377
2.05186
39.8384
2.10521
39.8392
2.158
39.8399
39.8409
2.20972
0.942363
37.9982
1.08057
39.6563
1.14507
39.7624
1.20795
39.7618
1.27511
39.7594
1.34421
39.7575
1.41558
39.7559
1.48894
39.7545
1.56406
39.7534
1.64066
39.7526
1.71859
39.7519
1.79765
39.7514
1.87764
39.751
1.95818
39.7507
2.03932
39.7506
2.12109
39.7505
2.20328
39.7507
2.28574
39.7509
2.36841
39.7513
2.4512
39.7517
2.53405
39.7523
2.61723
39.753
2.70026
39.7537
2.78288
39.7545
2.86519
39.7554
2.94729
39.7563
3.02902
39.7574
3.11032
39.7586
39.7599
3.19139
0.685828
37.3123
0.882073
39.4601
0.980187
39.6643
1.0756
39.6664
1.17207
39.6629
1.26818
39.6614
1.36453
39.6595
1.46099
39.658
1.55777
39.6566
1.65519
39.6552
1.75287
39.6542
1.85075
39.6535
1.94881
39.6529
2.04731
39.6522
2.14588
39.652
2.2444
39.652
2.34291
39.6521
2.4417
39.6521
2.54038
39.6526
2.63888
39.6532
2.73707
39.6541
2.836
39.654
2.93449
39.6552
3.03224
39.6567
3.12929
39.6584
3.22456
39.6611
3.31772
39.6643
3.40895
39.6674
39.6691
3.49967
0.245863
37.0665
0.427313
39.2786
0.56864
39.5229
0.708965
39.526
0.846996
39.5249
0.983819
39.5245
1.11913
39.5242
1.25301
39.5241
1.38546
39.5242
1.51624
39.5244
1.64566
39.5248
1.77372
39.5254
1.90044
39.5262
2.02554
39.5271
2.14928
39.5283
2.27163
39.5297
2.39257
39.5312
2.51181
39.5329
2.62958
39.5348
2.74584
39.537
2.86052
39.5394
2.97375
39.5408
3.08546
39.5435
3.19572
39.5464
3.3045
39.5496
3.4126
39.553
3.52057
39.5563
3.62868
39.5593
39.5617
3.73611
0.166599
36.8999
0.326599
39.1186
0.477785
39.3718
0.629743
39.3741
0.780315
39.3743
0.930028
39.3748
1.07876
39.3755
1.22648
39.3764
1.3732
39.3775
1.51885
39.3787
1.66344
39.3802
1.80698
39.3819
1.94944
39.3837
2.09077
39.3858
2.23099
39.3881
2.3701
39.3905
2.50808
39.3932
2.64489
39.3961
2.78057
39.3992
2.91513
39.4024
3.04858
39.4059
3.18075
39.4086
3.31187
39.4123
3.44204
39.4163
3.57133
39.4203
3.69993
39.4244
3.82775
39.4285
3.95413
39.4329
39.438
4.07786
0.156293
36.7436
0.312914
38.962
0.462916
39.2218
0.61277
39.2242
0.761951
39.2251
0.910578
39.2262
1.0586
39.2275
1.20598
39.229
1.35269
39.2308
1.4987
39.2327
1.64396
39.2349
1.78846
39.2374
1.93215
39.24
2.07503
39.2429
2.21704
39.2461
2.35818
39.2494
2.49841
39.253
2.63773
39.2568
2.77609
39.2608
2.91349
39.265
3.04992
39.2695
3.18488
39.2737
3.31871
39.2785
3.45139
39.2836
3.58281
39.2889
3.71275
39.2944
3.84104
39.3002
3.96768
39.3062
39.3126
4.09304
0.150605
36.593
0.314118
38.7985
0.477191
39.0587
0.639876
39.0615
0.802166
39.0628
0.963975
39.0644
1.12523
39.0662
1.28585
39.0684
1.44577
39.0708
1.60492
39.0736
1.76322
39.0766
1.92063
39.08
2.07706
39.0836
2.23247
39.0875
2.38679
39.0917
2.53995
39.0962
2.6919
39.101
2.84258
39.1061
2.99193
39.1114
3.13989
39.1171
3.28642
39.123
3.43105
39.129
3.57408
39.1355
3.71548
39.1422
3.8552
39.1492
3.99317
39.1564
4.12932
39.164
4.26361
39.172
39.18
4.39628
0.15841
36.4346
0.3339
38.623
0.515371
38.8772
0.696482
38.8804
0.877234
38.8821
1.05751
38.8841
1.23721
38.8865
1.41626
38.8893
1.59456
38.8925
1.77203
38.8961
1.94858
38.9001
2.12412
38.9044
2.29856
38.9092
2.47183
38.9143
2.64384
38.9197
2.81452
38.9256
2.98378
38.9318
3.15154
38.9383
3.31773
38.9453
3.48227
38.9525
3.6451
38.9601
3.80607
38.9681
3.96517
38.9764
4.12237
38.985
4.27762
38.9939
4.43088
39.0032
4.58214
39.0128
4.73139
39.0227
39.0328
4.87856
0.17948
36.2551
0.374165
38.4283
0.573732
38.6776
0.773031
38.6811
0.971956
38.6832
1.17039
38.6857
1.36823
38.6887
1.56535
38.6922
1.76165
38.6962
1.95703
38.7007
2.15136
38.7057
2.34456
38.7112
2.53652
38.7172
2.72714
38.7236
2.91632
38.7306
3.10396
38.7379
3.28998
38.7458
3.47427
38.754
3.65675
38.7628
3.83734
38.7719
4.01594
38.7815
4.19246
38.7916
4.36684
38.802
4.539
38.8128
4.70886
38.8241
4.87635
38.8357
5.04143
38.8477
5.20405
38.8601
38.8727
5.36413
0.199908
36.0552
0.416005
38.2122
0.636297
38.4574
0.856186
38.4612
1.07559
38.4638
1.29439
38.4669
1.51245
38.4706
1.72964
38.475
1.94584
38.48
2.16093
38.4857
2.37477
38.4919
2.58726
38.4987
2.79827
38.5062
3.00769
38.5142
3.21539
38.5229
3.42127
38.532
3.62521
38.5418
3.82711
38.5521
4.02685
38.563
4.22435
38.5744
4.4195
38.5864
4.61219
38.5989
4.80234
38.6118
4.98986
38.6253
5.17465
38.6393
5.35664
38.6537
5.53575
38.6686
5.7119
38.6839
38.6995
5.88507
0.221333
35.8338
0.460465
37.9731
0.70393
38.2139
0.946885
38.2183
1.18924
38.2214
1.43083
38.2253
1.67152
38.23
1.91115
38.2354
2.14957
38.2416
2.38663
38.2486
2.62219
38.2563
2.85611
38.2648
3.08824
38.2741
3.31844
38.284
3.54658
38.2947
3.77251
38.3061
3.99613
38.3182
4.21728
38.331
4.43586
38.3445
4.65173
38.3586
4.86479
38.3733
5.07492
38.3887
5.282
38.4048
5.48594
38.4214
5.68664
38.4386
5.88399
38.4564
6.07791
38.4747
6.2683
38.4935
38.5127
6.45514
0.245094
35.5887
0.509682
37.7085
0.778838
37.9447
1.04737
37.9498
1.31517
37.9536
1.58205
37.9584
1.84783
37.9642
2.11232
37.9709
2.37534
37.9786
2.63672
37.9872
2.89629
37.9968
3.15386
38.0073
3.40927
38.0186
3.66236
38.0309
3.91296
38.0441
4.16091
38.0582
4.40605
38.0731
4.64824
38.0888
4.88733
38.1054
5.12318
38.1227
5.35565
38.1409
5.5846
38.1598
5.80992
38.1794
6.03148
38.1998
6.24915
38.2209
6.46284
38.2427
6.67242
38.2651
6.87782
38.2882
38.3115
7.07897
0.271459
35.3173
0.56423
37.4157
0.861745
37.6472
1.15851
37.653
1.45438
37.6577
1.74913
37.6636
2.04256
37.6708
2.33442
37.679
2.62452
37.6885
2.91263
37.6991
3.19854
37.7109
3.48205
37.7237
3.76296
37.7377
4.04105
37.7528
4.31616
37.769
4.58807
37.7863
4.85661
37.8045
5.1216
37.8238
5.38286
37.8441
5.64024
37.8653
5.89357
37.8875
6.14269
37.9107
6.38745
37.9347
6.62772
37.9595
6.86337
37.9853
7.09425
38.0118
7.32026
38.0391
7.54128
38.0671
38.0956
7.75726
0.300472
35.0168
0.624232
37.092
0.952873
37.3186
1.28061
37.3253
1.60726
37.3311
1.93257
37.3383
2.25627
37.3471
2.57809
37.3572
2.89778
37.3688
3.21507
37.3818
3.52972
37.3962
3.84147
37.412
4.15008
37.4291
4.45532
37.4476
4.75696
37.4674
5.05476
37.4884
5.34852
37.5108
5.63802
37.5343
5.92306
37.5591
6.20344
37.585
6.47898
37.612
6.74949
37.6401
7.01481
37.6694
7.27478
37.6996
7.52923
37.7308
7.77803
37.763
8.02103
37.7961
8.25812
37.8301
37.8644
8.48923
0.332212
34.6846
0.68984
36.7343
1.05245
36.956
1.41397
36.9637
1.77419
36.9709
2.13279
36.9797
2.48945
36.9904
2.84385
37.0028
3.19568
37.017
3.54463
37.0329
3.89041
37.0504
4.2327
37.0697
4.57123
37.0906
4.90572
37.1131
5.23588
37.1372
5.56146
37.1629
5.8822
37.19
6.19784
37.2187
6.50816
37.2487
6.81292
37.2802
7.11191
37.313
7.40492
37.3471
7.69174
37.3825
7.97221
37.4191
8.24613
37.4569
8.51335
37.4958
8.77372
37.5357
9.02709
37.5767
37.6181
9.27341
0.366735
34.3179
0.761159
36.3399
1.16063
36.5565
1.55878
36.5656
1.95538
36.5743
2.35004
36.5851
2.74237
36.5981
3.13199
36.6132
3.51853
36.6304
3.90163
36.6498
4.28092
36.6712
4.65605
36.6946
5.02668
36.72
5.39248
36.7473
5.75312
36.7766
6.10829
36.8077
6.45769
36.8406
6.80103
36.8753
7.13802
36.9117
7.46842
36.9498
7.79195
36.9895
8.10839
37.0307
8.41751
37.0734
8.71911
37.1175
9.01297
37.163
9.29893
37.2098
9.57681
37.2578
9.84646
37.307
37.3568
10.1078
0.404091
33.9138
0.838281
35.9057
1.27752
36.1173
1.71519
36.1279
2.151
36.1384
2.58449
36.1516
3.0152
36.1674
3.44269
36.1857
3.8665
36.2066
4.28621
36.2301
4.70138
36.256
5.1116
36.2843
5.51647
36.3151
5.91558
36.3482
6.30857
36.3836
6.69506
36.4212
7.07471
36.461
7.44717
36.5029
7.81212
36.5468
8.16925
36.5927
8.51829
36.6404
8.85894
36.69
9.19097
36.7414
9.51413
36.7944
9.82819
36.849
10.133
36.905
10.4283
36.9625
10.7139
37.0214
37.0809
10.9898
0.444287
33.4695
0.921212
35.4288
1.40311
35.6354
1.88316
35.6479
2.36099
35.6606
2.83607
35.6765
3.30785
35.6956
3.7758
35.7178
4.23939
35.743
4.69812
35.7713
5.15147
35.8026
5.59895
35.8369
6.0401
35.874
6.47445
35.9139
6.90156
35.9565
7.32099
36.0018
7.73234
36.0496
8.13521
36.1
8.52924
36.1528
8.91407
36.2078
9.28937
36.2651
9.65482
36.3246
10.0102
36.386
10.3551
36.4494
10.6894
36.5147
11.0128
36.5816
11.3252
36.6502
11.6263
36.7202
36.7911
11.9161
0.487252
32.9822
1.0098
34.9062
1.53717
35.108
2.06236
35.1227
2.58494
35.138
3.10427
35.1572
3.61971
35.1801
4.13064
35.2068
4.63643
35.2372
5.13649
35.2713
5.63021
35.3089
6.11704
35.35
6.59641
35.3946
7.06778
35.4425
7.53065
35.4936
7.9845
35.5479
8.42886
35.6053
8.86329
35.6656
9.28735
35.7287
9.70064
35.7946
10.1028
35.863
10.4934
35.9339
10.8723
36.0072
11.239
36.0827
11.5933
36.1603
11.935
36.2399
12.2638
36.3213
12.5796
36.4044
36.4885
12.8822
0.532875
32.4494
1.1038
34.3353
1.67932
34.5325
2.25229
34.5497
2.82219
34.5681
3.38829
34.5911
3.94984
34.6186
4.50611
34.6506
5.05637
34.687
5.59992
34.7277
6.13607
34.7728
6.66416
34.8219
7.18353
34.8752
7.69356
34.9324
8.19365
34.9935
8.68323
35.0583
9.16175
35.1268
9.62868
35.1986
10.0835
35.2738
10.5259
35.3522
10.9553
35.4336
11.3713
35.5179
11.7736
35.6049
12.1618
35.6945
12.5357
35.7864
12.895
35.8806
13.2395
35.9769
13.569
36.075
36.1743
13.8831
0.580954
31.8684
1.2028
33.7135
1.82892
33.9063
2.45207
33.9266
3.07166
33.9485
3.68684
33.9759
4.29674
34.0087
4.9005
34.0468
5.49729
34.0902
6.08629
34.1387
6.66671
34.1923
7.23777
34.2509
7.79873
34.3143
8.34885
34.3823
8.88746
34.4549
9.41389
34.5319
9.92751
34.6131
10.4277
34.6984
10.914
34.7876
11.3857
34.8805
11.8425
34.9768
12.2839
35.0765
12.7094
35.1794
13.1188
35.2851
13.5116
35.3936
13.8877
35.5046
14.2467
35.6178
14.5885
35.7332
35.8501
14.9127
0.631197
31.2372
1.30618
33.0385
1.98502
33.2275
2.66045
33.2511
3.33179
33.2772
3.99804
33.3097
4.65822
33.3485
5.31134
33.3937
5.95645
33.4451
6.5926
33.5026
7.21887
33.5661
7.83439
33.6354
8.43828
33.7104
9.02972
33.7909
9.60792
33.8767
10.1721
33.9677
10.7216
34.0637
11.2556
34.1644
11.7736
34.2696
12.275
34.3791
12.7592
34.4926
13.2257
34.61
13.6741
34.731
14.1039
34.8553
14.5149
34.9826
14.9066
35.1128
15.2789
35.2456
15.6315
35.3806
35.5175
15.9641
0.683201
30.554
1.4131
32.3086
2.14637
32.4942
2.87575
32.5218
3.60046
32.5525
4.31939
32.5907
5.03141
32.6365
5.7354
32.6897
6.43026
32.7502
7.11492
32.8179
7.78833
32.8926
8.44949
32.9742
9.0974
33.0625
9.73112
33.1572
10.3497
33.2581
10.9524
33.3651
11.5382
33.4778
12.1065
33.5961
12.6565
33.7196
13.1875
33.8481
13.699
33.9812
14.1902
34.1188
14.6609
34.2604
15.1104
34.4058
15.5384
34.5546
15.9446
34.7066
16.3288
34.8614
16.6906
35.0188
35.1787
17.0294
0.736449
29.8176
1.5225
31.5226
2.31135
31.7054
3.09581
31.7373
3.87503
31.7733
4.64774
31.818
5.41268
31.8715
6.16859
31.9338
6.91422
32.0046
7.64837
32.0838
8.36984
32.1712
9.07749
32.2666
9.77019
32.3698
10.4469
32.4805
11.1065
32.5985
11.7481
32.7235
12.3707
32.8552
12.9734
32.9934
13.5554
33.1376
14.1159
33.2875
14.6543
33.4428
15.1699
33.6032
15.6621
33.7682
16.1304
33.9374
16.5745
34.1106
16.9938
34.2872
17.3883
34.467
17.7574
34.6496
34.8356
18.1005
0.790305
29.0273
1.63307
30.6798
2.478
30.8604
3.31805
30.8973
4.15227
30.9391
4.97928
30.991
5.79766
31.0532
6.60601
31.1254
7.40294
31.2077
8.18708
31.2996
8.95712
31.4011
9.71174
31.5119
10.4497
31.6318
11.1697
31.7604
11.8707
31.8975
12.5515
32.0427
13.211
32.1957
13.8482
32.3562
14.4621
32.5236
15.052
32.6976
15.617
32.8779
16.1563
33.0639
16.6694
33.2551
17.1556
33.4512
17.6144
33.6517
18.0456
33.856
18.4486
34.064
18.8232
34.275
34.4904
19.1684
0.844018
28.1832
1.74325
29.7806
2.64399
29.9597
3.53937
30.0019
4.42838
30.05
5.30951
30.1099
6.1812
30.1815
7.0419
30.2647
7.89009
30.3595
8.72425
30.4655
9.5429
30.5825
10.3446
30.7103
11.1279
30.8485
11.8914
30.9969
12.6338
31.1551
13.3538
31.3227
14.0502
31.4993
14.7219
31.6845
15.3677
31.8778
15.9866
32.0787
16.5778
32.2867
17.1404
32.5013
17.6735
32.722
18.1768
32.948
18.6495
33.179
19.091
33.4146
19.5012
33.6538
19.8794
33.8968
34.1453
20.2245
0.896731
27.2865
1.85129
28.826
2.80669
29.0043
3.75629
29.0523
4.69904
29.1073
5.63333
29.1756
6.55747
29.2573
7.46977
29.3524
8.36856
29.4607
9.25218
29.5818
10.119
29.7157
10.9674
29.8619
11.7958
30.0201
12.6026
30.1901
13.3863
30.3714
14.1455
30.5635
14.8787
30.7661
15.5847
30.9785
16.2622
31.2003
16.91
31.4309
17.5271
31.6696
18.1123
31.9161
18.6652
32.169
19.1847
32.4286
19.6698
32.6938
20.1211
32.9633
20.5362
33.2387
20.9163
33.5167
33.8016
21.26
0.947497
26.339
1.95524
27.8182
2.96319
27.9963
3.96498
28.0505
4.95954
28.1127
5.94518
28.1899
6.9201
28.2824
7.8825
28.39
8.83057
28.5126
9.76251
28.6499
10.6765
28.8017
11.5708
28.9676
12.4437
29.1473
13.2933
29.3405
14.118
29.5467
14.9161
29.7654
15.686
29.9961
16.4262
30.2383
17.1353
30.4913
17.8119
30.7543
18.4543
31.0272
19.0628
31.3077
19.6341
31.5976
20.1693
31.8934
20.6676
32.1954
21.1247
32.5062
21.5461
32.8173
21.9268
33.136
33.4644
22.2639
0.995312
25.3437
2.05304
26.7605
3.11041
26.939
4.16137
26.9995
5.20487
27.0692
6.23916
27.1556
7.26236
27.2592
8.27259
27.3798
9.2679
27.5173
10.2464
27.6714
11.2061
27.842
12.1451
28.0286
13.0613
28.231
13.953
28.4488
14.8181
28.6816
15.6548
28.9287
16.4612
29.1898
17.2356
29.4638
17.9763
29.7506
18.6811
30.0494
19.3508
30.3575
19.9793
30.6791
20.5718
31.0051
21.1227
31.3426
21.628
31.6902
22.0997
32.0345
22.5196
32.3975
22.8972
32.7584
33.124
23.2376
1.03915
24.3045
2.14259
25.6571
3.24523
25.8363
4.34133
25.9034
5.42992
25.9806
6.50924
26.0763
7.57736
26.1911
8.63233
26.3248
9.67214
26.4775
10.6947
26.6488
11.698
26.8386
12.6799
27.0467
13.6383
27.2727
14.5709
27.5162
15.4758
27.7767
16.3505
28.0541
17.1935
28.3468
18.0017
28.6556
18.7739
28.9784
19.5098
29.3135
20.2007
29.6666
20.8588
30.021
21.4657
30.3983
22.0287
30.7795
22.5594
31.1594
23.0199
31.574
23.4514
31.966
23.8365
32.3733
32.8128
24.1477
1.07801
23.2265
2.22183
24.5133
3.36457
24.6936
4.50083
24.7672
5.62971
24.8517
6.74952
24.9565
7.85835
25.0823
8.95419
25.229
10.035
25.3967
11.0986
25.5852
12.1429
25.7944
13.1655
26.0241
14.1641
26.274
15.1366
26.5438
16.0799
26.8334
16.9929
27.1411
17.8707
27.4689
18.7144
27.812
19.5196
28.1732
20.2789
28.5543
21.0098
28.9357
21.6746
29.3562
22.3099
29.763
22.902
30.1874
23.4087
30.6527
23.9139
31.0688
24.3376
31.5422
24.6927
32.0182
32.4631
25.0424
1.11096
22.1156
2.28887
23.3353
3.46561
23.5169
4.6361
23.5967
5.79961
23.6882
6.95453
23.8016
8.09901
23.9378
9.23108
24.0969
10.3487
24.2791
11.4496
24.4843
12.5315
24.7124
13.5921
24.9635
14.629
25.2372
15.639
25.5337
16.621
25.8514
17.5688
26.1933
18.486
26.5517
19.3615
26.9365
20.1959
27.3387
21.0024
27.7479
21.7292
28.2088
22.4524
28.6331
23.0997
29.1156
23.6707
29.6164
24.2621
30.0613
24.7182
30.6127
25.1437
31.1167
25.5557
31.6062
32.1958
25.823
1.1372
20.9784
2.34207
22.1305
3.5459
22.313
4.74392
22.3987
5.93559
22.4966
7.11946
22.6177
8.2938
22.7634
9.45671
22.934
10.6062
23.1297
11.74
23.3505
12.8558
23.5966
13.9512
23.8681
15.0233
24.1651
16.0703
24.4867
17.0859
24.8358
18.0754
25.2038
19.0203
25.6069
19.9357
26.0211
20.814
26.4604
21.6131
26.9487
22.4314
27.3905
23.1285
27.936
23.7929
28.4512
24.4637
28.9457
24.9624
29.5627
25.4788
30.0963
25.9444
30.6512
26.2652
31.2853
31.8598
26.6012
1.15609
19.8223
2.38014
20.9064
3.60351
21.0896
4.82172
21.1805
6.03444
21.2839
7.24045
21.4117
8.43819
21.5657
9.62592
21.7463
10.8017
21.9539
11.9634
22.1888
13.1087
22.4513
14.2349
22.7418
15.34
23.06
16.4184
23.4083
17.4748
23.7794
18.487
24.1915
19.4839
24.61
20.4268
25.0781
21.3136
25.5736
22.2193
26.043
22.9739
26.6359
23.7513
27.1587
24.4873
27.7151
25.0572
28.3758
25.6545
28.9654
26.1962
29.5545
26.5883
30.2591
26.9988
30.8748
31.5869
27.2716
1.16724
18.6551
2.40225
19.6714
3.6372
19.8547
4.8678
19.9499
6.09397
20.0577
7.31481
20.1909
8.52898
20.3515
9.73493
20.5404
10.9309
20.7579
12.1149
21.0048
13.2846
21.2815
14.4377
21.5887
15.5702
21.9275
16.6842
22.2943
17.7601
22.7035
18.8308
23.1209
19.8336
23.6072
20.8195
24.0923
21.7925
24.6006
22.6254
25.21
23.5013
25.76
24.3134
26.3466
24.97
27.0586
25.6862
27.6596
26.2792
28.3724
26.7576
29.0761
27.2492
29.7675
27.6055
30.5185
31.2917
27.9008
1.17046
17.4846
2.40811
18.4338
3.64649
18.6163
4.88149
18.7149
6.11331
18.8259
7.34133
18.9629
8.56455
19.1283
9.7817
19.3232
10.9912
19.5484
12.1914
19.8046
13.3799
20.0931
14.5544
20.4142
15.7138
20.7681
16.8457
21.1624
17.9753
21.574
19.0371
22.0591
20.1166
22.5277
21.1361
23.0728
22.0704
23.6663
23.0478
24.2326
23.9223
24.8855
24.6855
25.5834
25.5162
26.2278
26.1867
26.9892
26.7966
27.7624
27.321
28.5517
27.7607
29.3278
28.1415
30.1377
30.998
28.4352
1.16584
16.3187
2.39789
17.2017
3.63167
17.3825
4.86316
17.4834
6.09279
17.5962
7.32032
17.7353
8.54508
17.9036
9.76607
18.1022
10.9822
18.3323
12.1916
18.5952
13.3932
18.8915
14.584
19.2233
15.759
19.5932
16.93
19.9914
18.0481
20.4558
19.1986
20.9086
20.2607
21.4656
21.3084
22.0251
22.3492
22.6255
23.3176
23.2642
24.2118
23.9913
25.0912
24.7041
25.8549
25.4641
26.583
26.2611
27.2046
27.1408
27.7783
27.978
28.2744
28.8318
28.6046
29.8074
30.7326
28.87
1.15365
15.1651
2.37226
15.9831
3.59371
16.1611
4.81402
16.2631
6.03386
16.3764
7.25335
16.5158
8.47216
16.6848
9.68973
16.8846
10.9051
17.117
12.1175
17.3828
13.3245
17.6845
14.5249
18.0229
15.7209
18.3972
16.8853
18.8269
18.0792
19.2619
19.1872
19.8006
20.3235
20.3294
21.4315
20.917
22.487
21.5701
23.4573
22.2939
24.4122
23.0364
25.3394
23.7769
26.1533
24.6501
26.8751
25.5394
27.6023
26.4136
28.1953
27.3849
28.5751
28.452
29.0398
29.3427
30.4459
29.3266
1.13439
14.0307
2.33226
14.7852
3.53414
14.9592
4.73608
15.0611
5.93893
15.1736
7.14314
15.3116
8.34879
15.4791
9.55565
15.6778
10.7634
15.9092
11.9709
16.1753
13.1778
16.4775
14.3833
16.8174
15.5756
17.205
16.7886
17.6139
17.938
18.1125
19.1305
18.6081
20.2784
19.1814
21.3803
19.8152
22.4569
20.4935
23.5394
21.2113
24.5574
22.0184
25.4546
22.8796
26.3147
23.79
27.1793
24.6748
27.844
25.7489
28.4101
26.8188
29.0504
27.8118
29.33
29.063
30.2052
29.5707
1.10876
12.922
2.2793
13.6147
3.45504
13.7835
4.63201
13.8841
5.81122
13.9943
6.99343
14.1294
8.1791
14.2934
9.36838
14.4885
10.5614
14.7162
11.7576
14.9791
12.9574
15.2777
14.1546
15.6202
15.3673
15.9923
16.5428
16.4384
17.7609
16.8944
18.9422
17.4268
20.0968
18.0268
21.2566
18.6555
22.4144
19.3356
23.4614
20.1643
24.5176
20.9623
25.5089
21.8883
26.4692
22.8298
27.2173
23.9267
28.0051
24.961
28.7606
26.0633
29.1434
27.429
29.619
28.5875
29.8957
29.9284
1.07768
11.8443
2.21505
12.4773
3.35881
12.6397
4.50496
12.738
5.65456
12.8447
6.80869
12.9753
7.96807
13.1341
9.13353
13.323
10.3048
13.5449
11.4839
13.7999
12.6657
14.0959
13.8636
14.4224
15.0441
14.8118
16.261
15.2214
17.4655
15.6899
18.6434
16.2489
19.8423
16.828
21.0449
17.4529
22.144
18.2365
23.3467
18.9616
24.4091
19.8999
25.4476
20.8498
26.3975
21.8799
27.3592
22.965
28.1134
24.2068
28.7164
25.4603
29.431
26.7144
29.8481
28.1704
29.681
30.0628
1.04199
10.8023
2.14126
11.378
3.24809
11.5329
4.35837
11.6277
5.47322
11.7299
6.59386
11.8546
7.7216
12.0063
8.85678
12.1879
10.002
12.3997
11.1531
12.6488
12.3226
12.9265
13.4848
13.2602
14.6839
13.6127
15.8742
14.0311
17.0392
14.5249
18.282
15.006
19.494
15.616
20.6472
16.2997
21.892
16.9917
23.0163
17.8373
24.1963
18.7199
25.2794
19.7667
26.3204
20.839
27.2136
22.0718
28.1451
23.2753
28.8705
24.7349
29.4475
26.1374
29.9226
27.6952
29.369
30.2346
1.00252
9.79977
2.05976
10.3208
3.12559
10.4671
4.19585
10.5574
5.27159
10.6542
6.35433
10.7719
7.44517
10.9155
8.54648
11.0866
9.65609
11.2901
10.7842
11.5207
11.9107
11.8
13.0757
12.0951
14.2263
12.4622
15.3925
12.8649
16.6322
13.2852
17.7983
13.84
18.9962
14.418
20.2425
15.0534
21.4624
15.7718
22.6694
16.6303
23.7892
17.6
25.0176
18.5383
26.067
19.7896
27.1363
21.0024
27.9763
22.4354
28.8614
23.8498
29.4923
25.5065
29.9932
27.1943
29.0705
30.2917
0.960135
8.83964
1.97233
9.3086
2.99403
9.44537
4.02096
9.53051
5.05416
9.62096
6.09512
9.73093
7.14588
9.86472
8.20639
10.026
9.28333
10.2131
10.3644
10.4397
11.4815
10.6828
12.583
10.9936
13.7323
11.3129
14.9092
11.6881
16.0307
12.1637
17.2664
12.6042
18.4903
13.1941
19.6973
13.8464
20.8975
14.5716
22.159
15.3688
23.46
16.299
24.5649
17.4335
25.7885
18.566
26.865
19.9259
27.8889
21.4115
28.7111
23.0277
29.434
24.7836
29.9545
26.6737
28.6735
30.3516
0.91567
7.92397
1.88071
8.34356
2.85596
8.47011
3.83713
8.54934
4.82511
8.63298
5.8217
8.73434
6.82813
8.8583
7.8483
9.00587
8.87727
9.18417
9.93483
9.38213
10.9841
9.63351
12.09
9.88775
13.1889
10.214
14.2886
10.5884
15.5096
10.9427
16.6317
11.482
17.8224
12.0034
19.0835
12.5853
20.3491
13.306
21.5717
14.1462
22.8094
15.0613
24.1316
16.1112
25.3297
17.3679
26.4592
18.7964
27.5401
20.3305
28.5393
22.0285
29.3642
23.9586
29.951
26.087
28.3606
30.2639
0.869894
7.05407
1.78645
7.427
2.71377
7.5428
3.6475
7.61561
4.58849
7.69199
5.53833
7.7845
6.49953
7.8971
7.47172
8.03368
8.46439
8.19151
9.46006
8.38646
10.5015
8.5921
11.5296
8.85961
12.597
9.14654
13.7365
9.44897
14.7792
9.90005
15.9832
10.278
17.1997
10.787
18.3728
11.4122
19.599
12.0799
20.8999
12.8452
22.2322
13.729
23.4942
14.8492
24.7379
16.1243
26.1161
17.4182
27.2288
19.2178
28.249
21.0083
29.1359
23.0717
29.8337
25.3892
27.9401
30.2542
0.823491
6.23058
1.69098
6.55952
2.56956
6.66422
3.45492
6.73025
4.34775
6.79916
5.24989
6.88236
6.16279
6.9842
7.09057
7.1059
8.02897
7.2531
8.99671
7.41872
9.96436
7.62445
10.975
7.84897
12.0192
8.10234
13.0192
8.449
14.1815
8.73776
15.2813
9.17818
16.3952
9.67306
17.6177
10.1897
18.8817
10.8158
20.1731
11.5538
21.4095
12.4927
22.7817
13.477
24.2064
14.6996
25.416
16.2085
26.7927
17.8411
27.9173
19.8838
28.9086
22.0804
29.6589
24.6389
27.4962
30.1028
0.777056
5.45353
1.59549
5.74109
2.42517
5.83454
3.26183
5.89359
4.1061
5.95489
4.95961
6.02885
5.82467
6.11914
6.70231
6.22826
7.59824
6.35717
8.50723
6.50973
9.44241
6.68927
10.4075
6.88385
11.3577
7.15214
12.4299
7.37682
13.4278
7.73982
14.505
8.10107
15.6701
8.50793
16.8352
9.02467
18.0496
9.60131
19.2843
10.3192
20.6745
11.1025
22.001
12.1505
23.4065
13.2942
24.8341
14.7809
26.1443
16.5309
27.4894
18.5386
28.5967
20.9731
29.4883
23.7473
27.002
29.9825
0.731082
4.72244
1.50099
4.97118
2.28214
5.05339
3.07034
5.10539
3.86612
5.15911
4.67108
5.22389
5.48747
5.30274
6.31664
5.39909
7.16385
5.50996
8.02229
5.65129
8.92126
5.7903
9.79998
6.00513
10.7816
6.17052
11.7031
6.45536
12.7196
6.7233
13.7803
7.04037
14.8566
7.43158
15.9742
7.90712
17.1911
8.38436
18.4379
9.0724
19.6951
9.84524
21.1863
10.6593
22.5904
11.8901
24.054
13.3172
25.5695
15.0154
26.8911
17.2171
28.2033
19.6609
29.1992
22.7514
26.3238
29.8774
0.685973
4.03647
1.40831
4.24884
2.14173
4.31997
2.88216
4.36496
3.63001
4.41126
4.38695
4.46694
5.15464
4.53506
5.93683
4.61691
6.73003
4.71675
7.55487
4.82646
8.36898
4.97618
9.2632
5.11091
10.1198
5.3139
11.0408
5.53436
12.0131
5.75098
12.9998
6.05373
14.0187
6.41265
15.1524
6.77341
16.2769
7.25985
17.4851
7.86422
18.8694
8.46099
20.1182
9.41048
21.6704
10.3379
23.2119
11.7757
24.7696
13.4577
26.3894
15.5973
27.7106
18.3397
28.9402
21.5218
25.5849
29.6791
0.642045
3.39443
1.3181
3.57278
2.00495
3.63313
2.69863
3.67128
3.39959
3.7103
4.10903
3.75751
4.83035
3.81373
5.56029
3.88698
6.31825
3.95879
7.06178
4.08293
7.89026
4.14771
8.64408
4.35709
9.52716
4.43082
10.3799
4.68161
11.3028
4.82809
12.2016
5.15489
13.237
5.37731
14.2575
5.75294
15.3856
6.13166
16.5768
6.67305
17.7747
7.26315
19.2159
7.96927
20.5894
8.96442
22.2408
10.1242
23.9292
11.7693
25.6311
13.8953
27.3017
16.6691
28.5757
20.2478
24.5911
29.5695
0.599534
2.79489
1.23084
2.94147
1.87254
2.99143
2.52084
3.02297
3.17608
3.05507
3.83976
3.09382
4.5134
3.14008
5.20094
3.19944
5.89802
3.26171
6.6251
3.35585
7.35106
3.42175
8.11597
3.59217
8.93169
3.61511
9.68852
3.92477
10.6109
3.90572
11.4582
4.30754
12.4372
4.39839
13.3887
4.8014
14.5012
5.01918
15.5816
5.59265
16.8573
5.98739
18.0856
6.74104
19.682
7.36799
21.0627
8.7435
22.9925
9.83962
24.7612
12.1266
26.6882
14.7421
28.3177
18.6183
23.4622
29.4466
0.558618
2.23627
1.1469
2.35319
1.74509
2.39325
2.34956
2.4185
2.9607
2.44393
3.57951
2.47502
4.2095
2.5101
4.84649
2.56245
5.51133
2.59687
6.16
2.70718
6.89048
2.69126
7.5463
2.93636
8.35435
2.80706
9.03755
3.24157
9.95389
2.98938
10.6534
3.608
11.6817
3.37008
12.5201
3.96306
13.6266
3.91263
14.5875
4.63173
15.8524
4.72255
17.0475
5.54596
18.4987
5.91673
20.048
7.19419
21.8248
8.06284
23.7436
10.2078
26.0249
12.4608
27.8846
16.7586
21.777
29.5698
0.5194
1.71687
1.06649
1.8061
1.6229
1.83685
2.18526
1.85613
2.75387
1.87532
3.33
1.89888
3.91549
1.92461
4.5119
1.96603
5.12261
1.98616
5.74524
2.08455
6.40019
2.03631
7.03842
2.29813
7.78267
2.06281
8.41998
2.60425
9.26567
2.14369
9.97259
2.90109
10.9099
2.43279
11.6694
3.20354
12.7585
2.82353
13.6604
3.72978
14.8883
3.49474
15.9789
4.45529
17.456
4.43965
18.8196
5.8306
20.7646
6.11787
22.5379
8.43453
25.2866
9.71204
27.4888
14.5563
19.5561
29.7097
0.482011
1.23486
0.989924
1.29818
1.50648
1.32029
2.02866
1.33395
2.55669
1.3473
3.0918
1.36377
3.63562
1.38079
4.19006
1.4116
4.75642
1.4198
5.33864
1.50233
5.93841
1.43655
6.55076
1.68578
7.20136
1.4122
7.85504
1.95058
8.58618
1.41254
9.23803
2.24924
10.134
1.53684
10.8794
2.45808
11.8065
1.89646
12.7256
2.81066
13.8501
2.37024
14.9301
3.37527
16.3178
3.05199
17.7158
4.43255
19.4922
4.3415
21.5209
6.40581
23.9682
7.26476
27.1058
11.4188
16.5252
30.1367
0.446284
0.78858
0.916619
0.827847
1.39492
0.841987
1.87852
0.850348
2.36757
0.858253
2.8632
0.868134
3.36716
0.876837
3.88037
0.898383
4.40671
0.893459
4.94617
0.962864
5.49462
0.888106
6.09459
1.08581
6.64101
0.865792
7.33072
1.26087
7.9206
0.822658
8.70685
1.463
9.30676
0.936926
10.1968
1.56809
10.9308
1.16242
11.9577
1.7838
12.8337
1.49424
14.0691
2.13978
15.163
1.95818
16.7745
2.82101
18.2684
2.8476
20.584
4.09023
22.9856
4.86313
26.8866
7.51783
12.2792
31.1325
0.413229
0.37535
0.84966
0.391416
1.29313
0.398521
1.74158
0.401899
2.19498
0.404852
2.65456
0.408555
3.12041
0.410981
3.59811
0.420679
4.07356
0.418013
4.59378
0.442642
5.06145
0.420437
5.64692
0.500341
6.10749
0.405217
6.78205
0.586303
7.22392
0.38079
7.99819
0.688729
8.48798
0.44714
9.32431
0.731753
9.93014
0.556595
10.8755
0.838478
11.6479
0.721762
12.7812
1.00651
13.7889
0.950478
15.2828
1.32715
16.7346
1.39579
18.905
1.91985
21.3631
2.40495
25.7296
3.15142
6.62429
31.3845
0.37535
0.766767
1.16529
1.56719
1.97204
2.38059
2.79157
3.21225
3.63027
4.07291
4.49335
4.99369
5.3989
5.98521
6.366
7.05473
7.50187
8.23362
8.79021
9.62869
10.3505
11.357
12.3074
13.6346
15.0304
16.9502
19.3552
22.5066
29.1309
1.38406
54.0996
1.42401
54.1003
1.46352
54.1007
1.50242
54.1013
1.54084
54.1018
1.57876
54.1023
1.61603
54.103
1.65268
54.1036
1.68877
54.1041
1.72417
54.1048
1.75886
54.1055
1.79291
54.1062
1.82624
54.1069
1.85879
54.1077
1.89064
54.1084
1.92172
54.1092
1.95197
54.11
1.98145
54.1108
2.01012
54.1116
2.03792
54.1124
2.06489
54.1133
2.09101
54.1141
2.11623
54.115
2.14058
54.1159
2.16404
54.1168
2.18658
54.1177
2.20818
54.1186
2.2289
54.1195
2.24866
54.1205
2.26746
54.1214
2.28536
54.1223
2.30229
54.1233
2.31824
54.1243
2.33325
54.1252
2.3473
54.1262
2.36036
54.1272
2.37244
54.1282
2.38359
54.1291
2.39374
54.1301
2.40291
54.1311
2.4111
54.132
2.41834
54.133
2.4246
54.134
2.42987
54.135
2.43417
54.1359
2.43754
54.1369
2.43994
54.1378
2.44135
54.1388
2.44182
54.1398
2.44137
54.1407
2.43998
54.1416
2.43765
54.1426
2.43437
54.1435
2.43018
54.1444
2.4251
54.1453
2.41912
54.1462
2.41222
54.1471
2.40442
54.148
2.39574
54.1489
2.38621
54.1498
2.37584
54.1506
2.3646
54.1515
2.3525
54.1523
2.33954
54.1532
2.32577
54.154
2.31121
54.1548
2.29586
54.1556
2.27972
54.1564
2.26278
54.1572
2.24505
54.158
2.22653
54.1588
2.20728
54.1595
2.18731
54.1602
2.16663
54.1609
2.14525
54.1616
2.12315
54.1623
2.10033
54.1631
2.0768
54.1638
2.05258
54.1645
2.02771
54.1651
2.0022
54.1657
1.97606
54.1664
1.94931
54.167
1.92195
54.1676
1.89401
54.1682
1.86545
54.1688
1.83627
54.1694
1.8065
54.17
1.77613
54.1706
1.74521
54.1711
1.71377
54.1717
1.6818
54.1722
1.64932
54.1727
1.61633
54.1732
1.58285
54.1737
1.54888
54.1742
1.51445
54.1747
1.47954
54.1751
1.44419
54.1756
1.40837
54.1761
1.37207
54.1765
1.33531
54.177
1.29808
54.1775
1.26045
54.1779
1.22242
54.1783
1.18398
54.1787
1.14516
54.1791
1.10596
54.1794
1.06637
54.1798
1.02642
54.1802
0.986103
54.1806
0.945424
54.1809
0.904383
54.1813
0.862988
54.1816
0.821233
54.182
0.779124
54.1823
0.736653
54.1827
0.693825
54.1831
0.650626
54.1834
0.607052
54.1838
0.563088
54.1842
0.518725
54.1846
0.473939
54.185
0.428714
54.1855
0.38302
54.1859
0.33673
54.1865