/*--------------------------------*- C++ -*----------------------------------*\
| =========                 |                                                 |
| \\      /  F ield         | OpenFOAM: The Open Source CFD Toolbox           |
|  \\    /   O peration     | Version:  5.x                                   |
|   \\  /    A nd           | Web:      www.OpenFOAM.org                      |
|    \\/     M anipulation  |                                                 |
\*---------------------------------------------------------------------------*/
/*   Windows 32 and 64 bit porting by blueCAPE: http://www.bluecape.com.pt   *\
|  Based on Windows porting (2.0.x v4) by Symscape: http://www.symscape.com   |
\*---------------------------------------------------------------------------*/
FoamFile
{
    version     2.0;
    format      ascii;
    class       volVectorField;
    location    "30";
    object      U;
}
// * * * * * * * * * * * * * * * * * * * * * * * * * * * * * * * * * * * * * //

dimensions      [0 1 -1 0 0 0 0];

internalField   nonuniform List<vector> 
43900
(
(1.14711 0.00064541 -2.17389e-027)
(1.15525 0.00128084 -5.83541e-027)
(1.15536 0.00104962 1.65283e-030)
(1.15532 0.00123887 2.09772e-030)
(1.15531 0.00127879 2.14237e-030)
(1.15531 0.00135083 2.28977e-030)
(1.1553 0.00142037 7.77308e-027)
(1.15529 0.00149041 -1.55362e-026)
(1.15529 0.00156088 5.33473e-030)
(1.15528 0.00163171 -1.55197e-026)
(1.15528 0.00170282 1.55311e-026)
(1.15527 0.00177417 6.03561e-030)
(1.15527 0.00184566 -1.5501e-026)
(1.15527 0.00191714 1.29567e-029)
(1.15526 0.00198853 1.33882e-029)
(1.15526 0.0020599 1.38117e-029)
(1.15526 0.00213125 -3.09458e-026)
(1.15526 0.00220253 2.92707e-029)
(1.15526 0.00227372 3.09605e-026)
(1.15526 0.00234476 1.54304e-029)
(1.15526 0.00241566 1.58179e-029)
(1.15526 0.00248612 1.61992e-029)
(1.15526 0.00255607 1.65748e-029)
(1.15526 0.00262557 1.6946e-029)
(1.15526 0.00269464 1.73127e-029)
(1.15526 0.00276338 -3.07968e-026)
(1.15526 0.00283177 3.60589e-029)
(1.15526 0.00289976 3.67591e-029)
(1.15527 0.0029676 1.23073e-025)
(1.15296 0.00250336 0)
(1.16877 0.000406986 0)
(1.16893 0.00200965 0)
(1.16884 0.0015135 0)
(1.16888 0.0018505 0)
(1.16888 0.0020012 0)
(1.16889 0.00214548 0)
(1.1689 0.00229722 0)
(1.1689 0.00244645 0)
(1.16891 0.00259368 0)
(1.16891 0.00273907 0)
(1.16892 0.00288284 0)
(1.16893 0.00302534 0)
(1.16893 0.003166 0)
(1.16894 0.00330654 0)
(1.16894 0.00344583 0)
(1.16895 0.00358379 0)
(1.16896 0.0037205 0)
(1.16896 0.00385598 0)
(1.16897 0.00399039 0)
(1.16898 0.00412379 0)
(1.16899 0.00425527 0)
(1.169 0.00438593 0)
(1.16901 0.00451454 0)
(1.16902 0.00464417 0)
(1.16903 0.00477181 0)
(1.16904 0.00489822 0)
(1.16904 0.00502408 0)
(1.16905 0.00514605 0)
(1.13673 0.00579589 0)
(1.17143 -7.07486e-005 0)
(1.1731 0.00434523 0)
(1.17305 0.00213762 0)
(1.17306 0.0033656 0)
(1.17304 0.00321469 0)
(1.17304 0.00342985 0)
(1.17304 0.00361035 0)
(1.17303 0.0037947 0)
(1.17303 0.00398329 0)
(1.17303 0.00417535 0)
(1.17304 0.0043704 0)
(1.17304 0.00456785 0)
(1.17305 0.00476782 0)
(1.17306 0.00496858 0)
(1.17307 0.00517129 0)
(1.17308 0.0053749 0)
(1.17309 0.00557957 0)
(1.17311 0.00578482 0)
(1.17312 0.00599008 0)
(1.17314 0.00619712 0)
(1.17317 0.00640167 0)
(1.17319 0.00660894 0)
(1.17321 0.0068157 0)
(1.17324 0.00701998 0)
(1.17326 0.00722473 0)
(1.17329 0.00742799 0)
(1.17332 0.00763003 0)
(1.17335 0.00783317 2.06526e-027)
(1.09642 0.00486712 0)
(1.15784 -0.000340711 0)
(1.16263 0.00394804 0)
(1.16264 0.0019424 0)
(1.16256 0.0032147 0)
(1.16251 0.00315801 0)
(1.16247 0.00345264 0)
(1.16243 0.00370462 0)
(1.16239 0.00395786 0)
(1.16236 0.00421261 0)
(1.16234 0.00446851 0)
(1.16232 0.00472505 0)
(1.1623 0.00498172 0)
(1.16229 0.00524009 0)
(1.16229 0.00549811 0)
(1.16228 0.00575668 0)
(1.16229 0.00601468 0)
(1.16229 0.0062741 0)
(1.1623 0.00653288 0)
(1.16231 0.00679108 0)
(1.16233 0.00704914 0)
(1.16234 0.00730731 0)
(1.16236 0.00756687 0)
(1.16238 0.00782407 0)
(1.16241 0.00807966 0)
(1.16244 0.00833173 0)
(1.16248 0.00857889 0)
(1.16252 0.00882119 0)
(1.16257 0.00905929 2.25483e-027)
(1.08573 0.00182662 4.77503e-027)
(1.15043 -0.000112573 0)
(1.15719 0.00203271 0)
(1.15727 0.001464 0)
(1.15719 0.00223918 0)
(1.15716 0.00252349 0)
(1.15712 0.00291038 0)
(1.15709 0.00328224 0)
(1.15707 0.00365068 0)
(1.15706 0.00401495 0)
(1.15705 0.00437497 0)
(1.15704 0.00473129 0)
(1.15704 0.00508386 0)
(1.15705 0.00543211 0)
(1.15706 0.00577662 0)
(1.15708 0.00611711 0)
(1.1571 0.00645397 0)
(1.15712 0.0067858 0)
(1.15715 0.00711411 0)
(1.15719 0.00743797 0)
(1.15723 0.00775834 0)
(1.15724 0.00807228 0)
(1.15728 0.00838556 0)
(1.15733 0.00869372 0)
(1.15738 0.00899848 0)
(1.15744 0.00929879 0)
(1.15749 0.00959397 0)
(1.15755 0.0098853 0)
(1.15761 0.0101867 -9.42869e-027)
(1.08395 0.000711947 -5.0385e-027)
(1.14888 0.000394929 0)
(1.15619 0.00134511 0)
(1.15627 0.00155817 0)
(1.15624 0.00207342 0)
(1.15623 0.00249572 0)
(1.15623 0.0029338 0)
(1.15624 0.00336654 0)
(1.15625 0.00379648 0)
(1.15626 0.00422344 0)
(1.15628 0.00464717 0)
(1.15631 0.00506794 0)
(1.15634 0.00548561 0)
(1.15638 0.00589993 0)
(1.15643 0.00631118 0)
(1.15648 0.00671895 0)
(1.15654 0.0071237 0)
(1.1566 0.00752482 0)
(1.15667 0.00792275 0)
(1.15674 0.00831731 0)
(1.15683 0.00870835 0)
(1.15688 0.00909641 0)
(1.15697 0.00948021 0)
(1.15707 0.00986065 0)
(1.15717 0.0102384 0)
(1.15728 0.0106151 0)
(1.15738 0.0109934 0)
(1.15749 0.0113678 0)
(1.15761 0.0117333 4.98278e-027)
(1.08062 0.000265723 0)
(1.14574 0.000662156 0)
(1.15336 0.00125414 0)
(1.15344 0.00164248 0)
(1.15345 0.0021226 0)
(1.15347 0.00257737 0)
(1.1535 0.00303524 0)
(1.15353 0.00349051 0)
(1.15357 0.00394375 0)
(1.15361 0.00439495 0)
(1.15366 0.00484381 0)
(1.15372 0.00529045 0)
(1.15378 0.00573462 0)
(1.15385 0.00617626 0)
(1.15393 0.0066154 0)
(1.15401 0.00705173 0)
(1.15409 0.00748543 0)
(1.15419 0.00791626 0)
(1.15429 0.00834418 0)
(1.15439 0.00876934 0)
(1.15451 0.0091912 0)
(1.1546 0.00960987 0)
(1.15472 0.0100236 0)
(1.15485 0.0104344 0)
(1.15499 0.0108408 0)
(1.15513 0.0112431 0)
(1.15528 0.0116412 0)
(1.15543 0.012037 0)
(1.15558 0.0124242 0)
(1.07427 7.15037e-005 0)
(1.13918 0.000820924 0)
(1.14685 0.00130675 0)
(1.14693 0.00181479 0)
(1.14697 0.00234717 0)
(1.14701 0.00287352 0)
(1.14706 0.00339926 0)
(1.14712 0.00392298 0)
(1.14719 0.00444445 0)
(1.14727 0.00496362 0)
(1.14735 0.00548007 0)
(1.14744 0.00599377 0)
(1.14754 0.00650436 0)
(1.14764 0.00701173 0)
(1.14776 0.00751566 0)
(1.14788 0.00801591 0)
(1.14801 0.00851234 0)
(1.14814 0.00900472 0)
(1.14829 0.00949286 0)
(1.14844 0.00997651 0)
(1.14859 0.0104563 0)
(1.14875 0.0109294 0)
(1.14892 0.0113975 0)
(1.1491 0.0118605 0)
(1.14929 0.0123179 0)
(1.14948 0.01277 0)
(1.14969 0.0132157 0)
(1.1499 0.0136567 0)
(1.15013 0.0140899 0)
(1.06968 3.77115e-005 0)
(1.13402 0.000943451 0)
(1.14148 0.00146262 0)
(1.14156 0.00208254 0)
(1.14161 0.00270372 0)
(1.14166 0.00332368 0)
(1.14172 0.00394216 0)
(1.14179 0.00455846 0)
(1.14187 0.00517236 0)
(1.14197 0.00578353 0)
(1.14207 0.00639171 0)
(1.14218 0.00699656 0)
(1.1423 0.00759781 0)
(1.14244 0.00819515 0)
(1.14258 0.00878833 0)
(1.14273 0.00937702 0)
(1.14289 0.00996101 0)
(1.14306 0.01054 0)
(1.14324 0.0111137 0)
(1.14343 0.0116818 0)
(1.14363 0.0122445 0)
(1.14384 0.0128005 0)
(1.14406 0.0133504 0)
(1.14428 0.0138939 0)
(1.14452 0.0144306 0)
(1.14476 0.0149607 0)
(1.14501 0.0154838 0)
(1.14527 0.0160003 0)
(1.14555 0.0165092 0)
(1.06505 7.53291e-005 0)
(1.12896 0.00110737 0)
(1.13629 0.00172771 0)
(1.13639 0.00244488 0)
(1.13644 0.00316583 0)
(1.13651 0.00388662 0)
(1.13659 0.00460563 0)
(1.13668 0.00532211 0)
(1.13679 0.00603593 0)
(1.13691 0.00674645 0)
(1.13704 0.00745352 0)
(1.13719 0.00815656 0)
(1.13735 0.00885536 0)
(1.13752 0.0095494 0)
(1.1377 0.0102385 0)
(1.13789 0.0109221 0)
(1.1381 0.0116 0)
(1.13832 0.0122718 0)
(1.13855 0.0129373 0)
(1.1388 0.0135959 0)
(1.13905 0.0142476 0)
(1.13932 0.0148919 0)
(1.13959 0.0155285 0)
(1.13988 0.0161572 0)
(1.14018 0.0167777 0)
(1.14049 0.0173897 0)
(1.14081 0.0179931 0)
(1.14114 0.0185879 0)
(1.14147 0.0191733 -1.31578e-026)
(1.05952 9.70555e-005 0)
(1.12297 0.0012971 0)
(1.13018 0.0020282 0)
(1.13029 0.00286173 0)
(1.13035 0.00370178 0)
(1.13044 0.00454142 0)
(1.13054 0.00537864 0)
(1.13065 0.00621262 0)
(1.13079 0.00704319 0)
(1.13094 0.00786958 0)
(1.13111 0.0086916 0)
(1.13129 0.00950853 0)
(1.13149 0.0103201 0)
(1.1317 0.0111257 0)
(1.13193 0.0119251 0)
(1.13218 0.0127176 0)
(1.13244 0.0135029 0)
(1.13271 0.0142806 0)
(1.13301 0.0150503 0)
(1.13331 0.0158115 0)
(1.13363 0.016564 0)
(1.13396 0.0173072 0)
(1.13431 0.0180408 0)
(1.13467 0.0187646 0)
(1.13504 0.0194781 0)
(1.13543 0.0201809 0)
(1.13583 0.0208729 0)
(1.13624 0.0215539 0)
(1.13666 0.0222233 1.38981e-026)
(1.05329 0.000119854 0)
(1.11625 0.0015134 0)
(1.12332 0.00237199 0)
(1.12344 0.00334395 0)
(1.12353 0.00432437 0)
(1.12363 0.00530406 0)
(1.12376 0.00628047 0)
(1.1239 0.00725278 0)
(1.12407 0.00822061 0)
(1.12426 0.00918314 0)
(1.12446 0.01014 0)
(1.12469 0.0110904 0)
(1.12494 0.0120339 0)
(1.1252 0.0129698 0)
(1.12549 0.0138977 0)
(1.1258 0.014817 0)
(1.12612 0.0157271 0)
(1.12646 0.0166275 0)
(1.12682 0.0175177 0)
(1.1272 0.0183972 0)
(1.1276 0.0192656 0)
(1.12801 0.0201223 0)
(1.12844 0.020967 0)
(1.12889 0.0217991 0)
(1.12935 0.0226184 0)
(1.12982 0.0234242 0)
(1.13032 0.0242163 0)
(1.13082 0.0249946 0)
(1.13134 0.0257583 1.52014e-026)
(1.04644 0.000148887 0)
(1.10884 0.00176559 0)
(1.11578 0.00277465 0)
(1.11592 0.00390878 0)
(1.11602 0.00505365 0)
(1.11615 0.00619739 0)
(1.11631 0.00733683 0)
(1.11649 0.0084711 0)
(1.11669 0.00959954 0)
(1.11692 0.0107213 0)
(1.11718 0.0118357 0)
(1.11746 0.0129419 0)
(1.11777 0.0140392 0)
(1.1181 0.015127 0)
(1.11845 0.0162044 0)
(1.11883 0.0172709 0)
(1.11923 0.0183257 0)
(1.11965 0.0193682 0)
(1.1201 0.0203977 0)
(1.12056 0.0214137 0)
(1.12105 0.0224155 0)
(1.12156 0.0234026 0)
(1.12209 0.0243744 0)
(1.12263 0.0253303 0)
(1.1232 0.0262699 0)
(1.12379 0.0271927 0)
(1.12439 0.0280982 0)
(1.12501 0.0289861 0)
(1.12565 0.0298559 -1.60627e-026)
(1.03885 0.000184943 0)
(1.10066 0.00206029 0)
(1.10746 0.00324655 0)
(1.10762 0.00456995 0)
(1.10774 0.00590689 0)
(1.1079 0.00724218 0)
(1.10809 0.00857191 0)
(1.10832 0.00989508 0)
(1.10857 0.0112108 0)
(1.10886 0.0125179 0)
(1.10917 0.0138156 0)
(1.10952 0.0151029 0)
(1.10989 0.016379 0)
(1.1103 0.0176427 0)
(1.11074 0.0188934 0)
(1.1112 0.0201301 0)
(1.11169 0.0213519 0)
(1.11221 0.0225581 0)
(1.11275 0.0237479 0)
(1.11333 0.0249204 0)
(1.11392 0.026075 0)
(1.11455 0.027211 0)
(1.11519 0.0283276 0)
(1.11586 0.0294242 0)
(1.11656 0.0305002 0)
(1.11727 0.031555 0)
(1.11801 0.032588 0)
(1.11877 0.0335988 0)
(1.11954 0.034587 -1.76639e-026)
(1.03046 0.000229427 0)
(1.09161 0.00240288 0)
(1.09826 0.00379707 0)
(1.09845 0.00534059 0)
(1.0986 0.00690109 0)
(1.0988 0.00845921 0)
(1.09903 0.0100102 0)
(1.0993 0.0115528 0)
(1.09962 0.0130859 0)
(1.09997 0.0146081 0)
(1.10035 0.0161183 0)
(1.10078 0.0176152 0)
(1.10124 0.0190978 0)
(1.10174 0.0205647 0)
(1.10227 0.0220151 0)
(1.10284 0.0234476 0)
(1.10344 0.0248613 0)
(1.10407 0.0262552 0)
(1.10474 0.0276283 0)
(1.10544 0.0289796 0)
(1.10617 0.0303082 0)
(1.10693 0.0316132 0)
(1.10772 0.0328938 0)
(1.10853 0.0341492 0)
(1.10938 0.0353786 0)
(1.11024 0.0365814 0)
(1.11114 0.0377568 0)
(1.11206 0.0389042 0)
(1.113 0.0400235 1.86723e-026)
(1.02117 0.000284249 0)
(1.08161 0.00279946 0)
(1.08811 0.0044368 0)
(1.08832 0.00623543 0)
(1.08851 0.00805515 0)
(1.08875 0.00987148 0)
(1.08904 0.0116787 0)
(1.08937 0.0134753 0)
(1.08976 0.0152597 0)
(1.09018 0.0170304 0)
(1.09066 0.0187857 0)
(1.09118 0.0205243 0)
(1.09174 0.0222445 0)
(1.09235 0.023945 0)
(1.093 0.0256244 0)
(1.09369 0.0272813 0)
(1.09442 0.0289144 0)
(1.0952 0.0305224 0)
(1.09601 0.0321041 0)
(1.09686 0.0336583 0)
(1.09774 0.0351839 0)
(1.09867 0.0366797 0)
(1.09962 0.0381449 0)
(1.10061 0.0395784 0)
(1.10163 0.0409793 0)
(1.10269 0.0423468 0)
(1.10377 0.0436799 0)
(1.10488 0.044978 0)
(1.10601 0.0462412 0)
(1.01091 0.000351554 0)
(1.07057 0.00325665 0)
(1.07692 0.00517722 0)
(1.07717 0.00727039 0)
(1.0774 0.00938948 0)
(1.07769 0.0115039 0)
(1.07804 0.0136067 0)
(1.07845 0.0156961 0)
(1.07892 0.01777 0)
(1.07944 0.0198265 0)
(1.08002 0.0218636 0)
(1.08065 0.0238794 0)
(1.08133 0.0258721 0)
(1.08207 0.0278399 0)
(1.08286 0.029781 0)
(1.0837 0.0316937 0)
(1.08459 0.0335764 0)
(1.08553 0.0354275 0)
(1.08651 0.0372455 0)
(1.08754 0.0390289 0)
(1.08862 0.0407763 0)
(1.08973 0.0424865 0)
(1.09089 0.0441581 0)
(1.09208 0.0457902 0)
(1.09332 0.0473814 0)
(1.09459 0.0489309 0)
(1.09589 0.0504377 0)
(1.09722 0.0519006 0)
(1.09859 0.0533206 0)
(0.999595 0.000433912 0)
(1.05841 0.00378168 0)
(1.06461 0.00603105 0)
(1.0649 0.00846306 0)
(1.06518 0.0109266 0)
(1.06554 0.0133837 0)
(1.06596 0.0158262 0)
(1.06646 0.0182518 0)
(1.06702 0.0206578 0)
(1.06766 0.0230419 0)
(1.06836 0.0254015 0)
(1.06912 0.0277344 0)
(1.06996 0.0300381 0)
(1.07085 0.0323105 0)
(1.07181 0.0345493 0)
(1.07282 0.0367525 0)
(1.0739 0.0389179 0)
(1.07503 0.0410438 0)
(1.07622 0.0431281 0)
(1.07747 0.0451691 0)
(1.07876 0.0471651 0)
(1.08011 0.0491146 0)
(1.0815 0.0510161 0)
(1.08294 0.0528681 0)
(1.08442 0.0546693 0)
(1.08594 0.0564187 0)
(1.0875 0.0581149 0)
(1.0891 0.0597567 0)
(1.09074 0.0613456 0)
(0.987149 0.000534203 5.65597e-026)
(1.04504 0.0043822 0)
(1.05109 0.00701177 0)
(1.05143 0.00983211 0)
(1.05178 0.0126904 0)
(1.05221 0.0155401 0)
(1.05272 0.0183714 0)
(1.05332 0.0211814 0)
(1.05401 0.0239669 0)
(1.05477 0.0267249 0)
(1.05562 0.0294523 0)
(1.05654 0.032146 0)
(1.05755 0.0348033 0)
(1.05863 0.0374213 0)
(1.05978 0.0399974 0)
(1.06101 0.0425289 0)
(1.06231 0.0450132 0)
(1.06367 0.0474481 0)
(1.0651 0.0498312 0)
(1.0666 0.0521604 0)
(1.06815 0.0544336 0)
(1.06977 0.0566489 0)
(1.07144 0.0588046 0)
(1.07316 0.0608988 0)
(1.07493 0.0629303 0)
(1.07675 0.0648974 0)
(1.07862 0.066799 0)
(1.08053 0.068633 0)
(1.08248 0.0704025 0)
(0.973488 0.000655583 2.08487e-027)
(1.03038 0.00506589 0)
(1.03629 0.00813297 0)
(1.03669 0.0113965 0)
(1.0371 0.0147051 0)
(1.03762 0.0180025 0)
(1.03824 0.021277 0)
(1.03897 0.0245248 0)
(1.03979 0.0277421 0)
(1.04071 0.0309251 0)
(1.04173 0.0340698 0)
(1.04284 0.0371728 0)
(1.04405 0.0402303 0)
(1.04535 0.0432389 0)
(1.04674 0.0461953 0)
(1.04821 0.0490963 0)
(1.04977 0.0519388 0)
(1.0514 0.0547199 0)
(1.05312 0.0574367 0)
(1.05491 0.0600867 0)
(1.05677 0.0626675 0)
(1.0587 0.0651765 0)
(1.06069 0.0676118 0)
(1.06275 0.0699714 0)
(1.06486 0.0722535 0)
(1.06703 0.0744563 0)
(1.06925 0.0765787 0)
(1.07152 0.0786178 0)
(1.07383 0.0805785 0)
(0.958533 0.000801733 -6.55797e-026)
(1.01435 0.00584054 0)
(1.02012 0.00940881 0)
(1.02059 0.013176 0)
(1.02109 0.0169961 0)
(1.02171 0.0208017 0)
(1.02245 0.0245789 0)
(1.02332 0.0283231 0)
(1.02431 0.0320294 0)
(1.02541 0.0356932 0)
(1.02663 0.0393097 0)
(1.02797 0.0428745 0)
(1.02941 0.0463831 0)
(1.03097 0.0498312 0)
(1.03262 0.0532148 0)
(1.03439 0.05653 0)
(1.03625 0.0597729 0)
(1.0382 0.06294 0)
(1.04025 0.0660279 0)
(1.04238 0.0690334 0)
(1.0446 0.0719536 0)
(1.04689 0.0747857 0)
(1.04927 0.0775272 0)
(1.05171 0.0801757 0)
(1.05422 0.0827292 0)
(1.05679 0.0851857 0)
(1.05942 0.0875439 0)
(1.0621 0.0897997 0)
(1.06483 0.0919609 0)
(0.942211 0.00097648 0)
(0.996872 0.00671376 0)
(1.00251 0.0108531 0)
(1.00306 0.0151899 0)
(1.00365 0.0195881 0)
(1.0044 0.0239678 0)
(1.00529 0.0283125 0)
(1.00632 0.0326166 0)
(1.0075 0.0368742 0)
(1.00882 0.0410795 0)
(1.01027 0.0452268 0)
(1.01186 0.0493105 0)
(1.01358 0.0533252 0)
(1.01543 0.0572656 0)
(1.01741 0.0611269 0)
(1.0195 0.0649042 0)
(1.02172 0.0685929 0)
(1.02404 0.0721886 0)
(1.02647 0.0756874 0)
(1.029 0.0790852 0)
(1.03163 0.0823787 0)
(1.03435 0.0855644 0)
(1.03716 0.0886395 0)
(1.04005 0.091601 0)
(1.04302 0.0944466 0)
(1.04606 0.0971741 0)
(1.04916 0.0997821 0)
(1.05232 0.102265 0)
(1.05553 0.104635 0)
(0.924455 0.00118403 -8.18733e-026)
(0.977875 0.00769242 0)
(0.983395 0.0124786 0)
(0.984037 0.0174564 0)
(0.984745 0.0225043 0)
(0.985626 0.0275289 0)
(0.986682 0.0325109 0)
(0.987909 0.0374434 0)
(0.989306 0.0423193 0)
(0.99087 0.0471314 0)
(0.992597 0.0518729 0)
(0.994483 0.0565369 0)
(0.996524 0.0611169 0)
(0.998717 0.0656065 0)
(1.00106 0.0699996 0)
(1.00354 0.0742904 0)
(1.00615 0.0784734 0)
(1.0089 0.0825432 0)
(1.01177 0.086495 0)
(1.01476 0.0903241 0)
(1.01787 0.0940263 0)
(1.02108 0.0975975 0)
(1.02439 0.101034 0)
(1.02779 0.104333 0)
(1.03128 0.107492 0)
(1.03485 0.110508 0)
(1.0385 0.113379 0)
(1.0422 0.116098 0)
(1.04597 0.118681 7.19902e-026)
(0.905211 0.00142868 -3.22595e-027)
(0.957305 0.00878239 0)
(0.96272 0.0142965 0)
(0.96347 0.0199914 0)
(0.964305 0.0257651 0)
(0.965345 0.0315101 0)
(0.966591 0.0372035 0)
(0.968039 0.0428374 0)
(0.969688 0.0484029 0)
(0.971532 0.0538916 0)
(0.973568 0.059295 0)
(0.975791 0.0646048 0)
(0.978197 0.0698132 0)
(0.980781 0.0749125 0)
(0.983536 0.0798953 0)
(0.986457 0.0847545 0)
(0.989538 0.0894834 0)
(0.992771 0.0940756 0)
(0.996149 0.0985252 0)
(0.999665 0.102827 0)
(1.00331 0.106975 0)
(1.00708 0.110965 0)
(1.01097 0.114793 0)
(1.01496 0.118455 0)
(1.01905 0.121947 0)
(1.02322 0.125267 0)
(1.02748 0.128414 0)
(1.03181 0.131377 0)
(1.0362 0.134178 1.65048e-027)
(0.884435 0.00171442 9.53496e-026)
(0.935118 0.00998813 0)
(0.940445 0.0163156 0)
(0.941316 0.0228077 0)
(0.942296 0.0293871 0)
(0.943516 0.0359314 0)
(0.944976 0.0424144 0)
(0.946674 0.0488262 0)
(0.948606 0.0551566 0)
(0.950767 0.0613952 0)
(0.953153 0.067532 0)
(0.955758 0.0735571 0)
(0.958578 0.0794609 0)
(0.961604 0.0852341 0)
(0.964831 0.090868 0)
(0.968252 0.0963538 0)
(0.971858 0.101684 0)
(0.975642 0.10685 0)
(0.979594 0.111845 0)
(0.983707 0.116662 0)
(0.98797 0.121296 0)
(0.992374 0.12574 0)
(0.996909 0.129989 0)
(1.00157 0.13404 0)
(1.00633 0.137887 0)
(1.0112 0.141527 0)
(1.01616 0.144962 0)
(1.02119 0.148174 0)
(1.02629 0.151195 -8.25544e-026)
(0.8621 0.00204521 0)
(0.911288 0.011312 0)
(0.916547 0.0185413 0)
(0.917553 0.0259135 0)
(0.918695 0.033381 0)
(0.920114 0.0408064 0)
(0.921814 0.0481595 0)
(0.92379 0.0554289 0)
(0.926038 0.0626023 0)
(0.928554 0.0696675 0)
(0.931331 0.0766126 0)
(0.934364 0.0834256 0)
(0.937646 0.0900953 0)
(0.941169 0.0966104 0)
(0.944926 0.10296 0)
(0.948908 0.109135 0)
(0.953105 0.115124 0)
(0.957509 0.120918 0)
(0.962108 0.126509 0)
(0.966892 0.131889 0)
(0.971849 0.13705 0)
(0.976969 0.141985 0)
(0.982239 0.146689 0)
(0.987646 0.151155 0)
(0.993178 0.155379 0)
(0.998822 0.159357 0)
(1.00456 0.163089 0)
(1.01039 0.166554 0)
(1.01629 0.169794 0)
(0.838202 0.00242435 0)
(0.885813 0.012754 0)
(0.891023 0.0209745 0)
(0.892178 0.0293114 0)
(0.893497 0.0377502 0)
(0.895137 0.0461395 0)
(0.897099 0.0544449 0)
(0.899382 0.0626531 0)
(0.901979 0.0707497 0)
(0.904885 0.0787205 0)
(0.908095 0.0865513 0)
(0.911601 0.094228 0)
(0.915395 0.101737 0)
(0.91947 0.109065 0)
(0.923815 0.1162 0)
(0.928421 0.123129 0)
(0.933277 0.129839 0)
(0.938371 0.136321 0)
(0.943692 0.142562 0)
(0.949227 0.148555 0)
(0.954962 0.154288 0)
(0.960884 0.159754 0)
(0.966975 0.164947 0)
(0.973226 0.169857 0)
(0.979617 0.174483 0)
(0.98613 0.178812 0)
(0.992761 0.182854 0)
(0.999477 0.18658 0)
(1.00627 0.190031 9.82404e-026)
(0.812756 0.00285421 0)
(0.858713 0.014311 0)
(0.863894 0.0236112 0)
(0.865212 0.0329968 0)
(0.866723 0.0424892 0)
(0.8686 0.0519247 0)
(0.870848 0.0612643 0)
(0.873462 0.0704927 0)
(0.876438 0.0795936 0)
(0.87977 0.0885502 0)
(0.883451 0.0973459 0)
(0.887473 0.105964 0)
(0.891828 0.114389 0)
(0.896506 0.122605 0)
(0.901498 0.130597 0)
(0.906791 0.138349 0)
(0.912373 0.145848 0)
(0.918232 0.153079 0)
(0.924352 0.16003 0)
(0.930719 0.166688 0)
(0.937319 0.173045 0)
(0.944128 0.179085 0)
(0.951143 0.184803 0)
(0.958328 0.190195 0)
(0.965675 0.195239 0)
(0.973177 0.199945 0)
(0.98077 0.204311 0)
(0.988497 0.208281 0)
(0.996295 0.211965 1.69413e-027)
(0.785806 0.00333604 0)
(0.830035 0.0159766 0)
(0.835208 0.0264411 0)
(0.836699 0.0369567 0)
(0.838414 0.0475821 0)
(0.840544 0.0581433 0)
(0.843095 0.0685969 0)
(0.846063 0.0789258 0)
(0.849444 0.0891111 0)
(0.853231 0.0991338 0)
(0.857418 0.108975 0)
(0.861996 0.118614 0)
(0.866956 0.128034 0)
(0.872288 0.137215 0)
(0.877981 0.14614 0)
(0.884021 0.154789 0)
(0.890397 0.163147 0)
(0.897091 0.171197 0)
(0.904088 0.178919 0)
(0.911375 0.186308 0)
(0.918916 0.193335 0)
(0.926731 0.200003 0)
(0.934735 0.206297 0)
(0.942978 0.212181 0)
(0.951406 0.217708 0)
(0.959926 0.222792 0)
(0.968704 0.22747 0)
(0.977487 0.231762 0)
(0.986356 0.235598 -2.26271e-025)
(0.757422 0.00386957 0)
(0.799856 0.0177409 0)
(0.805038 0.0294478 0)
(0.806712 0.0411693 0)
(0.80864 0.0530016 0)
(0.811033 0.0647631 0)
(0.8139 0.0764065 0)
(0.817239 0.0879126 0)
(0.821044 0.0992603 0)
(0.825311 0.110428 0)
(0.830031 0.121393 0)
(0.835198 0.132135 0)
(0.840801 0.14263 0)
(0.846831 0.152857 0)
(0.853275 0.162794 0)
(0.860121 0.17242 0)
(0.86735 0.181713 0)
(0.874953 0.190652 0)
(0.882904 0.199227 0)
(0.891175 0.207392 0)
(0.899801 0.215175 0)
(0.908618 0.222518 0)
(0.917834 0.229402 0)
(0.927178 0.235912 0)
(0.936698 0.241847 0)
(0.94666 0.247366 0)
(0.95636 0.252494 0)
(0.966496 0.256873 0)
(0.976788 0.261064 -1.49805e-027)
(0.727704 0.00445282 0)
(0.768284 0.01959 0)
(0.773489 0.0326076 0)
(0.775352 0.0456031 0)
(0.777497 0.0587081 0)
(0.780158 0.0717373 0)
(0.783348 0.0846399 0)
(0.787066 0.0973946 0)
(0.791308 0.109978 0)
(0.796069 0.122367 0)
(0.801343 0.134535 0)
(0.807122 0.146458 0)
(0.813399 0.158111 0)
(0.82016 0.169465 0)
(0.827401 0.180501 0)
(0.835093 0.191183 0)
(0.843247 0.201495 0)
(0.851807 0.211415 0)
(0.860783 0.220884 0)
(0.870188 0.229966 0)
(0.879791 0.238508 0)
(0.890058 0.246593 0)
(0.900195 0.254261 0)
(0.910903 0.261166 0)
(0.922059 0.267816 0)
(0.932545 0.273814 0)
(0.944417 0.278978 0)
(0.955695 0.284113 0)
(0.96666 0.288219 1.29956e-025)
(0.696779 0.00508193 0)
(0.735456 0.0215068 0)
(0.740695 0.0358906 0)
(0.742747 0.0502173 0)
(0.745108 0.0646505 0)
(0.748034 0.079005 0)
(0.751546 0.0932273 0)
(0.755643 0.107295 0)
(0.760323 0.121182 0)
(0.765583 0.134863 0)
(0.771419 0.148309 0)
(0.777824 0.161493 0)
(0.78479 0.174382 0)
(0.792315 0.186956 0)
(0.800367 0.199164 0)
(0.80898 0.211007 0)
(0.818048 0.222422 0)
(0.827685 0.233379 0)
(0.837762 0.243934 0)
(0.84814 0.253841 0)
(0.859465 0.263376 0)
(0.870179 0.272333 0)
(0.882466 0.280428 0)
(0.894418 0.288478 0)
(0.905828 0.29543 0)
(0.919999 0.301587 0)
(0.931375 0.308082 0)
(0.944302 0.312529 0)
(0.958834 0.317189 1.40489e-025)
(0.664803 0.00575115 0)
(0.701538 0.0234708 0)
(0.706816 0.0392608 0)
(0.709053 0.0549624 0)
(0.711622 0.0707664 0)
(0.714805 0.0864918 0)
(0.718627 0.102084 0)
(0.723093 0.117518 0)
(0.728201 0.132768 0)
(0.733952 0.147805 0)
(0.740344 0.1626 0)
(0.747372 0.177117 0)
(0.75504 0.191335 0)
(0.763313 0.205188 0)
(0.772254 0.218703 0)
(0.781694 0.231746 0)
(0.791908 0.244387 0)
(0.802466 0.256553 0)
(0.813663 0.268045 0)
(0.825844 0.279256 0)
(0.837008 0.289626 0)
(0.851307 0.299235 0)
(0.863118 0.308897 0)
(0.876424 0.316869 0)
(0.892671 0.3245 0)
(0.903193 0.332451 0)
(0.920031 0.337375 0)
(0.935204 0.343594 0)
(0.946454 0.348551 -1.49246e-025)
(0.631957 0.00645304 0)
(0.666723 0.0254594 0)
(0.672039 0.0426773 0)
(0.674452 0.059782 0)
(0.677214 0.0769846 0)
(0.680634 0.0941123 0)
(0.684746 0.11111 0)
(0.689558 0.127954 0)
(0.695072 0.144615 0)
(0.701292 0.161066 0)
(0.708218 0.177269 0)
(0.71586 0.193203 0)
(0.724189 0.208792 0)
(0.733281 0.224087 0)
(0.742928 0.238871 0)
(0.753575 0.253379 0)
(0.764373 0.267238 0)
(0.776463 0.280612 0)
(0.788989 0.293597 0)
(0.800865 0.305614 0)
(0.817113 0.317059 0)
(0.827797 0.328453 0)
(0.844821 0.337746 0)
(0.861132 0.347163 0)
(0.871457 0.356911 0)
(0.893696 0.362118 0)
(0.906515 0.370853 0)
(0.920837 0.376302 0)
(0.94346 0.379828 1.59792e-025)
(0.598442 0.00717878 0)
(0.631223 0.0274483 0)
(0.636569 0.046096 0)
(0.639142 0.0646144 0)
(0.642077 0.0832271 0)
(0.645708 0.101773 0)
(0.650079 0.120199 0)
(0.655201 0.13848 0)
(0.661085 0.156591 0)
(0.667735 0.174496 0)
(0.675165 0.192175 0)
(0.683362 0.20955 0)
(0.692397 0.226682 0)
(0.70207 0.243298 0)
(0.712915 0.259796 0)
(0.723742 0.275406 0)
(0.736691 0.290989 0)
(0.748873 0.30566 0)
(0.762192 0.319806 0)
(0.779262 0.333129 0)
(0.788898 0.346617 0)
(0.810856 0.357394 0)
(0.823993 0.369076 0)
(0.837557 0.380742 0)
(0.863549 0.386176 0)
(0.873076 0.398624 0)
(0.893972 0.403927 0)
(0.916259 0.409043 0)
(0.927008 0.417209 -3.39033e-025)
(0.564473 0.00791851 0)
(0.595267 0.0294129 0)
(0.600629 0.0494716 0)
(0.603342 0.069396 0)
(0.606422 0.0894132 0)
(0.610228 0.109376 0)
(0.614816 0.129235 0)
(0.620205 0.148968 0)
(0.626407 0.168547 0)
(0.633439 0.18795 0)
(0.641303 0.207113 0)
(0.650059 0.226082 0)
(0.659561 0.244587 0)
(0.670302 0.263097 0)
(0.681022 0.280549 0)
(0.694516 0.298538 0)
(0.70586 0.314768 0)
(0.721363 0.331676 0)
(0.737117 0.34657 0)
(0.747567 0.362854 0)
(0.773271 0.374715 0)
(0.781806 0.389748 0)
(0.80268 0.402789 0)
(0.827434 0.409539 0)
(0.837005 0.426607 0)
(0.862859 0.429805 0)
(0.88228 0.439601 0)
(0.898477 0.448743 0)
(0.928141 0.449764 7.50971e-028)
(0.530274 0.00866203 0)
(0.559092 0.0313297 0)
(0.564449 0.0527602 0)
(0.567276 0.0740644 0)
(0.570468 0.0954627 0)
(0.574409 0.116824 0)
(0.579166 0.138104 0)
(0.584763 0.159284 0)
(0.591223 0.180345 0)
(0.598563 0.20124 0)
(0.606823 0.221991 0)
(0.615941 0.242388 0)
(0.626262 0.262831 0)
(0.636782 0.282251 0)
(0.650228 0.302579 0)
(0.660742 0.320447 0)
(0.67837 0.340475 0)
(0.690851 0.356575 0)
(0.705244 0.376363 0)
(0.73079 0.38909 0)
(0.737186 0.408907 0)
(0.764359 0.421416 0)
(0.784036 0.432542 0)
(0.796678 0.452188 0)
(0.828943 0.455318 0)
(0.843984 0.471223 0)
(0.868384 0.47767 0)
(0.894152 0.481729 0)
(0.909686 0.493272 1.46962e-027)
(0.496071 0.00939875 0)
(0.522936 0.0331766 0)
(0.528261 0.0559214 0)
(0.531173 0.0785621 0)
(0.534441 0.101301 0)
(0.53847 0.124025 0)
(0.54334 0.146697 0)
(0.549084 0.169306 0)
(0.555728 0.191826 0)
(0.563306 0.214255 0)
(0.571821 0.236471 0)
(0.581456 0.258714 0)
(0.591636 0.280191 0)
(0.604372 0.30255 0)
(0.614476 0.322413 0)
(0.633026 0.345251 0)
(0.641938 0.362797 0)
(0.662255 0.386307 0)
(0.682214 0.400019 0)
(0.689931 0.424352 0)
(0.722803 0.437472 0)
(0.735345 0.454125 0)
(0.756457 0.473248 0)
(0.787076 0.479392 0)
(0.801357 0.500627 0)
(0.834423 0.504162 0)
(0.853146 0.517459 0)
(0.87885 0.527606 0)
(0.91192 0.526573 2.02138e-025)
(0.462089 0.0101175 0)
(0.487032 0.0349331 0)
(0.492294 0.0589195 0)
(0.495259 0.0828382 0)
(0.498564 0.106863 0)
(0.502633 0.130897 0)
(0.507556 0.154916 0)
(0.513377 0.178913 0)
(0.520127 0.202877 0)
(0.527845 0.226761 0)
(0.536603 0.25065 0)
(0.546217 0.274136 0)
(0.557768 0.298181 0)
(0.567842 0.320429 0)
(0.58554 0.345249 0)
(0.592398 0.365193 0)
(0.617225 0.391347 0)
(0.628428 0.407214 0)
(0.644314 0.435892 0)
(0.674654 0.449233 0)
(0.683475 0.471403 0)
(0.715037 0.489963 0)
(0.736496 0.504115 0)
(0.755667 0.524423 0)
(0.792741 0.530972 0)
(0.809102 0.552128 0)
(0.843564 0.556642 0)
(0.872821 0.563598 0)
(0.894022 0.577482 -2.09234e-025)
(0.428543 0.0108063 0)
(0.451605 0.0365801 0)
(0.456768 0.061725 0)
(0.459753 0.0868499 0)
(0.463055 0.112091 0)
(0.467112 0.137371 0)
(0.47203 0.162677 0)
(0.477853 0.188006 0)
(0.484633 0.213358 0)
(0.492397 0.238724 0)
(0.501181 0.26401 0)
(0.51136 0.2895 0)
(0.521377 0.314214 0)
(0.536835 0.340282 0)
(0.543614 0.363479 0)
(0.569347 0.390558 0)
(0.574214 0.410821 0)
(0.598868 0.440913 0)
(0.620329 0.455335 0)
(0.631558 0.484692 0)
(0.668086 0.503266 0)
(0.679136 0.524428 0)
(0.711104 0.542179 0)
(0.74277 0.558785 0)
(0.759975 0.579546 0)
(0.80058 0.585055 0)
(0.828567 0.603044 0)
(0.854818 0.613029 0)
(0.89593 0.613474 2.22953e-025)
(0.395635 0.0114526 0)
(0.41686 0.0381009 0)
(0.421891 0.0643162 0)
(0.42486 0.0905647 0)
(0.428119 0.116941 0)
(0.432116 0.143391 0)
(0.436965 0.169907 0)
(0.442728 0.19651 0)
(0.449431 0.223173 0)
(0.457175 0.249954 0)
(0.466002 0.276748 0)
(0.475563 0.3036 0)
(0.488318 0.330615 0)
(0.496181 0.357093 0)
(0.519384 0.384457 0)
(0.521606 0.40964 0)
(0.551233 0.439377 0)
(0.562039 0.458489 0)
(0.58172 0.493077 0)
(0.613078 0.50925 0)
(0.6226 0.538173 0)
(0.66268 0.557278 0)
(0.684743 0.581883 0)
(0.70778 0.600077 0)
(0.751505 0.613067 0)
(0.776825 0.637053 0)
(0.808659 0.645421 0)
(0.854828 0.653094 0)
(0.880292 0.667805 0)
(0.363543 0.0120446 0)
(0.382986 0.0394828 0)
(0.387849 0.0666794 0)
(0.390767 0.0939601 0)
(0.393946 0.121385 0)
(0.397836 0.148916 0)
(0.402564 0.176567 0)
(0.40818 0.204334 0)
(0.414775 0.232304 0)
(0.422325 0.260284 0)
(0.430958 0.288736 0)
(0.441312 0.316725 0)
(0.450153 0.345849 0)
(0.468661 0.373656 0)
(0.471178 0.402691 0)
(0.500864 0.432745 0)
(0.505523 0.457002 0)
(0.532835 0.491838 0)
(0.550956 0.51134 0)
(0.569032 0.546047 0)
(0.606991 0.567489 0)
(0.621436 0.595329 0)
(0.654868 0.617025 0)
(0.696028 0.639475 0)
(0.717441 0.663671 0)
(0.756206 0.673332 0)
(0.804315 0.691513 0)
(0.830076 0.708701 0)
(0.879402 0.710693 2.33052e-025)
(0.33242 0.012577 0)
(0.350146 0.0407207 0)
(0.354806 0.0688073 0)
(0.35764 0.0970242 0)
(0.360703 0.125403 0)
(0.364446 0.153928 0)
(0.368993 0.182604 0)
(0.374428 0.211508 0)
(0.380758 0.240514 0)
(0.388164 0.270063 0)
(0.39665 0.29912 0)
(0.405533 0.329966 0)
(0.419228 0.358374 0)
(0.424333 0.390725 0)
(0.450007 0.420245 0)
(0.451812 0.448277 0)
(0.481498 0.485235 0)
(0.490102 0.508562 0)
(0.519647 0.545353 0)
(0.541612 0.56864 0)
(0.559642 0.604322 0)
(0.601429 0.627436 0)
(0.628572 0.657525 0)
(0.653079 0.680011 0)
(0.704764 0.703142 0)
(0.740994 0.724448 0)
(0.771621 0.742734 0)
(0.828863 0.749565 0)
(0.865801 0.767459 -1.04083e-026)
(0.302392 0.0130491 0)
(0.318475 0.0418157 0)
(0.322899 0.070699 0)
(0.325618 0.0997539 0)
(0.328537 0.128994 0)
(0.332092 0.158408 0)
(0.336424 0.188046 0)
(0.341584 0.217874 0)
(0.347692 0.248171 0)
(0.354696 0.278258 0)
(0.362703 0.309973 0)
(0.37285 0.339352 0)
(0.380136 0.373786 0)
(0.399531 0.402443 0)
(0.401451 0.436007 0)
(0.429363 0.471957 0)
(0.434581 0.497931 0)
(0.465301 0.537907 0)
(0.475233 0.564383 0)
(0.506175 0.606538 0)