/*--------------------------------*- C++ -*----------------------------------*\
| =========                 |                                                 |
| \\      /  F ield         | OpenFOAM: The Open Source CFD Toolbox           |
|  \\    /   O peration     | Version:  5.x                                   |
|   \\  /    A nd           | Web:      www.OpenFOAM.org                      |
|    \\/     M anipulation  |                                                 |
\*---------------------------------------------------------------------------*/
/*   Windows 32 and 64 bit porting by blueCAPE: http://www.bluecape.com.pt   *\
|  Based on Windows porting (2.0.x v4) by Symscape: http://www.symscape.com   |
\*---------------------------------------------------------------------------*/
FoamFile
{
    version     2.0;
    format      ascii;
    class       volScalarField;
    location    "360";
    object      epsilon;
}
// * * * * * * * * * * * * * * * * * * * * * * * * * * * * * * * * * * * * * //

dimensions      [0 2 -3 0 0 0 0];

internalField   nonuniform List<scalar> 
43900
(
0.00152925
0.00151909
0.00151979
0.00151971
0.00151968
0.00151966
0.00151967
0.00151967
0.00151967
0.00151967
0.00151967
0.00151968
0.00151968
0.00151968
0.00151968
0.00151968
0.00151968
0.00151968
0.00151968
0.00151969
0.00151969
0.00151969
0.00151969
0.00151969
0.00151968
0.00151968
0.00151968
0.00151969
0.00151969
0.000414069
3.81939e-005
3.16657e-005
3.15201e-005
3.27287e-005
3.27923e-005
3.28043e-005
3.27896e-005
3.27903e-005
3.27945e-005
3.27953e-005
3.27999e-005
3.28012e-005
3.28003e-005
3.28038e-005
3.28078e-005
3.28048e-005
3.28024e-005
3.28074e-005
3.28098e-005
3.28111e-005
3.28131e-005
3.28143e-005
3.28143e-005
3.28095e-005
3.28057e-005
3.28085e-005
3.28162e-005
3.28199e-005
0.0508459
0.00575466
0.000289888
1.14968e-005
1.71184e-006
1.32776e-006
1.32672e-006
1.40968e-006
1.41873e-006
1.41754e-006
1.41653e-006
1.41692e-006
1.41752e-006
1.41777e-006
1.41816e-006
1.41853e-006
1.41852e-006
1.41872e-006
1.41911e-006
1.41922e-006
1.41951e-006
1.41972e-006
1.41983e-006
1.41987e-006
1.41976e-006
1.42003e-006
1.42049e-006
1.42078e-006
1.42058e-006
0.146482
0.0437614
0.0096731
0.00132033
8.37327e-005
3.42679e-006
3.43091e-007
1.22648e-007
1.08351e-007
1.15558e-007
1.1987e-007
1.2022e-007
1.19648e-007
1.19502e-007
1.19636e-007
1.19689e-007
1.19673e-007
1.19716e-007
1.19767e-007
1.19787e-007
1.19812e-007
1.19824e-007
1.19853e-007
1.19892e-007
1.19912e-007
1.19936e-007
1.19951e-007
1.19946e-007
1.19967e-007
0.197722
0.0845205
0.0338717
0.0112575
0.00265142
0.000357956
2.25491e-005
9.70016e-007
8.46422e-008
2.22855e-008
1.64969e-008
1.70994e-008
1.84152e-008
1.86276e-008
1.84481e-008
1.84188e-008
1.84803e-008
1.84897e-008
1.84752e-008
1.84813e-008
1.84878e-008
1.84895e-008
1.84957e-008
1.85001e-008
1.85e-008
1.85018e-008
1.85082e-008
1.85126e-008
1.85203e-008
0.222729
0.109144
0.0533241
0.0251267
0.0105197
0.00333194
0.000710227
7.78833e-005
4.31646e-006
2.04561e-007
1.92486e-008
5.56037e-009
4.10094e-009
4.42525e-009
4.72615e-009
4.71232e-009
4.63375e-009
4.6459e-009
4.67422e-009
4.66804e-009
4.66713e-009
4.67156e-009
4.6744e-009
4.67575e-009
4.67723e-009
4.67866e-009
4.67964e-009
4.6804e-009
4.6816e-009
0.234075
0.123568
0.0660643
0.0352693
0.0183501
0.00889868
0.00355369
0.000972527
0.00015291
1.17227e-005
6.08079e-007
3.35405e-008
4.40012e-009
1.74196e-009
1.52047e-009
1.66603e-009
1.75047e-009
1.71512e-009
1.6967e-009
1.70925e-009
1.71026e-009
1.70539e-009
1.70516e-009
1.70558e-009
1.70581e-009
1.70687e-009
1.70804e-009
1.70794e-009
1.70778e-009
0.237368
0.131317
0.0739851
0.0421067
0.0239079
0.0132803
0.00696077
0.00317725
0.00104038
0.000216834
2.28423e-005
1.40461e-006
7.85351e-008
5.56626e-009
1.23648e-009
7.33186e-010
7.52174e-010
8.16079e-010
8.12971e-010
7.96255e-010
7.99585e-010
8.05886e-010
8.05149e-010
8.05305e-010
8.05552e-010
8.05049e-010
8.04902e-010
8.05361e-010
8.06152e-010
0.236347
0.135197
0.0789519
0.0468098
0.0279555
0.0166342
0.00969724
0.0053823
0.00268814
0.0010249
0.000248822
3.20621e-005
2.31085e-006
1.41287e-007
9.28786e-009
1.12567e-009
4.81332e-010
4.01111e-010
4.45141e-010
4.62772e-010
4.52351e-010
4.50639e-010
4.53123e-010
4.52976e-010
4.52823e-010
4.53359e-010
4.53473e-010
4.53162e-010
4.53314e-010
0.232033
0.135851
0.0813904
0.049657
0.030678
0.0190532
0.0117776
0.00713774
0.00413559
0.00217943
0.000920711
0.000246575
3.62902e-005
2.98792e-006
2.01977e-007
1.39664e-008
1.29731e-009
3.94806e-010
2.64489e-010
2.75538e-010
2.92629e-010
2.88337e-010
2.85315e-010
2.87352e-010
2.88377e-010
2.88256e-010
2.88309e-010
2.88494e-010
2.88362e-010
0.224937
0.134131
0.0817969
0.0509091
0.0321846
0.0205588
0.0131788
0.00839789
0.00524461
0.00313536
0.0017158
0.00077404
0.000220489
3.53477e-005
3.24137e-006
2.42724e-007
1.82373e-008
1.61428e-009
3.30014e-010
1.96567e-010
1.8794e-010
2.01529e-010
2.01133e-010
1.97394e-010
1.97698e-010
1.98799e-010
1.98945e-010
1.992e-010
1.99663e-010
0.216932
0.131309
0.0813395
0.0514327
0.0330901
0.0215688
0.0141726
0.00932641
0.00609049
0.00389331
0.00238209
0.00133787
0.00062723
0.00018554
3.17425e-005
3.192e-006
2.63686e-007
2.16567e-008
1.95775e-009
3.1483e-010
1.61608e-010
1.34757e-010
1.45136e-010
1.49218e-010
1.46781e-010
1.45857e-010
1.46338e-010
1.46456e-010
1.46568e-010
0.207996
0.127552
0.080059
0.051297
0.0334809
0.0221786
0.0148508
0.0100023
0.00673247
0.00448799
0.00292335
0.00182019
0.00104025
0.000497763
0.000149731
2.65898e-005
2.88605e-006
2.62439e-007
2.36614e-008
2.27239e-009
3.26465e-010
1.39004e-010
1.07047e-010
1.10765e-010
1.15759e-010
1.14161e-010
1.12879e-010
1.13263e-010
1.13451e-010
0.198324
0.123005
0.0780884
0.0506473
0.0334476
0.0224585
0.0152711
0.0104743
0.00721107
0.00495081
0.00335915
0.00222232
0.00140238
0.000810439
0.000390811
0.000117468
2.1156e-005
2.45749e-006
2.46407e-007
2.4505e-008
2.54689e-009
3.5173e-010
1.21696e-010
8.91627e-011
8.84799e-011
9.30872e-011
9.29781e-011
9.16307e-011
9.13744e-011
0.188136
0.11786
0.0755848
0.0495362
0.0330974
0.0224671
0.015478
0.010777
0.00755378
0.00530343
0.00370528
0.00255263
0.00171052
0.00109022
0.000633788
0.000305124
9.04764e-005
1.63125e-005
2.01761e-006
2.22191e-007
2.4304e-008
2.7466e-009
3.79974e-010
1.12512e-010
7.855e-011
7.07421e-011
7.49166e-011
7.72032e-011
7.64549e-011
0.177639
0.11231
0.0726866
0.0480897
0.0324486
0.022279
0.0155134
0.0109411
0.007784
0.00556395
0.00397553
0.00282053
0.00196848
0.00133256
0.000854856
0.000497216
0.000236229
6.88688e-005
1.2528e-005
1.65494e-006
1.99636e-007
2.395e-008
2.94519e-009
4.19083e-010
1.10913e-010
7.094e-011
6.05169e-011
6.26086e-011
6.49725e-011
0.166981
0.106487
0.0695124
0.0463923
0.0315916
0.0219006
0.0154189
0.0109937
0.00792269
0.00574898
0.0041833
0.00303675
0.0021842
0.00154169
0.00105247
0.000678188
0.000393579
0.000183154
5.25434e-005
9.74498e-006
1.38481e-006
1.83141e-007
2.4096e-008
3.22829e-009
4.80589e-010
1.15686e-010
6.39171e-011
5.31181e-011
5.33689e-011
0.156276
0.10049
0.0661397
0.0445108
0.0305707
0.0213862
0.0152051
0.0109577
0.00798805
0.0058727
0.00433926
0.00320902
0.00236282
0.00172012
0.00122596
0.000842624
0.000544424
0.000314395
0.000142534
4.04257e-005
7.71585e-006
1.18129e-006
1.70601e-007
2.4494e-008
3.56065e-009
5.58367e-010
1.24918e-010
5.97685e-011
4.82891e-011
0.145642
0.0944119
0.0626393
0.0424976
0.0294305
0.0207655
0.0148982
0.0108453
0.00798641
0.00594209
0.00445054
0.00334401
0.00251003
0.00187212
0.00137767
0.000990174
0.000684273
0.000442584
0.000253745
0.000111517
3.1453e-005
6.22026e-006
1.02598e-006
1.61222e-007
2.51562e-008
3.95392e-009
6.55083e-010
1.40426e-010
5.85641e-011
0.135175
0.08833
0.0590698
0.0403967
0.0282034
0.0200664
0.0145228
0.0106698
0.00794111
0.00596964
0.0045247
0.00344665
0.00262934
0.00200029
0.00150933
0.00112142
0.000811936
0.0005636
0.000364565
0.00020726
8.80072e-005
2.48871e-005
5.14355e-006
9.14511e-007
1.55885e-007
2.63193e-008
4.45932e-009
7.83042e-010
1.62842e-010
0.124952
0.0823058
0.0554781
0.0382429
0.0269153
0.0193077
0.0140923
0.0104458
0.00784719
0.00595987
0.00456787
0.00352294
0.00272597
0.00210884
0.00162414
0.0012385
0.000928245
0.000676525
0.000471457
0.000304929
0.000171956
7.05778e-005
2.01573e-005
4.37178e-006
8.35013e-007
1.53355e-007
2.78565e-008
5.06745e-009
9.27957e-010
0.115041
0.0763927
0.0519048
0.0360666
0.0255888
0.0185069
0.0136214
0.0101845
0.00772063
0.00592255
0.00458483
0.00357596
0.00280211
0.00219945
0.00172334
0.00134215
0.00103331
0.000780575
0.00057229
0.000400206
0.00025877
0.000144766
5.73623e-005
1.66672e-005
3.80251e-006
7.78367e-007
1.53736e-007
3.00187e-008
5.73481e-009
0.105498
0.0706349
0.0483829
0.0338922
0.024242
0.017677
0.0131191
0.0098925
0.00756532
0.00585617
0.00457873
0.00360919
0.00286109
0.00227509
0.00180943
0.0014344
0.00112861
0.000876574
0.000667004
0.000491755
0.000345073
0.000223177
0.000124219
4.81404e-005
1.42355e-005
3.41149e-006
7.45122e-007
1.57631e-007
3.22224e-008
0.0963679
0.0650674
0.0449394
0.0317402
0.0228904
0.01683
0.0125952
0.00957831
0.0073889
0.00577143
0.0045563
0.00362677
0.00290563
0.00233768
0.0018839
0.0015164
0.00121502
0.000965032
0.000755642
0.000578925
0.000429134
0.000302247
0.000195721
0.000108455
4.19029e-005
1.25989e-005
3.16154e-006
7.33256e-007
1.61528e-007
0.0876827
0.0597177
0.0415958
0.0296269
0.0215461
0.0159748
0.012056
0.00924603
0.00719376
0.00566815
0.00451445
0.00362725
0.00293597
0.00238817
0.0019479
0.00158929
0.00129349
0.00104668
0.000838607
0.000661667
0.000510245
0.000380265
0.000268904
0.000174432
9.63433e-005
3.74318e-005
1.15055e-005
3.02315e-006
7.24656e-007
0.0794636
0.054605
0.0383681
0.0275648
0.0202189
0.0151191
0.0115076
0.00890085
0.00698478
0.00555157
0.00446133
0.00361864
0.00295659
0.00242927
0.00200324
0.00165439
0.0013651
0.00112236
0.00091651
0.00074031
0.000588344
0.000456594
0.000342149
0.00024302
0.0001581
8.72969e-005
3.43037e-005
1.08515e-005
2.91451e-006
0.0717248
0.0497437
0.0352685
0.025564
0.0189166
0.0142688
0.0109546
0.00854631
0.00676446
0.00542309
0.0043964
0.00359813
0.00296711
0.00246152
0.00205075
0.00171254
0.00143056
0.00119269
0.000989834
0.000815161
0.000663502
0.000530961
0.000414643
0.000312461
0.000223043
0.000145739
8.06834e-005
3.22896e-005
1.03136e-005
0.0644728
0.0451434
0.0323062
0.0236321
0.0176454
0.0134288
0.0104007
0.00818505
0.00653467
0.00528408
0.00432073
0.00356671
0.00296726
0.00248494
0.00209068
0.00176417
0.0014904
0.00125817
0.00105904
0.000886583
0.000735933
0.000603365
0.000486063
0.000381932
0.000289491
0.000207824
0.000136567
7.62342e-005
3.05475e-005
0.0577087
0.0408096
0.0294875
0.021775
0.0164102
0.0126031
0.00984897
0.00781959
0.00629758
0.00513662
0.00423658
0.00352789
0.00296154
0.00250206
0.00212453
0.00181022
0.00154528
0.00131934
0.00112455
0.000954935
0.000805907
0.000673949
0.00055636
0.000451095
0.000356648
0.00027198
0.000196498
0.000130364
7.22427e-005
0.0514299
0.0367455
0.0268173
0.0199972
0.0152149
0.0117947
0.00930204
0.00745196
0.00605473
0.00498174
0.00414447
0.00348105
0.00294771
0.00251224
0.00215232
0.00185098
0.00159557
0.00137656
0.00118673
0.00102052
0.000873673
0.000742878
0.00062558
0.000519816
0.000424104
0.000337368
0.000258905
0.000188465
0.000126071
0.0456297
0.0329516
0.0242985
0.0183025
0.0140629
0.0110067
0.00876207
0.00708382
0.0058073
0.00482025
0.00404488
0.0034265
0.00292605
0.00251519
0.00217392
0.00188645
0.00164136
0.00143001
0.00124578
0.00108358
0.000939455
0.000810343
0.000693847
0.000588112
0.000491711
0.000403582
0.000322976
0.000249474
0.000183026
0.0402989
0.0294266
0.0219331
0.0166936
0.012957
0.0102413
0.00823103
0.00671667
0.00555647
0.00465311
0.00393872
0.0033653
0.00289834
0.00251275
0.00219035
0.00191723
0.00168307
0.00147999
0.00130197
0.00114435
0.00100349
0.000876563
0.000761348
0.000656109
0.000559501
0.0004705
0.000388361
0.000312599
0.000242996
0.0354254
0.0261677
0.0197218
0.0151726
0.0118995
0.00950063
0.00771068
0.00635194
0.00530334
0.00448114
0.00382658
0.00329778
0.00286455
0.00250487
0.00220174
0.00194352
0.00172088
0.0015267
0.00135551
0.00120305
0.001066
0.000941771
0.000828309
0.00072401
0.000627623
0.000538186
0.000454982
0.000377513
0.000305485
0.030995
0.0231703
0.0176645
0.0137411
0.0108925
0.00878677
0.00720272
0.00599095
0.00504887
0.00430501
0.00370881
0.00322403
0.00282431
0.00249028
0.00220743
0.00196499
0.00175468
0.00157015
0.00140648
0.00125983
0.00112719
0.0010062
0.000894985
0.000792075
0.000696321
0.000606837
0.000522953
0.000444194
0.000370245
0.0269907
0.0204283
0.01576
0.0124001
0.00993776
0.00810149
0.00670875
0.00563501
0.00479408
0.00412544
0.00358594
0.00314445
0.00277816
0.00247013
0.00220756
0.00198172
0.00178453
0.00161041
0.001455
0.00131486
0.00118728
0.00107011
0.000961678
0.000860633
0.000765936
0.000676781
0.000592562
0.000512845
0.000437334
0.023394
0.0179344
0.0140065
0.0111501
0.00903665
0.00744649
0.00623035
0.00528544
0.00454
0.0039432
0.00345854
0.00305947
0.00272643
0.00244483
0.00220371
0.00199441
0.00181076
0.00164768
0.00150123
0.00136832
0.00124649
0.00113382
0.00102876
0.000930108
0.000836927
0.000748495
0.000664274
0.000583886
0.00050708
0.0201839
0.0156798
0.0124009
0.00999101
0.00819039
0.00682334
0.00576908
0.00494361
0.00428772
0.0037591
0.00332714
0.00296938
0.00266914
0.0024139
0.00219424
0.00200236
0.00183306
0.00168184
0.0015452
0.00142034
0.00130508
0.00119765
0.00109666
0.00100102
0.000909888
0.00082262
0.000738751
0.000657967
0.000580077
0.017338
0.0136542
0.0109396
0.00892229
0.00739987
0.00623347
0.00532645
0.00461087
0.00403835
0.003574
0.00319233
0.00287451
0.00260641
0.00237735
0.00217911
0.00200521
0.00185117
0.00171274
0.00158684
0.001471
0.00136323
0.00126194
0.00116587
0.001074
0.000985575
0.000900009
0.000816907
0.000736021
0.00065723
0.0148324
0.0118464
0.00961783
0.00794272
0.00666557
0.00567811
0.00490392
0.00428861
0.00379307
0.00338879
0.00305476
0.00277528
0.00253851
0.0023354
0.00215891
0.00200351
0.00186521
0.00174031
0.00162607
0.00152027
0.00142108
0.00132702
0.0012369
0.00114977
0.0010649
0.000981743
0.000899955
0.000819339
0.000739845
0.012642
0.0102438
0.00843006
0.00705046
0.00598762
0.0051583
0.00450284
0.00397822
0.00355313
0.00320451
0.00291518
0.00267219
0.00246568
0.00228804
0.00213334
0.00199702
0.00187479
0.00176414
0.00166253
0.00156788
0.00147849
0.00139295
0.00131009
0.00122895
0.00114879
0.00106906
0.000989382
0.000909595
0.000829701
0.0107409
0.008833
0.00736989
0.00624308
0.00536572
0.00467486
0.00412456
0.00368119
0.00331996
0.00302242
0.00277463
0.00256601
0.00238839
0.00223543
0.00210213
0.00198448
0.00187907
0.00178356
0.00169557
0.00161326
0.00153503
0.00145948
0.00138545
0.00131191
0.00123802
0.00116312
0.00108676
0.00100872
0.000928985
0.00910289
0.00759993
0.00643028
0.00551764
0.00479933
0.00422858
0.00377056
0.00339933
0.00309547
0.00284435
0.00263479
0.00245819
0.00230787
0.00217856
0.00206609
0.00196703
0.00187851
0.00179857
0.00172495
0.00165599
0.00159018
0.00152617
0.0014627
0.00139862
0.00133294
0.00126477
0.00119346
0.00111858
0.00104002
0.00770237
0.00653033
0.00560387
0.00487101
0.00428784
0.00382042
0.00344274
0.00313507
0.00288237
0.00267314
0.00249848
0.00235148
0.00222669
0.00211979
0.00202732
0.00194647
0.00187495
0.00181037
0.00175139
0.00169643
0.00164406
0.00159291
0.00154165
0.00148899
0.00143368
0.00137452
0.00131047
0.00124075
0.00116491
0.00651459
0.00561017
0.00488334
0.00430005
0.00383086
0.00345175
0.00314365
0.00289175
0.00268453
0.00251303
0.00237019
0.00225047
0.00214946
0.00206364
0.00199018
0.00192676
0.00187146
0.00182202
0.00177759
0.00173682
0.00169839
0.00166098
0.00162323
0.00158369
0.00154082
0.00149303
0.00143875
0.00137659
0.0013055
0.00551642
0.00482612
0.00426165
0.00380191
0.00342835
0.00312448
0.00287662
0.00267379
0.00250721
0.00236991
0.00225631
0.00216195
0.00208324
0.00201734
0.00196193
0.00191515
0.00187502
0.00183977
0.00180928
0.00178232
0.00175773
0.0017343
0.0017107
0.00168539
0.00165658
0.00162225
0.00158017
0.00152809
0.00146399
0.00468647
0.00416562
0.00373213
0.00337395
0.00308051
0.00284094
0.00264562
0.00248646
0.0023568
0.00225116
0.00216507
0.00209486
0.00203761
0.00199094
0.00195297
0.00192124
0.00189444
0.00187308
0.00185585
0.00184196
0.00183052
0.00182055
0.00181095
0.00180016
0.00178621
0.0017668
0.00173896
0.00169921
0.00164415
0.004005
0.00361685
0.00328834
0.00301352
0.0027875
0.00260346
0.00245474
0.00233543
0.00224037
0.00216517
0.00210611
0.00206004
0.00202445
0.00199643
0.00197381
0.00195655
0.00194416
0.00193628
0.00193162
0.00192975
0.00193028
0.00193252
0.00193597
0.00193905
0.00193951
0.00193575
0.0019236
0.00189776
0.00185319
0.00345362
0.00316836
0.0029237
0.00271755
0.0025489
0.00241378
0.00230765
0.00222614
0.0021651
0.00212087
0.00209018
0.00206894
0.00205454
0.00204599
0.00204221
0.00204202
0.00204471
0.00205027
0.0020575
0.0020666
0.00207768
0.00209066
0.00210532
0.00212074
0.00213518
0.00214607
0.00214783
0.00213689
0.00210459
0.00301486
0.00280876
0.0026311
0.00248211
0.00236329
0.00227262
0.00220706
0.00216336
0.0021379
0.00212703
0.0021263
0.00213337
0.00214707
0.00216441
0.00218402
0.00220448
0.00222475
0.00224479
0.00226457
0.00228451
0.00230523
0.00232728
0.00235106
0.0023764
0.00240234
0.00242628
0.00244299
0.0024421
0.00242
0.00267206
0.0025266
0.00240284
0.00230231
0.00222808
0.00217949
0.00215456
0.0021511
0.00216385
0.00219118
0.00223
0.00227647
0.00232762
0.00238006
0.00243134
0.0024799
0.00252461
0.0025652
0.00260189
0.00263545
0.00266699
0.00269777
0.00272903
0.00276161
0.00279572
0.00282926
0.00285824
0.00286594
0.00284741
0.00240945
0.0023105
0.00223075
0.0021724
0.00213959
0.00213279
0.0021506
0.00219068
0.00225101
0.00232893
0.00242018
0.00251992
0.00262416
0.00272856
0.00282936
0.0029236
0.00300922
0.00308521
0.00315148
0.0032088
0.0032586
0.0033027
0.0033433
0.00338246
0.00342222
0.00346091
0.00349761
0.00350678
0.00348391
0.00221252
0.00214952
0.00210652
0.00208615
0.00209339
0.00212945
0.00219417
0.00228768
0.00240778
0.00255113
0.00271374
0.00289033
0.00307523
0.00326233
0.00344566
0.00361997
0.00378106
0.00392606
0.0040535
0.00416319
0.00425605
0.00433376
0.00439927
0.00445599
0.00450861
0.00455393
0.00459633
0.00459563
0.00455271
0.00206831
0.00203355
0.00202213
0.00203705
0.00208433
0.00216646
0.0022861
0.0024438
0.00263895
0.00286961
0.00313228
0.00342152
0.00373045
0.00405096
0.00437437
0.00469219
0.00499681
0.00528203
0.00554335
0.00577795
0.00598446
0.00616254
0.00631541
0.00644872
0.00656125
0.00664803
0.00671873
0.00671631
0.00662008
0.00196568
0.00195354
0.00196999
0.00201891
0.00210756
0.00224098
0.00242363
0.00265904
0.0029497
0.00329646
0.00369805
0.00415054
0.00464738
0.00517965
0.00573667
0.00630703
0.00687956
0.00744423
0.00799273
0.00851864
0.00901714
0.00948409
0.00991817
0.0103225
0.0106915
0.0110102
0.0112652
0.0114415
0.0111997
0.00189526
0.00190162
0.00194351
0.00202607
0.00215823
0.00234797
0.00260332
0.00293241
0.00334286
0.00384093
0.00443068
0.00511306
0.0058855
0.00674187
0.00767317
0.00866855
0.00971679
0.0108077
0.0119332
0.0130881
0.0142701
0.0154788
0.0167112
0.0179717
0.019272
0.0205942
0.0218091
0.0233844
0.0228083
0.00184932
0.00187109
0.00193693
0.0020529
0.00223088
0.00248233
0.00282063
0.00326052
0.00381756
0.00450719
0.00534342
0.00633768
0.00749788
0.00882817
0.0103295
0.012001
0.0138421
0.0158548
0.0180468
0.0204334
0.023041
0.0259072
0.029088
0.0326243
0.036656
0.0412645
0.0463627
0.0543592
0.0538631
0.00182161
0.00185641
0.00194501
0.00209449
0.0023202
0.00263848
0.00306958
0.00363727
0.00436857
0.0052928
0.00644031
0.0078411
0.00952378
0.0115152
0.0138415
0.0165298
0.0196124
0.023131
0.0271435
0.031732
0.0370141
0.0431522
0.0503953
0.0590291
0.0696736
0.0826603
0.0997226
0.125774
0.132545
0.00180725
0.00185302
0.00196353
0.00214625
0.00242126
0.00281062
0.00334319
0.00405442
0.0049867
0.00618895
0.00771582
0.00962677
0.0119855
0.0148604
0.0183265
0.02247
0.0273946
0.0332323
0.0401573
0.0484064
0.0583125
0.0703364
0.0851962
0.103787
0.128097
0.159253
0.205371
0.267719
0.311603
0.00180319
0.00185801
0.00198989
0.00220531
0.00253064
0.00299437
0.00363568
0.00450441
0.00566258
0.00718523
0.00916086
0.0116921
0.0148968
0.018911
0.0238943
0.0300387
0.0375826
0.0468319
0.0581914
0.0722088
0.0896554
0.111607
0.139764
0.176318
0.226237
0.292442
0.398688
0.527313
0.691273
0.00151969
0.00151969
0.00151968
0.00151968
0.00151969
0.0015197
0.0015197
0.00151969
0.00151969
0.00151969
0.0015197
0.0015197
0.0015197
0.00151969
0.0015197
0.0015197
0.00151969
0.00151968
0.00151969
0.00151971
0.00151971
0.0015197
0.00151968
0.00151968
0.00151969
0.0015197
0.0015197
0.00151971
0.00151971
0.0015197
0.00151969
0.00151967
0.00151968
0.0015197
0.0015197
0.0015197
0.0015197
0.0015197
0.0015197
0.0015197
0.0015197
0.0015197
0.0015197
0.0015197
0.0015197
0.0015197
0.0015197
0.0015197
0.0015197
0.0015197
0.0015197
0.0015197
0.0015197
0.0015197
0.0015197
0.0015197
0.0015197
0.0015197
0.0015197
0.0015197
0.0015197
0.0015197
0.0015197
0.0015197
0.0015197
0.0015197
0.0015197
0.0015197
0.0015197
0.0015197
0.0015197
0.0015197
0.0015197
0.0015197
0.0015197
0.0015197
0.00151971
0.00151971
0.00151971
0.00151971
0.00151971
0.00151971
0.00151971
0.00151971
0.00151971
0.00151971
0.00151971
0.0015197
0.00151971
0.00151971
0.00151971
0.00151971
0.00151971
0.00151971
0.00151971
0.00151971
0.00151971
0.00151971
0.00151971
0.00151971
0.00151971
0.00151971
0.00151971
0.00151971
0.00151971
0.00151971
0.00151971
0.00151971
0.00151971
0.00151971
0.00151971
0.00151971
0.00151971
0.00151971
0.00151971
0.00151971
0.00151971
0.00151971
0.00151971
0.00151971
0.00151971
0.00151971
0.00151971
0.00151971
0.00151971
0.00151971
0.00151971
0.00151971
0.00151971
0.00151971
0.00151971
0.00151972
0.00151971
0.00151972
0.00151972
0.00151972
0.00151972
0.00151973
0.00154195
3.28183e-005
3.28119e-005
3.28082e-005
3.281e-005
3.28194e-005
3.2828e-005
3.28276e-005
3.28191e-005
3.28116e-005
3.28162e-005
3.28288e-005
3.28317e-005
3.28232e-005
3.28216e-005
3.28302e-005
3.2831e-005
3.28189e-005
3.281e-005
3.28173e-005
3.28369e-005
3.28426e-005
3.28248e-005
3.28062e-005
3.28011e-005
3.28186e-005
3.28262e-005
3.2827e-005
3.28346e-005
3.28429e-005
3.28317e-005
3.28122e-005
3.27981e-005
3.28064e-005
3.28234e-005
3.28248e-005
3.28243e-005
3.2824e-005
3.28238e-005
3.28238e-005
3.28238e-005
3.28239e-005
3.28241e-005
3.28244e-005
3.28248e-005
3.28252e-005
3.28254e-005
3.28257e-005
3.28257e-005
3.2826e-005
3.28262e-005
3.28264e-005
3.28267e-005
3.2827e-005
3.28274e-005
3.28277e-005
3.2828e-005
3.28285e-005
3.28288e-005
3.28293e-005
3.28295e-005
3.28298e-005
3.28303e-005
3.28304e-005
3.2831e-005
3.28311e-005
3.28317e-005
3.28318e-005
3.28327e-005
3.28324e-005
3.2833e-005
3.28335e-005
3.2833e-005
3.28348e-005
3.28338e-005
3.2835e-005
3.28343e-005
3.28356e-005
3.28362e-005
3.28365e-005
3.28387e-005
3.28391e-005
3.2841e-005
3.28397e-005
3.28368e-005
3.2837e-005
3.28386e-005
3.28384e-005
3.28351e-005
3.28393e-005
3.28413e-005
3.28403e-005
3.28395e-005
3.28397e-005
3.28401e-005
3.28405e-005
3.28405e-005
3.28409e-005
3.2841e-005
3.28412e-005
3.28414e-005
3.28415e-005
3.28416e-005
3.28417e-005
3.28418e-005
3.28418e-005
3.28418e-005
3.28418e-005
3.28419e-005
3.2842e-005
3.28421e-005
3.28421e-005
3.28423e-005
3.28423e-005
3.28424e-005
3.28424e-005
3.28425e-005
3.28425e-005
3.28425e-005
3.28425e-005
3.28425e-005
3.28424e-005
3.28423e-005
3.28422e-005
3.28423e-005
3.28424e-005
3.28426e-005
3.28427e-005
3.28432e-005
3.28427e-005
3.28436e-005
3.28442e-005
3.28471e-005
3.28458e-005
3.28504e-005
3.28479e-005
3.2854e-005
3.28532e-005
3.28694e-005
3.51656e-005
1.4205e-006
1.42047e-006
1.42061e-006
1.42114e-006
1.42184e-006
1.4217e-006
1.42088e-006
1.42034e-006
1.42083e-006
1.42194e-006
1.42232e-006
1.4215e-006
1.42081e-006
1.42142e-006
1.42219e-006
1.42194e-006
1.42097e-006
1.42065e-006
1.42158e-006
1.42199e-006
1.42148e-006
1.42028e-006
1.42022e-006
1.42092e-006
1.42202e-006
1.42191e-006
1.42207e-006
1.4225e-006
1.42218e-006
1.421e-006
1.42069e-006
1.42084e-006
1.42224e-006
1.42255e-006
1.42245e-006
1.42248e-006
1.42253e-006
1.42256e-006
1.4226e-006
1.42264e-006
1.42269e-006
1.42275e-006
1.42282e-006
1.4229e-006
1.42296e-006
1.42301e-006
1.42306e-006
1.42308e-006
1.42314e-006
1.42317e-006
1.42322e-006
1.42327e-006
1.42333e-006
1.42339e-006
1.42344e-006
1.42349e-006
1.42356e-006
1.42361e-006
1.42368e-006
1.42372e-006
1.42378e-006
1.42384e-006
1.42388e-006
1.42396e-006
1.42399e-006
1.42406e-006
1.42409e-006
1.42418e-006
1.42419e-006
1.42427e-006
1.42433e-006
1.42432e-006
1.42447e-006
1.42444e-006
1.42456e-006
1.42457e-006
1.42466e-006
1.42477e-006
1.4248e-006
1.42475e-006
1.42487e-006
1.42504e-006
1.42498e-006
1.42498e-006
1.42491e-006
1.425e-006
1.42478e-006
1.42478e-006
1.42506e-006
1.42511e-006
1.4251e-006
1.42512e-006
1.42515e-006
1.42516e-006
1.42517e-006
1.42518e-006
1.42522e-006
1.42523e-006
1.42525e-006
1.42526e-006
1.42527e-006
1.42528e-006
1.42528e-006
1.42528e-006
1.42527e-006
1.42527e-006
1.42525e-006
1.42525e-006
1.42524e-006
1.42523e-006
1.42522e-006
1.42521e-006
1.42519e-006
1.42517e-006
1.42515e-006
1.4251e-006
1.42508e-006
1.42503e-006
1.42499e-006
1.42493e-006
1.42487e-006
1.42481e-006
1.42474e-006
1.4247e-006
1.42466e-006
1.42464e-006
1.42462e-006
1.42456e-006
1.42462e-006
1.42465e-006
1.42441e-006
1.4247e-006
1.42469e-006
1.42508e-006
1.42443e-006
1.42858e-006
1.41278e-006
1.3321e-006
2.05428e-006
1.2e-007
1.20008e-007
1.20035e-007
1.20098e-007
1.20104e-007
1.20026e-007
1.19993e-007
1.20076e-007
1.20203e-007
1.20233e-007
1.20141e-007
1.20055e-007
1.20115e-007
1.20266e-007
1.20319e-007
1.20251e-007
1.20135e-007
1.20122e-007
1.20187e-007
1.2019e-007
1.20126e-007
1.20071e-007
1.20098e-007
1.20196e-007
1.2027e-007
1.20293e-007
1.20311e-007
1.20317e-007
1.20251e-007
1.20201e-007
1.20204e-007
1.20256e-007
1.20358e-007
1.20362e-007
1.20381e-007
1.20396e-007
1.20409e-007
1.2042e-007
1.20431e-007
1.20444e-007
1.20457e-007
1.20471e-007
1.20486e-007
1.20502e-007
1.20515e-007
1.20526e-007
1.20537e-007
1.20545e-007
1.20555e-007
1.20568e-007
1.20582e-007
1.20593e-007
1.20605e-007
1.20618e-007
1.2063e-007
1.20642e-007
1.20656e-007
1.20668e-007
1.20681e-007
1.20693e-007
1.20706e-007
1.20718e-007
1.20729e-007
1.20742e-007
1.20754e-007
1.20766e-007
1.20777e-007
1.2079e-007
1.208e-007
1.20813e-007
1.20824e-007
1.20834e-007
1.20852e-007
1.20857e-007
1.20869e-007
1.20881e-007
1.20876e-007
1.20895e-007
1.20912e-007
1.20905e-007
1.20929e-007
1.20935e-007
1.20949e-007
1.20946e-007
1.20962e-007
1.20958e-007
1.20944e-007
1.20942e-007
1.20948e-007
1.20956e-007
1.20974e-007
1.20974e-007
1.20972e-007
1.20976e-007
1.20987e-007
1.21e-007
1.21009e-007
1.21014e-007
1.21019e-007
1.21021e-007
1.21023e-007
1.21025e-007
1.21027e-007
1.21028e-007
1.21027e-007
1.21027e-007
1.21025e-007
1.21023e-007
1.21021e-007
1.21018e-007
1.21014e-007
1.2101e-007
1.21005e-007
1.20998e-007
1.20994e-007
1.20986e-007
1.20981e-007
1.20971e-007
1.20963e-007
1.2095e-007
1.20938e-007
1.20921e-007
1.20905e-007
1.20887e-007
1.20871e-007
1.20848e-007
1.20832e-007
1.208e-007
1.2078e-007
1.20787e-007
1.20768e-007
1.20774e-007
1.20681e-007
1.21874e-007
1.21388e-007
1.09551e-007
1.50653e-007
7.77384e-006
0.0013262
1.85213e-008
1.85237e-008
1.85327e-008
1.85378e-008
1.85344e-008
1.85325e-008
1.85444e-008
1.85614e-008
1.85656e-008
1.85554e-008
1.85469e-008
1.85522e-008
1.85744e-008
1.85882e-008
1.85849e-008
1.85651e-008
1.85566e-008
1.85618e-008
1.85711e-008
1.85744e-008
1.85708e-008
1.85705e-008
1.85766e-008
1.85882e-008
1.85957e-008
1.86039e-008
1.861e-008
1.86111e-008
1.86041e-008
1.86035e-008
1.86055e-008
1.8617e-008
1.86286e-008
1.86337e-008
1.86391e-008
1.86429e-008
1.86467e-008
1.86498e-008
1.8653e-008
1.86564e-008
1.86601e-008
1.8664e-008
1.86682e-008
1.86721e-008
1.86757e-008
1.86792e-008
1.86826e-008
1.86862e-008
1.86907e-008
1.86939e-008
1.86965e-008
1.87001e-008
1.87042e-008
1.87081e-008
1.87117e-008
1.87155e-008
1.87192e-008
1.87229e-008
1.87266e-008
1.87302e-008
1.87338e-008
1.87373e-008
1.8741e-008
1.87444e-008
1.87479e-008
1.87512e-008
1.87548e-008
1.87578e-008
1.87612e-008
1.87644e-008
1.87669e-008
1.87709e-008
1.87734e-008
1.87765e-008
1.87785e-008
1.87816e-008
1.87808e-008
1.87828e-008
1.87859e-008
1.8785e-008
1.8789e-008
1.87903e-008
1.87936e-008
1.87966e-008
1.88011e-008
1.88005e-008
1.87973e-008
1.88007e-008
1.88046e-008
1.8809e-008
1.88129e-008
1.88143e-008
1.88174e-008
1.88207e-008
1.8823e-008
1.8823e-008
1.88233e-008
1.88232e-008
1.88237e-008
1.88248e-008
1.88251e-008
1.88257e-008
1.88258e-008
1.88262e-008
1.88262e-008
1.88261e-008
1.88259e-008
1.88249e-008
1.88244e-008
1.88228e-008
1.88218e-008
1.88192e-008
1.88176e-008
1.88139e-008
1.88123e-008
1.88092e-008
1.88075e-008
1.88041e-008
1.88017e-008
1.87984e-008
1.87951e-008
1.87907e-008
1.87869e-008
1.87821e-008
1.8778e-008
1.8776e-008
1.87743e-008
1.87562e-008
1.87443e-008
1.87762e-008
1.87259e-008
1.87087e-008
1.90062e-008
1.7044e-008
1.67677e-008
5.31934e-008
4.10501e-006
0.000505218
0.0140488
4.68287e-009
4.68466e-009
4.68654e-009
4.68742e-009
4.68779e-009
4.68907e-009
4.69183e-009
4.69352e-009
4.69347e-009
4.6928e-009
4.6937e-009
4.69648e-009
4.70022e-009
4.7017e-009
4.70067e-009
4.69752e-009
4.69817e-009
4.70057e-009
4.70436e-009
4.70655e-009
4.70618e-009
4.70643e-009
4.70807e-009
4.71143e-009
4.71489e-009
4.71664e-009
4.71809e-009
4.7188e-009
4.7182e-009
4.71782e-009
4.71832e-009
4.72225e-009
4.72538e-009
4.72808e-009
4.72984e-009
4.73119e-009
4.73267e-009
4.73411e-009
4.73554e-009
4.73701e-009
4.73853e-009
4.7401e-009
4.74163e-009
4.74305e-009
4.74445e-009
4.746e-009
4.74748e-009
4.74858e-009
4.74965e-009
4.75108e-009
4.75307e-009
4.75512e-009
4.75666e-009
4.75803e-009
4.75943e-009
4.76092e-009
4.76232e-009
4.76379e-009
4.76519e-009
4.76662e-009
4.76804e-009
4.76937e-009
4.77082e-009
4.77208e-009
4.77348e-009
4.7747e-009
4.77612e-009
4.77718e-009
4.77858e-009
4.77975e-009
4.78056e-009
4.7824e-009
4.78289e-009
4.78459e-009
4.78507e-009
4.78669e-009
4.78719e-009
4.78806e-009
4.78964e-009
4.78988e-009
4.79109e-009
4.79173e-009
4.7927e-009
4.79412e-009
4.79543e-009