/*--------------------------------*- C++ -*----------------------------------*\
| =========                 |                                                 |
| \\      /  F ield         | OpenFOAM: The Open Source CFD Toolbox           |
|  \\    /   O peration     | Version:  5.x                                   |
|   \\  /    A nd           | Web:      www.OpenFOAM.org                      |
|    \\/     M anipulation  |                                                 |
\*---------------------------------------------------------------------------*/
/*   Windows 32 and 64 bit porting by blueCAPE: http://www.bluecape.com.pt   *\
|  Based on Windows porting (2.0.x v4) by Symscape: http://www.symscape.com   |
\*---------------------------------------------------------------------------*/
FoamFile
{
    version     2.0;
    format      ascii;
    class       volScalarField;
    location    "360";
    object      k;
}
// * * * * * * * * * * * * * * * * * * * * * * * * * * * * * * * * * * * * * //

dimensions      [0 2 -2 0 0 0 0];

internalField   nonuniform List<scalar> 
43900
(
0.000985519
0.000989435
0.000990248
0.000990177
0.000990127
0.000990114
0.000990119
0.000990119
0.00099012
0.000990124
0.000990124
0.000990127
0.000990128
0.000990127
0.00099013
0.000990133
0.000990131
0.000990128
0.000990133
0.000990135
0.000990136
0.000990137
0.000990138
0.000990138
0.000990134
0.00099013
0.000990132
0.000990139
0.000990143
0.00165013
5.60215e-005
3.89319e-005
3.81753e-005
4.08093e-005
4.09658e-005
4.09868e-005
4.09544e-005
4.09544e-005
4.09599e-005
4.09612e-005
4.0967e-005
4.09689e-005
4.09678e-005
4.09723e-005
4.09773e-005
4.09736e-005
4.09708e-005
4.09771e-005
4.098e-005
4.09817e-005
4.09842e-005
4.09857e-005
4.09856e-005
4.09797e-005
4.09755e-005
4.09793e-005
4.09888e-005
4.09929e-005
0.294484
0.054025
0.00410503
0.000117947
5.00734e-006
3.0837e-006
2.97862e-006
3.3444e-006
3.38093e-006
3.37566e-006
3.37059e-006
3.37125e-006
3.37303e-006
3.37377e-006
3.37465e-006
3.37546e-006
3.37546e-006
3.37599e-006
3.37689e-006
3.37713e-006
3.3778e-006
3.37827e-006
3.37851e-006
3.37866e-006
3.37848e-006
3.37914e-006
3.38019e-006
3.38072e-006
3.38029e-006
0.880205
0.376743
0.120062
0.0238428
0.00208368
8.31219e-005
4.03157e-006
5.92184e-007
4.57957e-007
4.98666e-007
5.33644e-007
5.36586e-007
5.31659e-007
5.30309e-007
5.31237e-007
5.31557e-007
5.31381e-007
5.31558e-007
5.31819e-007
5.31903e-007
5.32005e-007
5.3206e-007
5.32201e-007
5.32366e-007
5.32452e-007
5.32548e-007
5.32613e-007
5.32585e-007
5.32695e-007
1.28965
0.739138
0.394866
0.176591
0.0561621
0.0103324
0.00082717
3.77995e-005
1.7146e-006
2.30887e-007
1.28867e-007
1.25999e-007
1.44642e-007
1.48237e-007
1.45485e-007
1.45019e-007
1.4593e-007
1.46011e-007
1.45741e-007
1.45804e-007
1.45866e-007
1.4586e-007
1.45898e-007
1.4593e-007
1.45929e-007
1.45946e-007
1.45994e-007
1.46028e-007
1.46081e-007
1.54703
0.984387
0.617125
0.370262
0.19912
0.0835505
0.0232872
0.00330418
0.000214221
1.0451e-005
5.57009e-007
9.81095e-008
5.39602e-008
5.46381e-008
6.15527e-008
6.15773e-008
5.95754e-008
5.98545e-008
6.05602e-008
6.0388e-008
6.03472e-008
6.04521e-008
6.05047e-008
6.0525e-008
6.05512e-008
6.05689e-008
6.05696e-008
6.05786e-008
6.05946e-008
1.71078
1.14988
0.773347
0.514019
0.330719
0.198229
0.100235
0.0349628
0.00705899
0.000653108
3.69413e-005
1.99305e-006
1.40327e-007
4.02749e-008
2.89521e-008
3.14022e-008
3.48873e-008
3.36228e-008
3.27823e-008
3.32589e-008
3.32902e-008
3.30895e-008
3.30685e-008
3.30717e-008
3.30708e-008
3.30992e-008
3.31333e-008
3.31282e-008
3.31172e-008
1.81137
1.25892
0.880745
0.615857
0.425879
0.286456
0.181931
0.102585
0.0433501
0.0113464
0.00145702
9.91641e-005
5.78903e-006
3.61005e-007
4.32663e-008
2.14437e-008
1.89502e-008
2.14889e-008
2.19643e-008
2.11118e-008
2.12647e-008
2.16132e-008
2.15711e-008
2.15726e-008
2.15805e-008
2.15481e-008
2.15314e-008
2.15531e-008
2.15846e-008
1.87388
1.33325
0.957583
0.690992
0.497651
0.354417
0.246112
0.162728
0.0977094
0.0468476
0.0141532
0.00222518
0.000179112
1.15614e-005
7.5604e-007
6.46896e-008
1.98596e-008
1.45525e-008
1.50873e-008
1.64108e-008
1.57862e-008
1.55373e-008
1.56915e-008
1.56788e-008
1.56612e-008
1.56967e-008
1.57035e-008
1.56815e-008
1.56831e-008
1.90113
1.37562
1.00675
0.74254
0.549354
0.405203
0.295477
0.210344
0.143147
0.0894202
0.0464479
0.0153266
0.00273678
0.00025197
1.79762e-005
1.27335e-006
1.03528e-007
1.92529e-008
1.21935e-008
1.12285e-008
1.23733e-008
1.23636e-008
1.21242e-008
1.22511e-008
1.23263e-008
1.22971e-008
1.22912e-008
1.22985e-008
1.22842e-008
1.90088
1.39214
1.03233
0.773024
0.582413
0.439552
0.330393
0.245382
0.177958
0.123614
0.0793254
0.043318
0.0150633
0.00290426
0.000296432
2.33459e-005
1.81047e-006
1.51312e-007
2.1593e-008
1.12825e-008
9.43656e-009
9.94659e-009
1.02232e-008
9.91395e-009
9.90433e-009
1.00218e-008
1.00439e-008
1.00591e-008
1.00907e-008
1.89153
1.39932
1.04868
0.794356
0.606449
0.465057
0.356711
0.272164
0.204992
0.15071
0.106195
0.0693544
0.0389834
0.0141449
0.00287426
0.000318861
2.7544e-005
2.33133e-006
2.06855e-007
2.63677e-008
1.02686e-008
8.23789e-009
8.34045e-009
8.79597e-009
8.63375e-009
8.43351e-009
8.4745e-009
8.49713e-009
8.50785e-009
1.8692
1.39498
1.05474
0.806665
0.622502
0.483362
0.376402
0.292743
0.226167
0.172284
0.127982
0.0910794
0.0601046
0.0341863
0.0126325
0.00263337
0.000312133
2.95347e-005
2.73801e-006
2.62877e-007
3.20571e-008
9.89927e-009
7.53513e-009
7.10608e-009
7.55916e-009
7.57634e-009
7.43501e-009
7.4402e-009
7.45237e-009
1.83637
1.38116
1.05245
0.811473
0.631876
0.49571
0.390708
0.308378
0.24274
0.189539
0.145727
0.109121
0.0781765
0.0518518
0.029548
0.0107875
0.00225489
0.000283111
2.94391e-005
3.00681e-006
3.14914e-007
3.88594e-008
1.01716e-008
7.13219e-009
6.40927e-009
6.63391e-009
6.82794e-009
6.70187e-009
6.64473e-009
1.79525
1.35926
1.04328
0.810236
0.63582
0.503162
0.400595
0.319974
0.255573
0.203292
0.160179
0.12409
0.0934775
0.0672438
0.0446564
0.0253498
0.0089273
0.00184469
0.000244174
2.78175e-005
3.12267e-006
3.57051e-007
4.60282e-008
1.08837e-008
6.64594e-009
5.85448e-009
5.95298e-009
6.22035e-009
6.18413e-009
1.74771
1.33133
1.02818
0.804081
0.635343
0.506634
0.406839
0.328234
0.265317
0.214157
0.171906
0.136485
0.106372
0.0804634
0.057976
0.0384066
0.0215577
0.0073628
0.00150856
0.000210865
2.62033e-005
3.21841e-006
4.01055e-007
5.47836e-008
1.18769e-008
6.32997e-009
5.4754e-009
5.37409e-009
5.5745e-009
1.69514
1.29864
1.00873
0.793603
0.631399
0.506863
0.410141
0.333774
0.272541
0.222671
0.181429
0.146808
0.117328
0.0918986
0.0697257
0.0502531
0.0331367
0.0182325
0.0060545
0.00124414
0.000185323
2.51535e-005
3.38021e-006
4.59333e-007
6.67311e-008
1.35932e-008
6.28646e-009
5.25375e-009
4.91126e-009
1.63856
1.26214
0.985777
0.779944
0.624224
0.504602
0.41111
0.337163
0.277738
0.229256
0.189105
0.155358
0.126588
0.10173
0.079997
0.0608142
0.043784
0.0286663
0.0153878
0.00498937
0.00103939
0.000165546
2.44612e-005
3.57956e-006
5.27682e-007
8.15495e-008
1.61234e-008
6.52423e-009
4.98737e-009
1.57898
1.22267
0.960035
0.763729
0.614726
0.499916
0.410075
0.338727
0.281272
0.234307
0.195338
0.162532
0.134522
0.110283
0.0890483
0.0702451
0.0534578
0.0384029
0.0249219
0.0129965
0.00413634
0.000880859
0.000150212
2.4084e-005
3.82255e-006
6.08742e-007
1.00126e-007
1.97357e-008
6.90973e-009
1.51717
1.18093
0.932105
0.745464
0.603329
0.493471
0.40731
0.338627
0.283236
0.237865
0.200163
0.168377
0.141198
0.117645
0.0969741
0.0786265
0.0621849
0.0473486
0.0339189
0.0217984
0.0110127
0.00346779
0.000762711
0.000139491
2.42032e-005
4.14926e-006
7.11596e-007
1.248e-007
2.44486e-008
1.45383
1.1375
0.902488
0.725586
0.590422
0.485633
0.403217
0.337471
0.284176
0.240444
0.204031
0.173279
0.146947
0.124096
0.104012
0.0861539
0.0701096
0.055574
0.0423294
0.0302393
0.0192522
0.00942389
0.00295969
0.000676433
0.000132355
2.46937e-005
4.54731e-006
8.36604e-007
1.53475e-007
1.38955
1.09288
0.871599
0.704438
0.576286
0.476616
0.397987
0.335074
0.283979
0.241954
0.206889
0.177224
0.151781
0.129668
0.110205
0.0928686
0.0772616
0.0630809
0.0501026
0.0381708
0.027195
0.017157
0.00813402
0.00256765
0.000612219
0.000127932
2.56211e-005
5.06414e-006
9.7743e-007
1.32484
1.0475
0.839803
0.682331
0.561194
0.466676
0.39189
0.33189
0.28309
0.242789
0.209086
0.180514
0.155964
0.134593
0.115753
0.0989471
0.0837909
0.0699892
0.0573181
0.0456135
0.0347653
0.0247183
0.015492
0.00711368
0.00226783
0.000565342
0.000125883
2.69872e-005
5.58007e-006
1.26015
1.00173
0.807392
0.659507
0.545344
0.45597
0.385026
0.327932
0.281345
0.242785
0.210499
0.183067
0.159451
0.138855
0.120669
0.104419
0.0897379
0.0763416
0.0640109
0.0525804
0.041931
0.0319874
0.0227224
0.0141877
0.0063257
0.00204205
0.000532185
0.0001259
2.81186e-005
1.19584
0.95585
0.774615
0.636173
0.528915
0.444658
0.37756
0.323398
0.279086
0.24235
0.211452
0.185147
0.162457
0.142632
0.125096
0.109402
0.0952007
0.0822189
0.0702444
0.0591134
0.0487035
0.0389289
0.0297401
0.0211313
0.0131794
0.00573261
0.00188228
0.000512888
0.000125464
1.1322
0.910112
0.741667
0.612492
0.512041
0.432855
0.369585
0.318353
0.276314
0.241365
0.211895
0.186743
0.164997
0.14596
0.129088
0.113962
0.100249
0.0876918
0.0760853
0.0652705
0.0551253
0.0455595
0.0365123
0.0279538
0.0198966
0.0124163
0.00533644
0.00179294
0.000498295
1.06948
0.864713
0.70871
0.588594
0.494831
0.420649
0.361172
0.312851
0.273074
0.239896
0.211853
0.187877
0.167097
0.148864
0.132673
0.118128
0.104918
0.0927971
0.0815713
0.0710876
0.0612265
0.0518967
0.0430324
0.0345918
0.0265608
0.0189609
0.0118578
0.00513106
0.00172929
1.00788
0.819814
0.675874
0.564586
0.477373
0.408116
0.352391
0.306967
0.269457
0.238083
0.21151
0.188692
0.168873
0.151445
0.135936
0.121975
0.109271
0.0975922
0.0867543
0.0766108
0.0670461
0.0579701
0.0493151
0.0410334
0.033098
0.0255053
0.0182777
0.0114982
0.00495593
0.947564
0.775553
0.643269
0.540556
0.459738
0.395313
0.343288
0.300734
0.265481
0.235904
0.210778
0.189148
0.170309
0.153701
0.138888
0.125524
0.113338
0.102112
0.0916711
0.0818775
0.0726203
0.0638119
0.0553848
0.047289
0.0394911
0.0319749
0.0247442
0.0178413
0.0111651
0.888694
0.732049
0.61099
0.516579
0.441984
0.382287
0.3339
0.294182
0.261165
0.233375
0.209687
0.189241
0.171402
0.155635
0.141537
0.128788
0.117135
0.106374
0.0963438
0.0869122
0.0779743
0.0694464
0.0612624
0.0533721
0.0457391
0.0383411
0.0311709
0.0242417
0.0175884
0.8314
0.68941
0.579122
0.492721
0.424164
0.369079
0.324261
0.287339
0.256544
0.23054
0.208312
0.189079
0.172235
0.157311
0.143934
0.131809
0.120698
0.110414
0.100804
0.0917447
0.0831368
0.0749005
0.066972
0.0593018
0.0518528
0.0445995
0.0375287
0.0306411
0.0239543
0.775803
0.647736
0.547744
0.469042
0.406323
0.355723
0.314395
0.280226
0.25163
0.227408
0.206642
0.188628
0.172793
0.158726
0.146085
0.134596
0.124043
0.11425
0.105073
0.0963992
0.0881334
0.0802002
0.072539
0.0651016
0.0578511
0.050761
0.0438147
0.0370062
0.0303392
0.722019
0.60712
0.516928
0.4456
0.388505
0.34225
0.304326
0.272857
0.246431
0.223974
0.204661
0.187854
0.173048
0.159862
0.147978
0.137149
0.127174
0.11789
0.109166
0.100893
0.0929844
0.0853685
0.0779877
0.0707957
0.0637568
0.0568443
0.0500401
0.0433347
0.0367254
0.670157
0.567653
0.486748
0.42245
0.37075
0.328691
0.294075
0.265247
0.240958
0.220252
0.20239
0.1868
0.173025
0.160738
0.149633
0.139483
0.130106
0.121352
0.113099
0.105246
0.0977125
0.0904301
0.0833445
0.0764117
0.0695972
0.0628748
0.0562261
0.0496399
0.0431113
0.620318
0.529423
0.457275
0.39965
0.353102
0.315079
0.283663
0.257411
0.23522
0.216247
0.199837
0.185479
0.172773
0.161382
0.151065
0.141612
0.132853
0.12465
0.11689
0.10948
0.102341
0.0954119
0.0886391
0.0819813
0.0754051
0.0688854
0.0624038
0.0559488
0.0495145
0.5726
0.492516
0.428583
0.377257
0.335608
0.301446
0.273116
0.249363
0.229225
0.21196
0.19699
0.183862
0.172217
0.161753
0.15225
0.143521
0.135409
0.127787
0.12055
0.113609
0.106893
0.100342
0.0939043
0.0875413
0.0812207
0.0749178
0.068615
0.062301
0.05597
0.527099
0.457024
0.40075
0.355339
0.318319
0.287832
0.262462
0.241124
0.222984
0.207396
0.193852
0.181948
0.171365
0.161836
0.153182
0.145208
0.137776
0.130769
0.124088
0.117652
0.111392
0.10525
0.0991771
0.0931351
0.0870923
0.0810245
0.0749144
0.0687512
0.06253
0.483907
0.423039
0.373863
0.333968
0.301297
0.274287
0.251736
0.232718
0.216515
0.202565
0.190426
0.179745
0.17024
0.16168
0.153878
0.14668
0.139957
0.133598
0.127513
0.121622
0.115858
0.110166
0.104498
0.0988122
0.0930782
0.0872708
0.0813724
0.0753725
0.069267
0.443119
0.390659
0.348014
0.313229
0.284615
0.260871
0.240989
0.224183
0.209841
0.197481
0.186719
0.177247
0.16882
0.161235
0.154305
0.14791
0.141929
0.13626
0.130815
0.125518
0.120303
0.115115
0.109902
0.104622
0.0992419
0.0937329
0.0880758
0.0822589
0.0762785
0.404829
0.35999
0.323308
0.29322
0.268361
0.247662
0.230285
0.215572
0.203006
0.192174
0.182747
0.174459
0.167093
0.160468
0.154425
0.148866
0.143664
0.138725
0.133969
0.129322
0.124717
0.120097
0.115408
0.110602
0.105639
0.100486
0.0951183
0.0895197
0.083685
0.369129
0.331143
0.299861
0.274056
0.252642
0.234757
0.219713
0.206962
0.196072
0.186695
0.17855
0.171409
0.165082
0.159415
0.154273
0.149546
0.145137
0.140959
0.136934
0.13299
0.12906
0.125082
0.120998
0.116752
0.112294
0.107581
0.102577
0.0972579
0.0916115
0.336112
0.304233
0.277801
0.255866
0.237589
0.222282
0.209389
0.198461
0.189139
0.181131
0.174201
0.168153
0.162827
0.158089
0.153828
0.149926
0.146315
0.142915
0.139651
0.136454
0.133258
0.129997
0.126605
0.123018
0.119173
0.115009
0.110476
0.105531
0.100149
0.305864
0.279378
0.257263
0.238798
0.223351
0.210388
0.199464
0.190214
0.182343
0.175609
0.169813
0.164792
0.160408
0.156548
0.153114
0.150013
0.147189
0.144562
0.142066
0.13964
0.137217
0.134732
0.132112
0.129283
0.126167
0.122683
0.118754
0.114313
0.109308
0.278462
0.256694
0.23839
0.22301
0.210101
0.199254
0.19012
0.182404
0.175865
0.170304
0.165554
0.161478
0.157964
0.154915
0.152252
0.149908
0.147809
0.145911
0.144157
0.142488
0.140847
0.139167
0.137374
0.135385
0.133106
0.130432
0.127256
0.123474
0.118991
0.253966
0.236287
0.221317
0.208663
0.198016
0.189074
0.18156
0.175242
0.16992
0.16543
0.161633
0.158415
0.155684
0.153362
0.151387
0.149704
0.148262
0.147024
0.145948
0.144988
0.144094
0.143208
0.142257
0.141154
0.13979
0.13804
0.13576
0.132798
0.129003
0.232408
0.218239
0.206166
0.195906
0.187272
0.18004
0.173997
0.168952
0.164741
0.161227
0.158292
0.155843
0.153803
0.152114
0.150728
0.14961
0.148714
0.148033
0.147536
0.147191
0.146967
0.146816
0.146672
0.146451
0.146039
0.145286
0.144018
0.142035
0.139095
0.213777
0.202589
0.193015
0.184856
0.178013
0.172324
0.167621
0.163746
0.160559
0.157941
0.15579
0.154027
0.152591
0.151439
0.150539
0.149853
0.149387
0.149138
0.149096
0.149234
0.14956
0.150037
0.150613
0.151215
0.151733
0.15199
0.151806
0.150953
0.149027
0.198
0.189321
0.181892
0.175573
0.170332
0.16605
0.162587
0.159807
0.157583
0.155806
0.154384
0.153249
0.152346
0.151631
0.151086
0.150731
0.150583
0.150633
0.150883
0.151372
0.152091
0.153039
0.15419
0.155494
0.156862
0.158132
0.159082
0.159307
0.158519
0.184936
0.178347
0.172754
0.168055
0.164264
0.161286
0.159
0.157276
0.155994
0.155046
0.154337
0.153773
0.15333
0.152999
0.152777
0.152678
0.152729
0.152932
0.153344
0.153997
0.154923
0.156149
0.157681
0.159505
0.161566
0.163733
0.16579
0.167287
0.16755
0.174372
0.169511
0.16549
0.162233
0.159779
0.158045
0.156916
0.156258
0.155949
0.155837
0.155849
0.155926
0.156016
0.1561
0.156182
0.156283
0.156437
0.156689
0.157106
0.157751
0.158686
0.159967
0.161642
0.163737
0.166251
0.169107
0.172148
0.174882
0.176521
0.16604
0.162601
0.159937
0.157986
0.156798
0.156289
0.15635
0.156807
0.157538
0.158422
0.159341
0.160206
0.160952
0.161547
0.161997
0.162329
0.162591
0.162848
0.163183
0.163686
0.164448
0.16556
0.167109
0.169172
0.171813
0.17503
0.178796
0.182607
0.18578
0.15964
0.157371
0.155894
0.155153
0.155203
0.155947
0.157262
0.158987
0.160982
0.163082
0.165139
0.167042
0.168704
0.170075
0.17114
0.171921
0.172466
0.172848
0.173163
0.173518
0.174032
0.174825
0.17602
0.177742
0.180128
0.183265
0.187317
0.1918
0.196452
0.154866
0.153564
0.153145
0.153557
0.154849
0.156919
0.159645
0.162854
0.166362
0.169988
0.173557
0.176921
0.17996
0.18259
0.184767
0.186489
0.187788
0.18873
0.189409
0.189939
0.190445
0.191066
0.191941
0.193234
0.19513
0.197796
0.201565
0.206031
0.211468
0.151424
0.150928
0.151475
0.153014
0.15559
0.159108
0.163429
0.168367
0.173725
0.179299
0.184886
0.190302
0.195389
0.200022
0.204121
0.207648
0.210611
0.213055
0.215059
0.216727
0.21818
0.219547
0.22096
0.222542
0.224429
0.226913
0.230246
0.234477
0.238943
0.149044
0.149231
0.150681
0.15335
0.157278
0.162374
0.168496
0.175459
0.18306
0.191081
0.199298
0.2075
0.215497
0.22313
0.230284
0.236894
0.242944
0.248466
0.253536
0.258259
0.262765
0.267194
0.271686
0.27642
0.281183
0.286532
0.291747
0.299023
0.298251
0.147493
0.148263
0.150583
0.15439
0.159746
0.166559
0.174701
0.184001
0.19426
0.205262
0.216781
0.228595
0.240498
0.252317
0.263924
0.275247
0.286276
0.297063
0.307725
0.318431
0.329403
0.340904
0.353226
0.366778
0.381653
0.399069
0.416044
0.442117
0.43334
0.146569
0.147843
0.151008
0.155974
0.162826
0.171491
0.181863
0.193795
0.207115
0.221626
0.237123
0.253399
0.270262
0.287556
0.305176
0.323085
0.341329
0.360042
0.379459
0.399918
0.421878
0.445927
0.472838
0.503594
0.539379
0.582904
0.633051
0.710553
0.700087
0.146107
0.147817
0.151817
0.157953
0.166363
0.176995
0.189776
0.204601
0.22134
0.239843
0.259952
0.281509
0.304377
0.328461
0.353731
0.380249
0.408185
0.437845
0.469691
0.504373
0.542787
0.58611
0.636039
0.694675
0.765583
0.85319
0.965487
1.11876
1.14513
0.14601
0.148089
0.152925
0.160233
0.170253
0.182942
0.198279
0.216212
0.236675
0.259593
0.284886
0.312489
0.342369
0.374551
0.409154
0.446417
0.486736
0.530706
0.57917
0.633281
0.694635
0.765342
0.848612
0.948292
1.07219
1.2267
1.43868
1.69076
1.85267
0.000990141
0.000990136
0.000990132
0.000990133
0.000990141
0.000990149
0.000990149
0.000990142
0.000990135
0.000990138
0.000990149
0.000990152
0.000990145
0.000990144
0.00099015
0.000990152
0.000990141
0.000990134
0.000990139
0.000990157
0.000990162
0.000990147
0.000990131
0.000990126
0.00099014
0.000990147
0.000990148
0.000990154
0.000990162
0.000990153
0.000990136
0.000990123
0.000990129
0.000990144
0.000990145
0.000990145
0.000990145
0.000990145
0.000990145
0.000990145
0.000990145
0.000990145
0.000990145
0.000990145
0.000990146
0.000990146
0.000990146
0.000990146
0.000990146
0.000990146
0.000990146
0.000990147
0.000990147
0.000990147
0.000990147
0.000990148
0.000990148
0.000990148
0.000990149
0.000990149
0.000990149
0.000990149
0.000990149
0.00099015
0.00099015
0.000990151
0.000990151
0.000990151
0.000990151
0.000990151
0.000990152
0.000990151
0.000990153
0.000990152
0.000990153
0.000990152
0.000990153
0.000990154
0.000990154
0.000990156
0.000990157
0.000990158
0.000990157
0.000990154
0.000990155
0.000990156
0.000990156
0.000990153
0.000990156
0.000990158
0.000990157
0.000990157
0.000990157
0.000990157
0.000990157
0.000990158
0.000990158
0.000990158
0.000990158
0.000990158
0.000990158
0.000990158
0.000990158
0.000990159
0.000990159
0.000990159
0.000990159
0.000990159
0.000990159
0.000990159
0.000990159
0.000990159
0.000990159
0.000990159
0.000990159
0.000990159
0.000990159
0.000990159
0.000990159
0.000990159
0.000990159
0.000990159
0.000990159
0.000990159
0.00099016
0.00099016
0.00099016
0.00099016
0.00099016
0.000990161
0.000990161
0.000990164
0.000990163
0.000990166
0.000990164
0.00099017
0.000990167
0.000990178
0.00100814
4.09908e-005
4.09831e-005
4.09789e-005
4.09815e-005
4.09934e-005
4.10035e-005
4.10021e-005
4.09913e-005
4.09829e-005
4.09897e-005
4.10051e-005
4.10076e-005
4.09967e-005
4.09955e-005
4.10063e-005
4.1007e-005
4.09917e-005
4.09807e-005
4.09905e-005
4.10141e-005
4.10201e-005
4.09976e-005
4.09755e-005
4.09702e-005
4.09922e-005
4.1001e-005
4.10021e-005
4.10116e-005
4.10209e-005
4.10062e-005
4.09829e-005
4.09663e-005
4.09778e-005
4.09981e-005
4.09996e-005
4.0999e-005
4.09986e-005
4.09985e-005
4.09984e-005
4.09985e-005
4.09986e-005
4.09989e-005
4.09993e-005
4.09999e-005
4.10004e-005
4.10006e-005
4.10009e-005
4.1001e-005
4.10014e-005
4.10016e-005
4.10019e-005
4.10022e-005
4.10027e-005
4.10032e-005
4.10036e-005
4.1004e-005
4.10047e-005
4.1005e-005
4.10056e-005
4.10059e-005
4.10063e-005
4.10069e-005
4.10071e-005
4.10079e-005
4.1008e-005
4.10087e-005
4.10088e-005
4.101e-005
4.10097e-005
4.10104e-005
4.1011e-005
4.10104e-005
4.10127e-005
4.10115e-005
4.10129e-005
4.10121e-005
4.10137e-005
4.10145e-005
4.10149e-005
4.10175e-005
4.10181e-005
4.10206e-005
4.10189e-005
4.10155e-005
4.10156e-005
4.10176e-005
4.10171e-005
4.10131e-005
4.10184e-005
4.10208e-005
4.10196e-005
4.10187e-005
4.1019e-005
4.10194e-005
4.10199e-005
4.10199e-005
4.10204e-005
4.10205e-005
4.10208e-005
4.1021e-005
4.10211e-005
4.10213e-005
4.10214e-005
4.10215e-005
4.10215e-005
4.10215e-005
4.10215e-005
4.10216e-005
4.10217e-005
4.10218e-005
4.10219e-005
4.1022e-005
4.10221e-005
4.10222e-005
4.10222e-005
4.10223e-005
4.10223e-005
4.10223e-005
4.10222e-005
4.10221e-005
4.1022e-005
4.10219e-005
4.10218e-005
4.10218e-005
4.1022e-005
4.10222e-005
4.10223e-005
4.10229e-005
4.10224e-005
4.10234e-005
4.10241e-005
4.10278e-005
4.10262e-005
4.10321e-005
4.10287e-005
4.10361e-005
4.10374e-005
4.10668e-005
4.46556e-005
3.38017e-006
3.38016e-006
3.38052e-006
3.38183e-006
3.38335e-006
3.3828e-006
3.38084e-006
3.37983e-006
3.38125e-006
3.38382e-006
3.38439e-006
3.38232e-006
3.3809e-006
3.38259e-006
3.38437e-006
3.38367e-006
3.38133e-006
3.38061e-006
3.38278e-006
3.38353e-006
3.38219e-006
3.37949e-006
3.37951e-006
3.38134e-006
3.38381e-006
3.38356e-006
3.38393e-006
3.38486e-006
3.38388e-006
3.38118e-006
3.38064e-006
3.38116e-006
3.38448e-006
3.38503e-006
3.38482e-006
3.38491e-006
3.38503e-006
3.38511e-006
3.38519e-006
3.3853e-006
3.38543e-006
3.38557e-006
3.38575e-006
3.38593e-006
3.3861e-006
3.38621e-006
3.38632e-006
3.38639e-006
3.38651e-006
3.38659e-006
3.38672e-006
3.38684e-006
3.38698e-006
3.38712e-006
3.38725e-006
3.38738e-006
3.38755e-006
3.38766e-006
3.38783e-006
3.38794e-006
3.38808e-006
3.38823e-006
3.38833e-006
3.3885e-006
3.3886e-006
3.38876e-006
3.38884e-006
3.38904e-006
3.38907e-006
3.38926e-006
3.38941e-006
3.38939e-006
3.38976e-006
3.38969e-006
3.38998e-006
3.39e-006
3.3902e-006
3.39048e-006
3.39056e-006
3.39041e-006
3.39071e-006
3.39109e-006
3.39098e-006
3.39099e-006
3.39084e-006
3.39105e-006
3.39052e-006
3.39054e-006
3.39114e-006
3.39126e-006
3.39126e-006
3.39132e-006
3.39136e-006
3.39138e-006
3.39141e-006
3.39145e-006
3.39156e-006
3.39158e-006
3.39164e-006
3.39166e-006
3.39168e-006
3.3917e-006
3.3917e-006
3.39171e-006
3.39169e-006
3.39169e-006
3.39164e-006
3.39163e-006
3.3916e-006
3.39159e-006
3.39156e-006
3.39152e-006
3.39148e-006
3.39142e-006
3.39137e-006
3.39127e-006
3.39122e-006
3.39109e-006
3.391e-006
3.39087e-006
3.39073e-006
3.39056e-006
3.39041e-006
3.39029e-006
3.3902e-006
3.39013e-006
3.39008e-006
3.38992e-006
3.39003e-006
3.39016e-006
3.38954e-006
3.39023e-006
3.39029e-006
3.39052e-006
3.38931e-006
3.40559e-006
3.33684e-006
3.0815e-006
5.58027e-006
5.32829e-007
5.32864e-007
5.33003e-007
5.33263e-007
5.33242e-007
5.32901e-007
5.3282e-007
5.33228e-007
5.33764e-007
5.33816e-007
5.33381e-007
5.33055e-007
5.33384e-007
5.34044e-007
5.34217e-007
5.33874e-007
5.33393e-007
5.33369e-007
5.33624e-007
5.33609e-007
5.33324e-007
5.33139e-007
5.33277e-007
5.33717e-007
5.33986e-007
5.34096e-007
5.34178e-007
5.34175e-007
5.33867e-007
5.337e-007
5.33736e-007
5.33998e-007
5.34409e-007
5.34409e-007
5.34495e-007
5.34559e-007
5.34614e-007
5.34662e-007
5.34711e-007
5.34765e-007
5.34822e-007
5.34884e-007
5.34953e-007
5.35019e-007
5.35077e-007
5.35127e-007
5.35174e-007
5.35211e-007
5.35257e-007
5.35316e-007
5.3537e-007
5.35417e-007
5.35471e-007
5.35527e-007
5.35581e-007
5.35635e-007
5.35694e-007
5.35747e-007
5.35805e-007
5.35857e-007
5.35913e-007
5.35967e-007
5.36018e-007
5.36074e-007
5.36124e-007
5.36179e-007
5.3623e-007
5.36284e-007
5.36328e-007
5.36385e-007
5.36431e-007
5.36478e-007
5.36554e-007
5.36579e-007
5.36629e-007
5.36683e-007
5.36653e-007
5.3673e-007
5.368e-007
5.36764e-007
5.36868e-007
5.36887e-007
5.36952e-007
5.3695e-007
5.37026e-007
5.37004e-007
5.3694e-007
5.36945e-007
5.36967e-007
5.37015e-007
5.371e-007
5.371e-007
5.37094e-007
5.37117e-007
5.37167e-007
5.37216e-007
5.3725e-007
5.37265e-007
5.37283e-007
5.37293e-007
5.37302e-007
5.37309e-007
5.37314e-007
5.37318e-007
5.37316e-007
5.37316e-007
5.37304e-007
5.37298e-007
5.37285e-007
5.37271e-007
5.37255e-007
5.37234e-007
5.37213e-007
5.3718e-007
5.37159e-007
5.37126e-007
5.37104e-007
5.37059e-007
5.37022e-007
5.36969e-007
5.36915e-007
5.36844e-007
5.36774e-007
5.36698e-007
5.36626e-007
5.36517e-007
5.36443e-007
5.36327e-007
5.36238e-007
5.36189e-007
5.36238e-007
5.36237e-007
5.35361e-007
5.44863e-007
5.40844e-007
4.51793e-007
8.40431e-007
8.79514e-005
0.0102772
1.46089e-007
1.46113e-007
1.46181e-007
1.46211e-007
1.46181e-007
1.46175e-007
1.46275e-007
1.46398e-007
1.46416e-007
1.46331e-007
1.46271e-007
1.46328e-007
1.46497e-007
1.46584e-007
1.46547e-007
1.46392e-007
1.46349e-007
1.46393e-007
1.46458e-007
1.46479e-007
1.46454e-007
1.46467e-007
1.46515e-007
1.46598e-007
1.46644e-007
1.46704e-007
1.46748e-007
1.4675e-007
1.46702e-007
1.46706e-007
1.46721e-007
1.46815e-007
1.46886e-007
1.46925e-007
1.46964e-007
1.46992e-007
1.4702e-007
1.47043e-007
1.47066e-007
1.47092e-007
1.47119e-007
1.47149e-007
1.47179e-007
1.47208e-007
1.47234e-007
1.47261e-007
1.47286e-007
1.47314e-007
1.47344e-007
1.47365e-007
1.47386e-007
1.47415e-007
1.47446e-007
1.47474e-007
1.47501e-007
1.47529e-007
1.47556e-007
1.47584e-007
1.47611e-007
1.47638e-007
1.47666e-007
1.47691e-007
1.47719e-007
1.47744e-007
1.4777e-007
1.47794e-007
1.47822e-007
1.47842e-007
1.47869e-007
1.47892e-007
1.47909e-007
1.47942e-007
1.47956e-007
1.47981e-007
1.47994e-007
1.4802e-007
1.48014e-007
1.48027e-007
1.4805e-007
1.48042e-007
1.4807e-007
1.48079e-007
1.48104e-007
1.48131e-007
1.48166e-007
1.4816e-007
1.48134e-007
1.48159e-007
1.48186e-007
1.48215e-007
1.48245e-007
1.48259e-007
1.48285e-007
1.4831e-007
1.48323e-007
1.48322e-007
1.48323e-007
1.48325e-007
1.48329e-007
1.48338e-007
1.4834e-007
1.48344e-007
1.48345e-007
1.48347e-007
1.48348e-007
1.48346e-007
1.48346e-007
1.48338e-007
1.48334e-007
1.48321e-007
1.48314e-007
1.48294e-007
1.48282e-007
1.48254e-007
1.48243e-007
1.4822e-007
1.48207e-007
1.48182e-007
1.48165e-007
1.4814e-007
1.48117e-007
1.48085e-007
1.48057e-007
1.48022e-007
1.47993e-007
1.48007e-007
1.4802e-007
1.47811e-007
1.47714e-007
1.48181e-007
1.47467e-007
1.47311e-007
1.51165e-007
1.23139e-007
1.30391e-007
7.10676e-007
7.16916e-005
0.00634546
0.108928
6.06117e-008
6.0633e-008
6.06553e-008
6.06649e-008
6.06681e-008
6.0684e-008
6.07184e-008
6.07366e-008
6.07325e-008
6.07242e-008
6.0736e-008
6.07731e-008
6.08147e-008
6.08272e-008
6.08098e-008
6.07761e-008
6.07874e-008
6.08204e-008
6.08686e-008
6.08907e-008
6.0886e-008
6.08889e-008
6.09085e-008
6.0949e-008
6.09889e-008
6.10057e-008
6.10212e-008
6.10267e-008
6.10196e-008
6.10137e-008
6.10212e-008
6.10706e-008
6.11065e-008
6.11391e-008
6.11569e-008
6.11713e-008
6.11878e-008
6.1204e-008
6.12203e-008
6.12371e-008
6.12545e-008
6.12725e-008
6.12893e-008
6.13044e-008
6.13196e-008
6.13372e-008
6.13535e-008
6.13656e-008
6.13788e-008
6.1398e-008
6.14225e-008
6.14445e-008
6.14606e-008
6.14758e-008
6.14918e-008
6.1509e-008
6.15248e-008
6.15417e-008
6.15575e-008
6.15738e-008
6.159e-008
6.16049e-008
6.16218e-008
6.16357e-008
6.16518e-008
6.16653e-008
6.16817e-008
6.16932e-008
6.17097e-008
6.17224e-008
6.17318e-008
6.17528e-008
6.17582e-008
6.17774e-008
6.17829e-008
6.18004e-008
6.1807e-008
6.18154e-008
6.18317e-008
6.18356e-008
6.18492e-008
6.18552e-008
6.18651e-008
6.18835e-008
6.18981e-008
6.18973e-008
6.18933e-008
6.19011e-008
6.19072e-008
6.19114e-008
6.19274e-008
6.19427e-008
6.19549e-008
6.19597e-008
6.1962e-008
6.19669e-008
6.19713e-008
6.19834e-008
6.19878e-008
6.19965e-008
6.19988e-008
6.20038e-008
6.20047e-008
6.20071e-008
6.20078e-008
6.20071e-008
6.20082e-008
6.20041e-008
6.20043e-008
6.19961e-008
6.19936e-008
6.19812e-008
6.19764e-008
6.19607e-008
6.19572e-008
6.19436e-008
6.19374e-008
6.19231e-008
6.19146e-008
6.1902e-008
6.18896e-008
6.18708e-008
6.1856e-008
6.18337e-008
6.18033e-008
6.1656e-008
6.15787e-008
6.1831e-008
6.17356e-008
6.11189e-008
6.19711e-008
6.25859e-008
5.35191e-008
1.01025e-007
1.84658e-006
0.000133956
0.00620605
0.0828613
0.416797
3.31318e-008
3.31573e-008
3.31718e-008
3.31737e-008
3.3178e-008
3.31901e-008
3.32006e-008
3.32063e-008
3.3215e-008
3.3229e-008
3.32442e-008
3.32543e-008
3.32639e-008
3.32684e-008
3.32673e-008
3.32765e-008
3.33e-008
3.33143e-008
3.33314e-008
3.33444e-008
3.33544e-008
3.33648e-008
3.33761e-008
3.33893e-008
3.34101e-008
3.34248e-008
3.34373e-008
3.34437e-008
3.34451e-008
3.34483e-008
3.34607e-008
3.3487e-008
3.35062e-008
3.3523e-008
3.35336e-008
3.35466e-008
3.35603e-008
3.35731e-008
3.35856e-008
3.35984e-008
3.3611e-008
3.3623e-008
3.36343e-008
3.36459e-008
3.36574e-008
3.36688e-008
3.36806e-008
3.36962e-008
3.37131e-008
3.37265e-008
3.37346e-008
3.37409e-008
3.37518e-008
3.3766e-008
3.37794e-008
3.37924e-008
3.38038e-008
3.3816e-008
3.3827e-008
3.38387e-008
3.38495e-008
3.38605e-008
3.38715e-008
3.3882e-008
3.38925e-008
3.39029e-008
3.39132e-008
3.39233e-008
3.39338e-008
3.39436e-008
3.39521e-008
3.39643e-008
3.39703e-008
3.39824e-008
3.39877e-008
3.39975e-008
3.40034e-008
3.40071e-008
3.40164e-008
3.40252e-008
3.40329e-008
3.40375e-008
3.40428e-008
3.40506e-008
3.40593e-008
3.4062e-008
3.40676e-008
3.40785e-008
3.40805e-008
3.40866e-008
3.40986e-008
3.41063e-008
3.41089e-008
3.41125e-008
3.41199e-008
3.41282e-008
3.41329e-008
3.41367e-008
3.41381e-008
3.41408e-008
3.41431e-008
3.4146e-008
3.41473e-008
3.41496e-008
3.41491e-008
3.41494e-008
3.4148e-008
3.4148e-008
3.41459e-008
3.41444e-008
3.41406e-008
3.41362e-008
3.41309e-008
3.41255e-008
3.41202e-008
3.4115e-008
3.41082e-008