/*--------------------------------*- C++ -*----------------------------------*\
| =========                 |                                                 |
| \\      /  F ield         | OpenFOAM: The Open Source CFD Toolbox           |
|  \\    /   O peration     | Version:  5.x                                   |
|   \\  /    A nd           | Web:      www.OpenFOAM.org                      |
|    \\/     M anipulation  |                                                 |
\*---------------------------------------------------------------------------*/
/*   Windows 32 and 64 bit porting by blueCAPE: http://www.bluecape.com.pt   *\
|  Based on Windows porting (2.0.x v4) by Symscape: http://www.symscape.com   |
\*---------------------------------------------------------------------------*/
FoamFile
{
    version     2.0;
    format      ascii;
    class       volScalarField;
    location    "360";
    object      nut;
}
// * * * * * * * * * * * * * * * * * * * * * * * * * * * * * * * * * * * * * //

dimensions      [0 2 -1 0 0 0 0];

internalField   nonuniform List<scalar> 
43900
(
5.71601e-005
5.80007e-005
5.80694e-005
5.80642e-005
5.80595e-005
5.80585e-005
5.80588e-005
5.80589e-005
5.80589e-005
5.80592e-005
5.80592e-005
5.80595e-005
5.80596e-005
5.80595e-005
5.80597e-005
5.80599e-005
5.80597e-005
5.80596e-005
5.80599e-005
5.806e-005
5.80601e-005
5.80602e-005
5.80603e-005
5.80603e-005
5.806e-005
5.80597e-005
5.80599e-005
5.80604e-005
5.80607e-005
0.000591841
7.39532e-006
4.30788e-006
4.16121e-006
4.57965e-006
4.60589e-006
4.60892e-006
4.60369e-006
4.60361e-006
4.60424e-006
4.60442e-006
4.6051e-006
4.60534e-006
4.60521e-006
4.60573e-006
4.6063e-006
4.60589e-006
4.6056e-006
4.60631e-006
4.60662e-006
4.60684e-006
4.60712e-006
4.60728e-006
4.60726e-006
4.6066e-006
4.60619e-006
4.60665e-006
4.6077e-006
4.6081e-006
0.153501
0.045647
0.00523172
0.000108903
1.31824e-006
6.44565e-007
6.0186e-007
7.14095e-007
7.25127e-007
7.23477e-007
7.21816e-007
7.219e-007
7.22362e-007
7.22551e-007
7.22727e-007
7.22883e-007
7.22892e-007
7.23017e-007
7.23201e-007
7.2325e-007
7.23389e-007
7.2348e-007
7.23532e-007
7.23575e-007
7.23556e-007
7.23699e-007
7.23912e-007
7.23996e-007
7.2391e-007
0.476022
0.291906
0.134119
0.0387502
0.0046667
0.000181462
4.26366e-006
2.57333e-007
1.74204e-007
1.9367e-007
2.13814e-007
2.15547e-007
2.1262e-007
2.118e-007
2.12303e-007
2.12466e-007
2.12352e-007
2.12418e-007
2.12536e-007
2.12568e-007
2.12605e-007
2.12628e-007
2.12689e-007
2.12751e-007
2.12785e-007
2.12818e-007
2.12844e-007
2.12831e-007
2.12881e-007
0.757065
0.581744
0.414291
0.249309
0.107066
0.0268418
0.00273088
0.000132567
3.12593e-006
2.15288e-007
9.05993e-008
8.35595e-008
1.02248e-007
1.0617e-007
1.03259e-007
1.02762e-007
1.03711e-007
1.03772e-007
1.03471e-007
1.03525e-007
1.03577e-007
1.03559e-007
1.03578e-007
1.036e-007
1.03599e-007
1.03613e-007
1.03645e-007
1.03668e-007
1.037e-007
0.967077
0.799049
0.642784
0.491049
0.33921
0.188558
0.0687195
0.0126161
0.000956838
4.80546e-005
1.45067e-006
1.55798e-007
6.39008e-008
6.0715e-008
7.21487e-008
7.24184e-008
6.89356e-008
6.94013e-008
7.06168e-008
7.03086e-008
7.02274e-008
7.04048e-008
7.04848e-008
7.05115e-008
7.05505e-008
7.05699e-008
7.05568e-008
7.05663e-008
7.05856e-008
1.12532
0.96303
0.81475
0.674224
0.53644
0.397421
0.254447
0.113124
0.0293287
0.0032748
0.00020198
1.06589e-005
4.02775e-007
8.38059e-008
4.96161e-008
5.32699e-008
6.25779e-008
5.93222e-008
5.70055e-008
5.82442e-008
5.83194e-008
5.77832e-008
5.77173e-008
5.77144e-008
5.77034e-008
5.77666e-008
5.78459e-008
5.78316e-008
5.77984e-008
1.24405
1.08622
0.943623
0.810684
0.682771
0.556096
0.427953
0.298097
0.162566
0.0534358
0.00836431
0.000630081
3.84052e-005
2.10719e-006
1.36256e-007
5.64452e-008
4.29687e-008
5.09257e-008
5.34073e-008
5.0378e-008
5.08976e-008
5.21683e-008
5.20126e-008
5.20103e-008
5.20323e-008
5.19086e-008
5.18376e-008
5.19124e-008
5.20134e-008
1.33714
1.18331
1.04528
0.918019
0.797305
0.679626
0.562158
0.442792
0.319641
0.192723
0.0724544
0.0138989
0.00124945
8.51457e-005
5.53881e-006
3.3458e-007
7.37462e-008
4.75173e-008
4.6022e-008
5.23764e-008
4.95819e-008
4.82128e-008
4.89053e-008
4.88418e-008
4.87489e-008
4.89123e-008
4.89424e-008
4.88387e-008
4.88323e-008
1.40189
1.25364
1.12076
0.999314
0.88536
0.77557
0.667165
0.55788
0.445933
0.330194
0.210888
0.0857404
0.0185752
0.00191236
0.000143992
1.04485e-005
7.43555e-007
8.44986e-008
5.05931e-008
4.11816e-008
4.70869e-008
4.77126e-008
4.63683e-008
4.70089e-008
4.74184e-008
4.72138e-008
4.71603e-008
4.71854e-008
4.70979e-008
1.44574
1.30042
1.17258
1.05641
0.948542
0.845795
0.745466
0.645293
0.543458
0.438623
0.330066
0.21818
0.0926184
0.021476
0.00243985
0.000202093
1.61757e-005
1.27647e-006
1.27156e-007
5.82833e-008
4.26432e-008
4.41829e-008
4.67668e-008
4.48129e-008
4.46571e-008
4.54691e-008
4.56365e-008
4.57159e-008
4.58979e-008
1.48439
1.3421
1.21682
1.10416
1.00031
0.902459
0.808028
0.714807
0.620963
0.525056
0.426081
0.323576
0.218059
0.0970515
0.0234236
0.00286671
0.000258946
2.2587e-005
1.96707e-006
1.98752e-007
5.87219e-008
4.53233e-008
4.31366e-008
4.66646e-008
4.57058e-008
4.38865e-008
4.41685e-008
4.43689e-008
4.44472e-008
1.51182
1.37306
1.25061
1.14166
1.04166
0.948098
0.858613
0.771107
0.683796
0.595223
0.504269
0.410173
0.312552
0.211312
0.0959206
0.0234721
0.0030382
0.000299144
2.8515e-005
2.73694e-006
2.83305e-007
6.34488e-008
4.77364e-008
4.103e-008
4.44257e-008
4.52527e-008
4.4075e-008
4.39868e-008
4.4058e-008
1.53034
1.39576
1.2766
1.17013
1.07434
0.984728
0.899653
0.817117
0.735403
0.653074
0.568973
0.482224
0.392218
0.298572
0.201064
0.0891587
0.0216302
0.00293538
0.000316546
3.32048e-005
3.50443e-006
3.8639e-007
7.65139e-008
5.13458e-008
4.17844e-008
4.25492e-008
4.51275e-008
4.41157e-008
4.34883e-008
1.54178
1.41086
1.29603
1.19273
1.0993
1.01417
0.93312
0.855022
0.778227
0.70134
0.623204
0.542906
0.459758
0.373279
0.283182
0.189547
0.079277
0.0187746
0.00265953
0.000313438
3.6109e-005
4.17743e-006
5.01808e-007
9.47532e-008
5.06069e-008
4.36055e-008
4.25729e-008
4.51062e-008
4.50188e-008
1.54754
1.42035
1.30896
1.21001
1.1196
1.03689
0.960243
0.886239
0.813896
0.741862
0.669004
0.594399
0.517331
0.437272
0.353872
0.266998
0.177057
0.0708445
0.0163487
0.00241808
0.00030954
3.89243e-005
4.91515e-006
6.44531e-007
1.14463e-007
5.0834e-008
4.45859e-008
4.15162e-008
4.30452e-008
1.54876
1.42536
1.31745
1.22181
1.13574
1.05577
0.981875
0.912014
0.843788
0.776212
0.708174
0.638755
0.567223
0.493017
0.415738
0.335134
0.25109
0.16335
0.0627886
0.0142956
0.00223208
0.000310925
4.26762e-005
5.88201e-006
8.33922e-007
1.43748e-007
5.56464e-008
4.67669e-008
4.06761e-008
1.54624
1.42671
1.32232
1.23
1.14714
1.07154
1.00039
0.933687
0.869105
0.805464
0.741704
0.676921
0.610375
0.541482
0.469802
0.39502
0.31691
0.23524
0.149512
0.0554213
0.0126013
0.00208797
0.000315658
4.70804e-005
7.03813e-006
1.07193e-006
1.87298e-007
6.40956e-008
4.63592e-008
1.54065
1.42507
1.32425
1.23525
1.1556
1.08317
1.01586
0.952143
0.891547
0.831523
0.77162
0.71097
0.648855
0.58469
0.518021
0.448501
0.375868
0.299899
0.220296
0.136319
0.0489567
0.0112266
0.0019793
0.000323799
5.22762e-005
8.43491e-006
1.37733e-006
2.4963e-007
7.33724e-008
1.53255
1.42096
1.32375
1.23809
1.16158
1.09219
1.02811
0.967228
0.909195
0.853015
0.796934
0.740303
0.682423
0.622725
0.560752
0.496147
0.428638
0.358003
0.284021
0.206337
0.124025
0.0434886
0.0101789
0.0019149
0.000338207
5.88722e-005
1.02198e-005
1.79014e-006
3.30357e-007
1.5224
1.41486
1.3213
1.23899
1.16565
1.09933
1.03834
0.981233
0.926198
0.873037
0.820199
0.767058
0.712923
0.657224
0.599499
0.53938
0.476579
0.410867
0.342047
0.26989
0.193993
0.113249
0.0391113
0.00941963
0.00188813
0.000357863
6.68077e-005
1.24306e-005
2.2845e-006
1.51056
1.40713
1.31725
1.23829
1.16807
1.1047
1.04655
0.992167
0.940071
0.889611
0.84022
0.790489
0.739936
0.688012
0.634267
0.578335
0.519924
0.458801
0.394773
0.327658
0.25722
0.183002
0.103807
0.0356002
0.00887127
0.00189241
0.000384295
7.68885e-005
1.49932e-005
1.49736
1.39808
1.31191
1.23633
1.16923
1.10883
1.05357
1.00213
0.953376
0.905914
0.859307
0.812561
0.765177
0.716619
0.666448
0.614298
0.559875
0.50294
0.443299
0.380785
0.315226
0.246394
0.173889
0.0946065
0.0325154
0.0084318
0.00191404
0.00041583
8.69687e-005
1.48304
1.38796
1.30552
1.23331
1.16931
1.11181
1.0593
1.01046
0.964146
0.919187
0.875247
0.831654
0.787508
0.742306
0.695627
0.647121
0.5965
0.54353
0.488017
0.429802
0.368739
0.304677
0.237419
0.167039
0.0859441
0.0297881
0.00806249
0.00194554
0.000440538
1.46782
1.37695
1.29827
1.22944
1.16854
1.11393
1.06417
1.01803
0.974458
0.932578
0.891374
0.850545
0.809034
0.766675
0.723043
0.677785
0.630605
0.58126
0.52955
0.475308
0.418392
0.358675
0.296027
0.230393
0.16226
0.0790146
0.0277143
0.00783119
0.001955
1.45184
1.36521
1.2903
1.22486
1.16707
1.11533
1.06829
1.02477
0.983777
0.94444
0.905775
0.867337
0.828716
0.789281
0.748655
0.706515
0.662586
0.616635
0.568468
0.51792
0.46485
0.409138
0.350675
0.28939
0.225356
0.158938
0.0747145
0.0266612
0.00766741
1.43521
1.35285
1.28172
1.21968
1.16497
1.11608
1.0717
1.03072
0.992132
0.955086
0.918785
0.8829
0.846924
0.810249
0.772495
0.733343
0.692523
0.649806
0.605
0.557939
0.508486
0.456519
0.401938
0.344663
0.284667
0.222017
0.156842
0.0733826
0.0260958
1.41801
1.33992
1.27259
1.21395
1.16232
1.11628
1.07456
1.0361
0.999995
0.965454
0.931852
0.898421
0.864977
0.830683
0.795465
0.759003
0.721023
0.681292
0.639609
0.595804
0.549732
0.501269
0.450308
0.396763
0.340574
0.281713
0.22016
0.156082
0.0723632
1.40029
1.32649
1.26296
1.20772
1.15918
1.11596
1.07689
1.04094
1.00724
0.975069
0.94379
0.912711
0.881453
0.84976
0.81716
0.783371
0.748148
0.711273
0.672555
0.631827
0.588943
0.543775
0.496213
0.446164
0.393552
0.338318
0.280434
0.219753
0.155301
1.38208
1.31256
1.25284
1.20101
1.15555
1.11515
1.07869
1.04521
1.01386
0.98394
0.954812
0.925895
0.896995
0.86775
0.837669
0.806475
0.773927
0.739812
0.703947
0.666165
0.62632
0.584285
0.539943
0.493197
0.443961
0.392164
0.337755
0.280634
0.220843
1.36337
1.29814
1.24223
1.19381
1.15142
1.11384
1.08
1.04897
1.01998
0.992356
0.965528
0.939023
0.912435
0.885503
0.857686
0.828868
0.798803
0.767278
0.734103
0.699109
0.662146
0.623079
0.581789
0.538169
0.492126
0.44358
0.392464
0.338707
0.28216
1.34416
1.28321
1.23111
1.18609
1.14678
1.11202
1.08079
1.05222
1.02558
1.00025
0.975713
0.95155
0.927142
0.90238
0.876876
0.850421
0.822787
0.793769
0.763181
0.730856
0.696644
0.660405
0.622017
0.581366
0.53835
0.492883
0.444885
0.394281
0.340918
1.32442
1.26773
1.21943
1.1778
1.14157
1.10963
1.081
1.05489
1.03059
1.00751
0.985154
0.963075
0.940854
0.918216
0.8951
0.871044
0.845841
0.8193
0.791247
0.76152
0.729968
0.696454
0.660848
0.623034
0.582904
0.540361
0.495319
0.447694
0.397362
1.30408
1.25164
1.20712
1.16889
1.13573
1.1066
1.08059
1.05693
1.03498
1.01416
0.994003
0.974083
0.953994
0.933751
0.91287
0.891102
0.868242
0.844104
0.818513
0.791306
0.762332
0.731448
0.698523
0.663431
0.62606
0.586305
0.544071
0.499267
0.451787
1.28309
1.23485
1.1941
1.15925
1.12916
1.10285
1.07946
1.05828
1.03869
1.02017
1.00228
0.984661
0.967027
0.948927
0.930374
0.91075
0.890143
0.868341
0.845154
0.820411
0.793951
0.765627
0.735298
0.702835
0.668116
0.631027
0.591466
0.549336
0.504538
1.26137
1.2173
1.18028
1.14879
1.12176
1.09827
1.07752
1.05883
1.04162
1.02542
1.00981
0.994445
0.97904
0.963157
0.946684
0.929518
0.911334
0.891958
0.87122
0.848954
0.825001
0.799211
0.771437
0.741541
0.709394
0.674875
0.637872
0.59828
0.556003
1.23886
1.19889
1.16557
1.13741
1.11343
1.09276
1.07465
1.05847
1.04368
1.02982
1.01651
1.0034
0.990181
0.976505
0.962437
0.947724
0.931997
0.915093
0.896849
0.8771
0.855684
0.832444
0.807224
0.779878
0.750264
0.71825
0.683714
0.646545
0.606643
1.21553
1.1796
1.14992
1.12506
1.1041
1.08624
1.07077
1.05711
1.04475
1.03328
1.02232
1.01157
1.00074
0.989605
0.977948
0.965667
0.952324
0.937892
0.922181
0.905007
0.886193
0.865566
0.842956
0.818197
0.791132
0.761611
0.729498
0.694669
0.657018
1.19144
1.15945
1.13333
1.11172
1.09375
1.07868
1.06584
1.05471
1.0448
1.03573
1.02717
1.01881
1.01044
1.00185
0.992584
0.98276
0.971985
0.960179
0.94714
0.932679
0.916604
0.898726
0.878856
0.856804
0.832388
0.805432
0.775773
0.743267
0.707793
1.16673
1.13858
1.11595
1.09752
1.08249
1.07017
1.05996
1.05133
1.04387
1.03721
1.03104
1.02509
1.01911
1.01287
1.00604
0.998744
0.990797
0.981795
0.971588
0.960001
0.946843
0.931907
0.914981
0.895845
0.87428
0.85007
0.823012
0.792924
0.759655
1.14172
1.11729
1.09805
1.08274
1.0706
1.06099
1.05336
1.04722
1.04218
1.0379
1.03409
1.03051
1.02692
1.02314
1.01897
1.01425
1.00892
1.00263
0.995285
0.986673
0.976586
0.964796
0.951059
0.935118
0.916705
0.895547
0.871381
0.843961
0.813081
1.11694
1.09608
1.08014
1.06786
1.05856
1.05161
1.04651
1.0428
1.04011
1.03812
1.03656
1.03523
1.03391
1.03247
1.03078
1.02845
1.02567
1.02205
1.01755
1.01195
1.00504
0.996565
0.986258
0.973819
0.958925
0.941231
0.920389
0.896061
0.867951
1.09314
1.0757
1.06294
1.05362
1.04708
1.04274
1.04008
1.03868
1.03818
1.03828
1.03875
1.03938
1.04001
1.04051
1.04076
1.04053
1.03993
1.03892
1.03715
1.03448
1.03072
1.02563
1.01892
1.01026
0.999262
0.985504
0.968529
0.947877
0.923118
1.07124
1.05706
1.04737
1.04092
1.03705
1.03519
1.03481
1.0355
1.03689
1.03871
1.04073
1.04279
1.04479
1.04664
1.04828
1.04969
1.05066
1.05164
1.05215
1.05208
1.05124
1.04942
1.04634
1.04163
1.03486
1.02552
1.01302
0.996752
0.976105
1.05229
1.04118
1.03442
1.0307
1.02934
1.02974
1.03134
1.03369
1.03643
1.03929
1.04208
1.0447
1.0471
1.0493
1.05132
1.05319
1.05511
1.05744
1.05958
1.0615
1.06312
1.06427
1.06468
1.06396
1.06166
1.05715
1.04974
1.03867
1.02307
1.03729
1.02903
1.02499
1.02377
1.02463
1.02688
1.0299
1.0332
1.03639
1.03923
1.04157
1.04343
1.04485
1.04598
1.04698
1.04854
1.05067
1.05293
1.05559
1.05859
1.06196
1.06558
1.06913
1.0723
1.0746
1.07523
1.07346
1.06853
1.05907
1.02698
1.02128
1.01964
1.02055
1.02313
1.02656
1.03013
1.03327
1.0356
1.0369
1.03714
1.03648
1.03513
1.03387
1.03332
1.03295
1.03308
1.03383
1.03575
1.03867
1.04292
1.04838
1.05456
1.06131
1.06834
1.07405
1.07822
1.08066
1.07858
1.02165
1.01814
1.01845
1.02089
1.02443
1.02807
1.03097
1.03247
1.03224
1.03014
1.02627
1.02162
1.0167
1.01138
1.00598
1.00136
0.998071
0.996022
0.995826
0.997873
1.00201
1.00823
1.01633
1.02609
1.03715
1.04867
1.06044
1.06888
1.07458
1.02098
1.0192
1.02085
1.02406
1.02756
1.03017
1.03091
1.02906
1.0244
1.01717
1.00823
0.997549
0.985489
0.97337
0.961835
0.951677
0.943637
0.937704
0.934521
0.934268
0.937049
0.942913
0.95179
0.963549
0.97793
0.994435
1.0126
1.03135
1.04403
1.02411
1.02353
1.0258
1.02887
1.03122
1.03145
1.02853
1.02157
1.01154
0.997478
0.980274
0.961203
0.941169
0.921428
0.902935
0.886406
0.872423
0.861391
0.85377
0.849831
0.84976
0.853688
0.861673
0.873728
0.889773
0.909689
0.933138
0.960431
0.984885
1.02979
1.02987
1.03202
1.03404
1.03416
1.03075
1.02301
1.01017
0.992283
0.969876
0.944174
0.916671
0.88848
0.860812
0.834771
0.811179
0.790645
0.773613
0.760466
0.751488
0.746908
0.746939
0.751744
0.761495
0.776327
0.79667
0.8226
0.855797
0.891605
1.03667
1.03693
1.03833
1.03852
1.0356
1.02785
1.01442
0.994417
0.968681
0.938264
0.904432
0.868852
0.832946
0.797983
0.765023
0.734846
0.708004
0.684881
0.665765
0.650887
0.640459
0.634724
0.633851
0.638085
0.647684
0.663767
0.687045
0.720437
0.762934
1.04361
1.04367
1.04386
1.04179
1.03537
1.02292
1.00336
0.976732
0.943892
0.906265
0.865498
0.823345
0.781328
0.740692
0.702387
0.66707
0.63516
0.606909
0.58247
0.561949
0.545455
0.533153
0.525023
0.521117
0.522283
0.529646
0.544233
0.568821
0.607951
1.04982
1.04945
1.04823
1.04373
1.03378
1.01669
0.99182
0.95947
0.920855
0.877708
0.831913
0.785281
0.73932
0.69518
0.653667
0.61528
0.580287
0.548788
0.520789
0.496249
0.47512
0.457405
0.443036
0.431797
0.423996
0.420887
0.42353
0.432472
0.458799
1.05489
1.05399
1.05141
1.04461
1.03152
1.01061
0.981504
0.944866
0.902223
0.855538
0.806821
0.757876
0.710134
0.664624
0.622007
0.582644
0.546678
0.514097
0.484802
0.458646
0.435461
0.415107
0.397529
0.382642
0.369226
0.358794
0.351251
0.344132
0.351004
1.05871
1.05734
1.05361
1.045
1.02949
1.00582
0.973841
0.934535
0.889657
0.841305
0.791527
0.742071
0.694268
0.64903
0.606904
0.568157
0.532854
0.500932
0.472246
0.446616
0.423835
0.403725
0.386042
0.371115
0.357631
0.347346
0.336009
0.323627
0.313768
1.06138
1.05967
1.05517
1.04537
1.02841
1.00317
0.969736
0.929295
0.883739
0.835216
0.785749
0.737012
0.690246
0.646271
0.605564
0.568339
0.534635
0.504377
0.477425
0.453614
0.432763
0.414732
0.399279
0.386668
0.375804
0.369947
0.361682
0.36128
0.3328
1.06309
1.06123
1.05644
1.0462
1.02877
1.00314
0.969541
0.929246
0.884196
0.836528
0.788219
0.740877
0.69568
0.6534
0.614482
0.579129
0.547383
0.519186
0.494427
0.472981
0.454716
0.439562
0.427356
0.41847
0.4118
0.411384
0.408504
0.420764
0.378746
1.06407
1.06227
1.05772
1.0478
1.03086
1.00592
0.973218
0.934039
0.890296
0.844088
0.79735
0.75166
0.708172
0.667653
0.630554
0.597094
0.567339
0.541263
0.518795
0.499856
0.484372
0.472348
0.46373
0.459018
0.457324
0.463108
0.467235
0.487909
0.44688
5.80606e-005
5.80601e-005
5.80599e-005
5.80599e-005
5.80605e-005
5.80611e-005
5.80612e-005
5.80606e-005
5.80601e-005
5.80603e-005
5.80611e-005
5.80614e-005
5.80609e-005
5.80607e-005
5.80613e-005
5.80613e-005
5.80606e-005
5.806e-005
5.80604e-005
5.80617e-005
5.80622e-005
5.8061e-005
5.80597e-005
5.80593e-005
5.80605e-005
5.8061e-005
5.80611e-005
5.80615e-005
5.80621e-005
5.80614e-005
5.80601e-005
5.80591e-005
5.80596e-005
5.80608e-005
5.80609e-005
5.80608e-005
5.80608e-005
5.80608e-005
5.80608e-005
5.80608e-005
5.80608e-005
5.80608e-005
5.80608e-005
5.80609e-005
5.80609e-005
5.80609e-005
5.80609e-005
5.80609e-005
5.80609e-005
5.80609e-005
5.80609e-005
5.8061e-005
5.8061e-005
5.8061e-005
5.8061e-005
5.8061e-005
5.80611e-005
5.80611e-005
5.80611e-005
5.80611e-005
5.80611e-005
5.80612e-005
5.80612e-005
5.80612e-005
5.80612e-005
5.80613e-005
5.80613e-005
5.80613e-005
5.80613e-005
5.80613e-005
5.80614e-005
5.80613e-005
5.80614e-005
5.80614e-005
5.80615e-005
5.80614e-005
5.80615e-005
5.80615e-005
5.80615e-005
5.80617e-005
5.80617e-005
5.80618e-005
5.80618e-005
5.80616e-005
5.80616e-005
5.80617e-005
5.80617e-005
5.80614e-005
5.80617e-005
5.80619e-005
5.80618e-005
5.80617e-005
5.80617e-005
5.80618e-005
5.80618e-005
5.80618e-005
5.80618e-005
5.80618e-005
5.80618e-005
5.80619e-005
5.80619e-005
5.80619e-005
5.80619e-005
5.80619e-005
5.80619e-005
5.80619e-005
5.80619e-005
5.80619e-005
5.80619e-005
5.80619e-005
5.80619e-005
5.80619e-005
5.80619e-005
5.80619e-005
5.80619e-005
5.80619e-005
5.80619e-005
5.80619e-005
5.80619e-005
5.80619e-005
5.80619e-005
5.80619e-005
5.80619e-005
5.80619e-005
5.8062e-005
5.8062e-005
5.8062e-005
5.8062e-005
5.8062e-005
5.8062e-005
5.80621e-005
5.80623e-005
5.80622e-005
5.80625e-005
5.80623e-005
5.80627e-005
5.80625e-005
5.80634e-005
5.93211e-005
4.60785e-006
4.60703e-006
4.6066e-006
4.60694e-006
4.6083e-006
4.60936e-006
4.60909e-006
4.60786e-006
4.60703e-006
4.6079e-006
4.6096e-006
4.60975e-006
4.60849e-006
4.60844e-006
4.60968e-006
4.60972e-006
4.60798e-006
4.60675e-006
4.60793e-006
4.61048e-006
4.61103e-006
4.60847e-006
4.6061e-006
4.60565e-006
4.60812e-006
4.60905e-006
4.60918e-006
4.61026e-006
4.61118e-006
4.60945e-006
4.60693e-006
4.60518e-006
4.60661e-006
4.6088e-006
4.60892e-006
4.60887e-006
4.60883e-006
4.60881e-006
4.60881e-006
4.60881e-006
4.60883e-006
4.60886e-006
4.60892e-006
4.60898e-006
4.60904e-006
4.60907e-006
4.60911e-006
4.60912e-006
4.60916e-006
4.60918e-006
4.60922e-006
4.60926e-006
4.60931e-006
4.60937e-006
4.60942e-006
4.60946e-006
4.60954e-006
4.60957e-006
4.60964e-006
4.60968e-006
4.60973e-006
4.6098e-006
4.60982e-006
4.60991e-006
4.60992e-006
4.61001e-006
4.61002e-006
4.61016e-006
4.61012e-006
4.6102e-006
4.61027e-006
4.6102e-006
4.61046e-006
4.61033e-006
4.61049e-006
4.61041e-006
4.61058e-006
4.61068e-006
4.61072e-006
4.61099e-006
4.61108e-006
4.61136e-006
4.61117e-006
4.6108e-006
4.61081e-006
4.61103e-006
4.61095e-006
4.61052e-006
4.61113e-006
4.61139e-006
4.61125e-006
4.61115e-006
4.61119e-006
4.61123e-006
4.61128e-006
4.61128e-006
4.61134e-006
4.61135e-006
4.61139e-006
4.61141e-006
4.61143e-006
4.61144e-006
4.61145e-006
4.61146e-006
4.61146e-006
4.61147e-006
4.61146e-006
4.61148e-006
4.61148e-006
4.6115e-006
4.6115e-006
4.61152e-006
4.61152e-006
4.61153e-006
4.61153e-006
4.61154e-006
4.61154e-006
4.61153e-006
4.61153e-006
4.61151e-006
4.6115e-006
4.61148e-006
4.61146e-006
4.61147e-006
4.61148e-006
4.61151e-006
4.61152e-006
4.61159e-006
4.61153e-006
4.61165e-006
4.61171e-006
4.61213e-006
4.61195e-006
4.61265e-006
4.61222e-006
4.61302e-006
4.61344e-006
4.61778e-006
5.10359e-006
7.23899e-007
7.23908e-007
7.23995e-007
7.24286e-007
7.2458e-007
7.24415e-007
7.23994e-007
7.23838e-007
7.24195e-007
7.24729e-007
7.24778e-007
7.2431e-007
7.24053e-007
7.24464e-007
7.24839e-007
7.24666e-007
7.24154e-007
7.24014e-007
7.24466e-007
7.24581e-007
7.24268e-007
7.23719e-007
7.23759e-007
7.24188e-007
7.24685e-007
7.24632e-007
7.24712e-007
7.24885e-007
7.24633e-007
7.2408e-007
7.24003e-007
7.24151e-007
7.2486e-007
7.24935e-007
7.24898e-007
7.2492e-007
7.24946e-007
7.24964e-007
7.24983e-007
7.25008e-007
7.25035e-007
7.25066e-007
7.25106e-007
7.25147e-007
7.25184e-007
7.25209e-007
7.25232e-007
7.25246e-007
7.2527e-007
7.2529e-007
7.25319e-007
7.25345e-007
7.25375e-007
7.25406e-007
7.25435e-007
7.25462e-007
7.25499e-007
7.25524e-007
7.2556e-007
7.25585e-007
7.25616e-007
7.25647e-007
7.25669e-007
7.25707e-007
7.25728e-007
7.25764e-007
7.25783e-007
7.25826e-007
7.25833e-007
7.25874e-007
7.25906e-007
7.25905e-007
7.25983e-007
7.2597e-007
7.26031e-007
7.26039e-007
7.26074e-007
7.26136e-007
7.26157e-007
7.26119e-007
7.26188e-007
7.26264e-007
7.26249e-007
7.26252e-007
7.26226e-007
7.26263e-007
7.26151e-007
7.26158e-007
7.26274e-007
7.263e-007
7.26307e-007
7.2632e-007
7.26323e-007
7.26326e-007
7.26335e-007
7.26349e-007
7.26373e-007
7.26377e-007
7.2639e-007
7.26395e-007
7.264e-007
7.26404e-007
7.26405e-007
7.26407e-007
7.26403e-007
7.26402e-007
7.26391e-007
7.26389e-007
7.26382e-007
7.26378e-007
7.26371e-007
7.26364e-007
7.26354e-007
7.26342e-007
7.26331e-007
7.26309e-007
7.26299e-007
7.2627e-007
7.26252e-007
7.26222e-007
7.26193e-007
7.26157e-007
7.26124e-007
7.26096e-007
7.26075e-007
7.26056e-007
7.26046e-007
7.26004e-007
7.26025e-007
7.26063e-007
7.25921e-007
7.26065e-007
7.26096e-007
7.25998e-007
7.25812e-007
7.30672e-007
7.09316e-007
6.41549e-007
1.36425e-006
2.1293e-007
2.12945e-007
2.13006e-007
2.13104e-007
2.13076e-007
2.12941e-007
2.12935e-007
2.13114e-007
2.13317e-007
2.13306e-007
2.13121e-007
2.13014e-007
2.1317e-007
2.13429e-007
2.13474e-007
2.1332e-007
2.1314e-007
2.13145e-007
2.13234e-007
2.13216e-007
2.13102e-007
2.13052e-007
2.13114e-007
2.13292e-007
2.13376e-007
2.13423e-007
2.13456e-007
2.13444e-007
2.13315e-007
2.1327e-007
2.13293e-007
2.13411e-007
2.13558e-007
2.13551e-007
2.13585e-007
2.1361e-007
2.13631e-007
2.1365e-007
2.13669e-007
2.1369e-007
2.13712e-007
2.13737e-007
2.13764e-007
2.1379e-007
2.13813e-007
2.13832e-007
2.13851e-007
2.13866e-007
2.13886e-007
2.13909e-007
2.13929e-007
2.13946e-007
2.13968e-007
2.1399e-007
2.14011e-007
2.14033e-007
2.14056e-007
2.14077e-007
2.141e-007
2.1412e-007
2.14143e-007
2.14164e-007
2.14185e-007
2.14206e-007
2.14227e-007
2.14248e-007
2.14269e-007
2.14289e-007
2.14308e-007
2.14329e-007
2.14347e-007
2.14367e-007
2.14395e-007
2.14406e-007
2.14425e-007
2.14446e-007
2.14432e-007
2.1446e-007
2.14485e-007
2.14469e-007
2.14509e-007
2.14515e-007
2.14542e-007
2.14546e-007
2.14578e-007
2.14567e-007
2.1454e-007
2.14548e-007
2.14556e-007
2.14579e-007
2.14614e-007
2.14615e-007
2.14615e-007
2.14626e-007
2.14647e-007
2.14662e-007
2.14674e-007
2.14676e-007
2.14682e-007
2.14686e-007
2.14689e-007
2.14691e-007
2.14693e-007
2.14695e-007
2.14694e-007
2.14694e-007
2.14689e-007
2.14686e-007
2.1468e-007
2.14675e-007
2.14668e-007
2.14659e-007
2.1465e-007
2.14636e-007
2.14628e-007
2.14614e-007
2.14605e-007
2.14587e-007
2.14573e-007
2.14552e-007
2.14532e-007
2.14504e-007
2.14478e-007
2.14448e-007
2.1442e-007
2.14374e-007
2.14342e-007
2.14307e-007
2.1427e-007
2.14218e-007
2.14292e-007
2.14281e-007
2.13746e-007
2.19234e-007
2.16875e-007
1.67689e-007
4.21957e-007
8.95554e-005
0.00716775
1.03707e-007
1.03727e-007
1.03774e-007
1.03788e-007
1.03763e-007
1.03766e-007
1.03842e-007
1.03921e-007
1.03923e-007
1.03859e-007
1.03822e-007
1.03873e-007
1.03988e-007
1.04035e-007
1.04e-007
1.03891e-007
1.03879e-007
1.03912e-007
1.03951e-007
1.03963e-007
1.03948e-007
1.03967e-007
1.04002e-007
1.04055e-007
1.04078e-007
1.04117e-007
1.04145e-007
1.04142e-007
1.04113e-007
1.04122e-007
1.04133e-007
1.04202e-007
1.04237e-007
1.04263e-007
1.04289e-007
1.04308e-007
1.04326e-007
1.04341e-007
1.04357e-007
1.04374e-007
1.04392e-007
1.04412e-007
1.04432e-007
1.04451e-007
1.04468e-007
1.04486e-007
1.04503e-007
1.04522e-007
1.04539e-007
1.04552e-007
1.04567e-007
1.04589e-007
1.04609e-007
1.04628e-007
1.04645e-007
1.04664e-007
1.04682e-007
1.04701e-007
1.04718e-007
1.04737e-007
1.04755e-007
1.04772e-007
1.04791e-007
1.04807e-007
1.04825e-007
1.0484e-007
1.04859e-007
1.04872e-007
1.04891e-007
1.04905e-007
1.04916e-007
1.04939e-007
1.04946e-007
1.04964e-007
1.04971e-007
1.0499e-007
1.04986e-007
1.04993e-007
1.05009e-007
1.05002e-007
1.0502e-007
1.05026e-007
1.05043e-007
1.05064e-007
1.05089e-007
1.05084e-007
1.05065e-007
1.05081e-007
1.05098e-007
1.05115e-007
1.05135e-007
1.05147e-007
1.05167e-007
1.05184e-007
1.05189e-007
1.05187e-007
1.05187e-007
1.05191e-007
1.05193e-007
1.052e-007
1.05201e-007
1.05204e-007
1.05204e-007
1.05205e-007
1.05206e-007
1.05205e-007
1.05205e-007
1.05199e-007
1.05197e-007
1.05187e-007
1.05183e-007
1.05169e-007
1.05161e-007
1.05142e-007
1.05135e-007
1.05119e-007
1.05111e-007
1.05095e-007
1.05084e-007
1.05068e-007
1.05053e-007
1.05031e-007
1.05014e-007
1.04991e-007
1.04973e-007
1.05004e-007
1.05031e-007
1.04835e-007
1.04765e-007
1.0525e-007
1.04517e-007
1.04392e-007
1.08205e-007
8.00687e-008
9.12564e-008
8.54531e-007
0.000112685
0.0071728
0.0760117
7.06061e-008
7.06289e-008
7.06525e-008
7.06616e-008
7.06633e-008
7.06813e-008
7.07197e-008
7.07366e-008
7.07279e-008
7.07185e-008
7.07325e-008
7.07772e-008
7.08176e-008
7.08246e-008
7.07994e-008
7.07686e-008
7.0785e-008
7.08257e-008
7.08807e-008
7.08994e-008
7.08938e-008
7.08969e-008
7.09179e-008
7.09614e-008
7.10023e-008
7.10151e-008
7.10293e-008
7.10314e-008
7.1024e-008
7.10159e-008
7.10258e-008
7.10818e-008
7.11182e-008
7.11534e-008
7.11683e-008
7.11816e-008
7.11975e-008
7.12138e-008
7.12302e-008
7.12472e-008
7.12648e-008
7.12829e-008
7.12991e-008
7.13129e-008
7.13273e-008
7.13448e-008
7.13605e-008
7.13723e-008
7.13868e-008
7.14099e-008
7.14371e-008
7.14574e-008
7.14717e-008
7.14865e-008
7.15026e-008
7.15202e-008
7.1536e-008
7.15532e-008
7.15689e-008
7.15854e-008
7.16017e-008
7.16164e-008
7.16337e-008
7.16472e-008
7.16637e-008
7.16768e-008
7.16937e-008
7.17044e-008
7.17218e-008
7.17336e-008
7.17433e-008
7.17645e-008
7.17698e-008
7.17888e-008
7.17944e-008
7.18109e-008
7.18187e-008
7.1825e-008
7.18394e-008
7.18447e-008
7.18583e-008
7.18627e-008
7.18709e-008
7.18924e-008
7.19066e-008
7.19057e-008
7.19048e-008
7.19144e-008
7.19185e-008
7.19232e-008
7.19415e-008
7.19592e-008
7.19704e-008
7.1972e-008
7.19737e-008
7.19803e-008
7.19858e-008
7.19982e-008
7.20024e-008
7.20087e-008
7.20118e-008
7.20159e-008
7.20175e-008
7.20196e-008
7.20192e-008
7.2019e-008
7.20184e-008
7.20157e-008
7.20145e-008
7.20075e-008
7.20029e-008
7.19912e-008
7.19845e-008
7.19698e-008
7.19644e-008
7.19515e-008
7.19435e-008
7.19296e-008
7.19205e-008
7.19075e-008
7.1895e-008
7.18768e-008
7.18612e-008
7.18389e-008
7.18007e-008
7.15652e-008
7.14495e-008
7.19113e-008
7.17666e-008
7.07175e-008
7.22096e-008
7.31201e-008
6.20787e-008
1.57479e-007
4.21242e-006
0.000287032
0.0101938
0.0898984
0.290212
5.78218e-008
5.78705e-008
5.78925e-008
5.78893e-008
5.78946e-008
5.79159e-008
5.79301e-008
5.79351e-008
5.79481e-008
5.79734e-008
5.7997e-008
5.801e-008
5.80185e-008
5.80163e-008
5.80146e-008
5.80389e-008
5.8083e-008
5.81051e-008
5.81219e-008
5.81345e-008
5.8158e-008
5.818e-008
5.81939e-008
5.82052e-008
5.82298e-008
5.82526e-008
5.8271e-008
5.82773e-008
5.82803e-008
5.82869e-008
5.8307e-008
5.83422e-008
5.83668e-008
5.83839e-008
5.83988e-008
5.84193e-008
5.84395e-008
5.8458e-008
5.84755e-008
5.84935e-008
5.8511e-008
5.85267e-008
5.85413e-008
5.85576e-008
5.85738e-008
5.85886e-008
5.86048e-008
5.86308e-008
5.86573e-008
5.86738e-008
5.86782e-008
5.86836e-008
5.87003e-008
5.87221e-008
5.87415e-008
5.87603e-008
5.87756e-008
5.87928e-008
5.88076e-008
5.8824e-008
5.88386e-008
5.88539e-008
5.88688e-008
5.88835e-008
5.88978e-008
5.89124e-008
5.89264e-008
5.89407e-008
5.89548e-008
5.89685e-008
5.89802e-008
5.89969e-008
5.90046e-008
5.90216e-008
5.9029e-008
5.90417e-008
5.90499e-008
5.90546e-008
5.9068e-008
5.90807e-008
5.90918e-008
5.90982e-008
5.91053e-008
5.91132e-008
5.9126e-008
5.91316e-008
5.91413e-008
5.91572e-008
5.91591e-008
5.91672e-008
5.91836e-008
5.91927e-008
5.91945e-008
5.92018e-008
5.92136e-008
5.9228e-008
5.92339e-008
5.92381e-008
5.9239e-008
5.92425e-008
5.92454e-008
5.92491e-008
5.92508e-008
5.92533e-008
5.92536e-008
5.92529e-008
5.92515e-008
5.92508e-008
5.92469e-008
5.92444e-008
5.92383e-008
5.92312e-008
5.92227e-008
5.92146e-008
5.92059e-008
5.9198e-008
5.9187e-008
5.91779e-008
5.91662e-008
5.91554e-008
5.91426e-008
5.91286e-008
5.91121e-008
5.91011e-008
5.91389e-008
5.95255e-008
5.95585e-008
5.85192e-008
5.90295e-008
6.0136e-008
5.84792e-008
5.62698e-008
2.0319e-007
1.22025e-005
0.000652207
0.0172462
0.119545
0.345447
0.604005
5.19993e-008
5.19844e-008
5.1993e-008
5.20171e-008
5.20252e-008
5.20299e-008
5.20576e-008
5.20943e-008
5.21028e-008
5.20917e-008
5.20887e-008
5.21093e-008
5.21597e-008
5.21815e-008
5.2175e-008
5.21611e-008
5.21699e-008
5.22333e-008
5.22921e-008
5.23022e-008
5.22793e-008
5.22769e-008
5.23156e-008
5.23737e-008
5.24133e-008
5.24166e-008
5.24159e-008
5.2406e-008