/*--------------------------------*- C++ -*----------------------------------*\
| =========                 |                                                 |
| \\      /  F ield         | OpenFOAM: The Open Source CFD Toolbox           |
|  \\    /   O peration     | Version:  5.x                                   |
|   \\  /    A nd           | Web:      www.OpenFOAM.org                      |
|    \\/     M anipulation  |                                                 |
\*---------------------------------------------------------------------------*/
/*   Windows 32 and 64 bit porting by blueCAPE: http://www.bluecape.com.pt   *\
|  Based on Windows porting (2.0.x v4) by Symscape: http://www.symscape.com   |
\*---------------------------------------------------------------------------*/
FoamFile
{
    version     2.0;
    format      ascii;
    class       volScalarField;
    location    "360";
    object      p;
}
// * * * * * * * * * * * * * * * * * * * * * * * * * * * * * * * * * * * * * //

dimensions      [0 2 -2 0 0 0 0];

internalField   nonuniform List<scalar> 
43900
(
0.337903
0.337554
0.337512
0.337384
0.33718
0.336955
0.33675
0.33642
0.336178
0.335853
0.335529
0.335198
0.334852
0.33449
0.334119
0.33374
0.33335
0.332951
0.332546
0.33213
0.331709
0.331282
0.330847
0.330407
0.329961
0.32951
0.329055
0.328594
0.32813
0.335913
0.343999
0.337857
0.341151
0.338637
0.339391
0.338478
0.338297
0.337846
0.337415
0.337013
0.336578
0.336146
0.335718
0.335286
0.33485
0.334411
0.333969
0.333522
0.333073
0.332621
0.332161
0.3317
0.331235
0.330764
0.33029
0.329809
0.329325
0.32884
0.329087
0.350884
0.339787
0.34604
0.340953
0.343526
0.341137
0.341475
0.340382
0.339967
0.339375
0.338811
0.33827
0.337736
0.337206
0.336682
0.336163
0.335647
0.335136
0.334626
0.334113
0.333604
0.333096
0.332583
0.332072
0.331557
0.33104
0.330523
0.330001
0.32428
0.351933
0.345209
0.345001
0.344645
0.344222
0.343132
0.343088
0.342294
0.341916
0.341349
0.340829
0.340304
0.339775
0.339245
0.338716
0.338184
0.337652
0.33712
0.336585
0.336054
0.335522
0.334985
0.334451
0.333918
0.33338
0.332843
0.332303
0.33176
0.326904
0.350741
0.345733
0.345121
0.345098
0.344669
0.344475
0.344242
0.343715
0.343407
0.342975
0.342553
0.342129
0.341687
0.341233
0.340766
0.340292
0.339808
0.339311
0.33881
0.338299
0.337779
0.337258
0.336727
0.336183
0.335639
0.335088
0.33453
0.333966
0.332005
0.350055
0.347027
0.346717
0.346641
0.34623
0.345955
0.345704
0.345484
0.345212
0.344838
0.344491
0.344117
0.343726
0.343322
0.342904
0.342469
0.342021
0.341562
0.341087
0.340598
0.340098
0.339583
0.339055
0.338518
0.337971
0.337408
0.336835
0.336254
0.338153
0.352118
0.3503
0.349763
0.349713
0.349567
0.349232
0.348774
0.348447
0.348212
0.347877
0.347511
0.347141
0.346747
0.346338
0.34592
0.345487
0.345037
0.344572
0.344094
0.343602
0.343094
0.342574
0.342043
0.341496
0.340931
0.340359
0.339781
0.339192
0.345095
0.356287
0.355147
0.354533
0.354352
0.35421
0.353992
0.353638
0.353172
0.352726
0.352386
0.352017
0.351602
0.351177
0.350735
0.350279
0.349805
0.349317
0.348813
0.348289
0.347754
0.347205
0.346637
0.346052
0.345453
0.344847
0.344219
0.343569
0.342909
0.353016
0.361972
0.361276
0.360641
0.360359
0.360146
0.359894
0.359584
0.35919
0.35867
0.35815
0.35773
0.357288
0.356803
0.356303
0.355789
0.355259
0.354703
0.354129
0.353541
0.352931
0.352303
0.351659
0.351
0.350326
0.349631
0.348918
0.348197
0.34746
0.362135
0.369056
0.368651
0.368006
0.367643
0.367361
0.367049
0.366694
0.366293
0.365823
0.365243
0.364621
0.364088
0.363552
0.362983
0.362395
0.361793
0.361172
0.360518
0.359842
0.359148
0.358433
0.357703
0.356951
0.356176
0.355392
0.354589
0.353764
0.352917
0.371593
0.377536
0.377243
0.376573
0.376144
0.375797
0.375425
0.375007
0.374545
0.374034
0.373457
0.372783
0.372044
0.371382
0.370725
0.370049
0.369353
0.36863
0.367882
0.367113
0.366314
0.365501
0.364664
0.363793
0.362913
0.362001
0.361068
0.360134
0.359174
0.381669
0.387106
0.386864
0.38616
0.385673
0.385269
0.384839
0.38436
0.383831
0.38325
0.382612
0.381906
0.381113
0.380251
0.379436
0.378637
0.377831
0.376999
0.376138
0.375245
0.374337
0.373392
0.372417
0.371442
0.370404
0.369342
0.368268
0.367156
0.366042
0.392907
0.39765
0.397439
0.396713
0.396175
0.395717
0.395231
0.394694
0.394104
0.393456
0.392745
0.391968
0.391114
0.390167
0.389151
0.388169
0.387206
0.386239
0.385231
0.384194
0.383133
0.382035
0.380911
0.379747
0.378569
0.377366
0.376125
0.374874
0.373576
0.404878
0.409107
0.4089
0.408148
0.407558
0.407043
0.406499
0.405901
0.405244
0.404524
0.403734
0.402871
0.401929
0.400898
0.399766
0.398569
0.397398
0.396247
0.395078
0.39387
0.39264
0.391386
0.390096
0.388755
0.387381
0.386004
0.38459
0.383124
0.381656
0.417534
0.421397
0.421177
0.420391
0.41975
0.419178
0.418575
0.417912
0.417186
0.41639
0.415518
0.414564
0.413524
0.412394
0.411164
0.409824
0.408422
0.407041
0.405689
0.404302
0.402871
0.401424
0.399934
0.398404
0.396836
0.395219
0.393581
0.391911
0.390185
0.430799
0.434412
0.434171
0.433349
0.432657
0.432028
0.431364
0.430637
0.42984
0.428966
0.428009
0.426961
0.425817
0.424574
0.423229
0.421772
0.420201
0.418562
0.416932
0.415318
0.413661
0.411955
0.410232
0.408448
0.406629
0.404783
0.402877
0.400957
0.399004
0.444573
0.448032
0.447765
0.446902
0.446159
0.445473
0.444749
0.443955
0.443084
0.442129
0.441081
0.439932
0.438677
0.437311
0.435832
0.434234
0.432509
0.430658
0.428738
0.426814
0.424903
0.422947
0.420939
0.418917
0.416843
0.41472
0.412576
0.410399
0.408176
0.458768
0.462146
0.461853
0.460947
0.460153
0.459413
0.458629
0.457769
0.456825
0.455791
0.454654
0.453408
0.452045
0.45056
0.44895
0.447211
0.445339
0.443327
0.441185
0.438971
0.436761
0.434552
0.432292
0.43
0.427677
0.425277
0.42282
0.420339
0.41779
0.473283
0.476639
0.476322
0.475372
0.474529
0.473737
0.472894
0.47197
0.470955
0.469839
0.468613
0.467268
0.465797
0.464192
0.462451
0.460569
0.458544
0.456373
0.45405
0.451589
0.449049
0.4465
0.44394
0.441305
0.438622
0.435899
0.433102
0.430265
0.42739
0.487988
0.491375
0.491036
0.490039
0.489146
0.488301
0.487399
0.486405
0.485313
0.484113
0.482793
0.481342
0.479753
0.478017
0.476131
0.474089
0.471888
0.469528
0.467002
0.464305
0.461453
0.458517
0.455563
0.452577
0.44951
0.446423
0.443291
0.440099
0.436901
0.502779
0.506244
0.505885
0.50484
0.503898
0.503002
0.502042
0.500984
0.499817
0.498531
0.497113
0.495554
0.493844
0.491975
0.489941
0.487736
0.485358
0.482804
0.480071
0.477156
0.474053
0.470789
0.467441
0.464056
0.460647
0.457172
0.453672
0.450093
0.446398
0.517556
0.521137
0.520762
0.519669
0.51868
0.517733
0.516715
0.515588
0.514343
0.512969
0.511456
0.50979
0.50796
0.505959
0.503779
0.501414
0.498861
0.496116
0.49318
0.490049
0.486721
0.483193
0.479499
0.475695
0.471835
0.467922
0.463924
0.459866
0.455765
0.532208
0.535942
0.535553
0.534412
0.533376
0.532378
0.531302
0.53011
0.528789
0.527328
0.525713
0.523932
0.521975
0.519833
0.517498
0.514964
0.512226
0.509281
0.506127
0.502763
0.49919
0.495402
0.491396
0.487202
0.48289
0.478507
0.474058
0.469543
0.464994
0.546655
0.550572
0.550171
0.548983
0.5479
0.546853
0.545718
0.544455
0.543051
0.541495
0.539774
0.537876
0.535789
0.533502
0.531006
0.528295
0.525364
0.522209
0.518829
0.515221
0.511388
0.507331
0.503046
0.498524
0.493806
0.488958
0.484015
0.479011
0.473926
0.560804
0.564932
0.564521
0.563284
0.562154
0.561055
0.559859
0.558524
0.557038
0.555388
0.553559
0.551538
0.54931
0.546867
0.544199
0.5413
0.538165
0.534788
0.531168
0.527304
0.523195
0.518846
0.514259
0.509431
0.504351
0.499055
0.493599
0.488033
0.482382
0.574591
0.578954
0.578535
0.577249
0.576072
0.574923
0.573665
0.572255
0.570682
0.568929
0.566981
0.564824
0.562446
0.559836
0.556985
0.553884
0.550528
0.546912
0.543033
0.538891
0.534485
0.529819
0.524896
0.519721
0.514293
0.508603
0.502683
0.496582
0.490355
0.587951
0.592571
0.592144
0.590809
0.589587
0.588385
0.587063
0.585575
0.583908
0.582046
0.579973
0.577674
0.575138
0.572351
0.569301
0.565982
0.562387
0.558511
0.554353
0.54991
0.545184
0.540177
0.534893
0.529339
0.523522
0.517446
0.511107
0.504532
0.497756
0.60083
0.605727
0.605292
0.603908
0.602639
0.601385
0.599996
0.598425
0.59666
0.594684
0.592481
0.590033
0.587325
0.584345
0.581081
0.577526
0.573673
0.569516
0.565054
0.560284
0.555209
0.549831
0.544156
0.53819
0.531943
0.525425
0.518641
0.511597
0.504329
0.613185
0.618376
0.617935
0.616502
0.615188
0.613881
0.612424
0.61077
0.608903
0.606808
0.604464
0.601854
0.598961
0.595773
0.59228
0.58847
0.584337
0.579875
0.575082
0.569955
0.564498
0.558714
0.552609
0.546192
0.539472
0.532464
0.525177
0.517622
0.509838
0.62498
0.630479
0.630031
0.628551
0.627193
0.625834
0.624308
0.622568
0.620596
0.618375
0.615884
0.613103
0.610017
0.606611
0.602872
0.598789
0.594353
0.589559
0.584405
0.578889
0.573014
0.566784
0.560208
0.553296
0.54606
0.538518
0.530685
0.522581
0.514209
0.636184
0.642002
0.641546
0.640021
0.638622
0.637211
0.635616
0.633787
0.631707
0.629356
0.626712
0.623756
0.620467
0.61683
0.612829
0.608453
0.603692
0.59854
0.592995
0.587054
0.580722
0.574004
0.566908
0.559449
0.551641
0.543504
0.535061
0.526335
0.517341
0.646775
0.652919
0.652455
0.650887
0.64945
0.64799
0.646328
0.644411
0.642222
0.639739
0.63694
0.6338
0.630298
0.626415
0.622137
0.617449
0.612341
0.606806
0.600838
0.594437
0.587606
0.580351
0.572683
0.564618
0.556174
0.547373
0.538242
0.528812
0.519109
0.656737
0.663209
0.662736
0.661129
0.659659
0.658154
0.656426
0.654423
0.652126
0.649512
0.646553
0.643224
0.639501
0.635365
0.630797
0.625782
0.620306
0.61436
0.607938
0.601039
0.593665
0.585824
0.577528
0.568794
0.559645
0.550106
0.54021
0.529992
0.51949
0.666061
0.672859
0.672374
0.670734
0.669236
0.667689
0.665898
0.663811
0.661407
0.658661
0.655542
0.652021
0.648074
0.643678
0.638811
0.633454
0.627589
0.621207
0.614301
0.606866
0.598906
0.590428
0.581445
0.571978
0.562051
0.551697
0.540952
0.52986
0.518469
0.674742
0.681859
0.68136
0.679693
0.678173
0.676589
0.67474
0.672572
0.670064
0.667187
0.663908
0.660196
0.656022
0.651359
0.646182
0.640467
0.634197
0.627357
0.619937
0.611931
0.603341
0.594174
0.584444
0.574174
0.563394
0.55214
0.540457
0.528398
0.516019
0.682782
0.690209
0.689693
0.688005
0.686471
0.684856
0.682953
0.680709
0.678101
0.675097
0.671661
0.667759
0.663356
0.658421
0.652924
0.646842
0.64015
0.632831
0.624868
0.616255
0.60699
0.59708
0.58654
0.575394
0.563677
0.551432
0.538713
0.525582
0.512109
0.690185
0.697912
0.697377
0.695675
0.694135
0.692494
0.690542
0.688228
0.685524
0.682397
0.678806
0.674714
0.670081
0.664872
0.659054
0.652597
0.645471
0.63765
0.629118
0.619862
0.609877
0.599168
0.58775
0.57565
0.562905
0.549569
0.535705
0.521388
0.506705
0.696961
0.704982
0.704423
0.702716
0.701177
0.699515
0.69752
0.695139
0.692344
0.689098
0.685355
0.681075
0.676213
0.670731
0.664589
0.657748
0.650174
0.641836
0.632709
0.622775
0.612025
0.60046
0.588093
0.574954
0.561084
0.546545
0.531414
0.515783
0.499758
0.703116
0.711436
0.710849
0.709144
0.707613
0.705936
0.703902
0.70146
0.698579
0.695218
0.691328
0.686864
0.681778
0.676022
0.669552
0.662321
0.65429
0.645418
0.635674
0.625029
0.613469
0.600988
0.587597
0.573324
0.558219
0.542351
0.525814
0.508722
0.491206
0.708662
0.7173
0.716677
0.714979
0.713463
0.711777
0.709708
0.707209
0.704248
0.700777
0.696745
0.692102
0.686794
0.680768
0.67397
0.66635
0.657857
0.64844
0.638057
0.62667
0.614253
0.600794
0.586298
0.57079
0.554325
0.536983
0.518877
0.50015
0.480968
0.713605
0.722601
0.721932
0.720247
0.718751
0.717058
0.714959
0.712408
0.70937
0.705794
0.701626
0.696808
0.691283
0.684992
0.677874
0.669869
0.660913
0.650945
0.63991
0.627755
0.614442
0.599943
0.584256
0.567401
0.549435
0.53045
0.510583
0.490012
0.468953
0.717956
0.727373
0.726641
0.724969
0.723498
0.721801
0.719675
0.717076
0.713967
0.710292
0.705993
0.70101
0.695278
0.688734
0.681306
0.672924
0.663513
0.652998
0.641307
0.62837
0.614126
0.598533
0.58157
0.563249
0.543624
0.5228
0.500942
0.478273
0.455073
0.721728
0.731646
0.730826
0.729168
0.727725
0.726026
0.723875
0.721234
0.718059
0.714293
0.709874
0.704737
0.698815
0.692035
0.684317
0.67558
0.665737
0.654694
0.64236
0.628638
0.613445
0.596713
0.578395
0.558487
0.537033
0.514147
0.490022
0.464944
0.439276
0.724944
0.735449
0.734508
0.732863
0.73145
0.729751
0.72758
0.724902
0.72167
0.717824
0.7133
0.708029
0.70194
0.694953
0.686981
0.677928
0.667692
0.65616
0.643214
0.628729
0.612591
0.594695
0.574962
0.553353
0.529893
0.504695
0.477983
0.450112
0.421565
0.72764
0.738802
0.737701
0.736071
0.734692
0.732997
0.730812
0.728106
0.724831
0.720924
0.716319
0.710945
0.704727
0.697578
0.689403
0.68009
0.669523
0.657566
0.644067
0.628871
0.611823
0.592772
0.571588
0.548183
0.522547
0.494769
0.465098
0.433971
0.402021
0.729867
0.741721
0.74042
0.738815
0.737475
0.735789
0.733602
0.730887
0.727591
0.723651
0.719002
0.713571
0.707278
0.700028
0.691718
0.682227
0.671417
0.659123
0.645165
0.629348
0.611467
0.591311
0.568683
0.543422
0.515454
0.484823
0.451784
0.416842
0.380827
0.73169
0.744218
0.742684
0.741121
0.739831
0.738167
0.735997
0.733297
0.730014
0.726084
0.721442
0.716013
0.709712
0.702444
0.694095
0.68453
0.673588
0.661081
0.646793
0.630486
0.611895
0.590736
0.566724
0.539601
0.509184
0.475427
0.438583
0.399192
0.358288
0.733184
0.746311
0.744522
0.743033
0.741806
0.740182
0.738057
0.735408
0.732182
0.728315
0.723741
0.718389
0.712172
0.704989
0.696715
0.687201
0.676266
0.663694
0.649234
0.632602
0.613468
0.591464
0.566201
0.537284
0.504378
0.467273
0.426148
0.381529
0.334801
0.734422
0.74803
0.745977
0.744602
0.743456
0.741896
0.73985
0.737294
0.734173
0.73043
0.726001
0.720815
0.714783
0.707794
0.699717
0.690386
0.6796
0.667121
0.652666
0.635902
0.616436
0.593811
0.567512
0.536974
0.501666
0.461092
0.415272
0.364467
0.310762
0.735466
0.749416
0.747106
0.745888
0.74484
0.743371
0.741438
0.739017
0.736055
0.732499
0.728287
0.723346
0.717583
0.710882
0.7031
0.694063
0.683558
0.671324
0.657054
0.64037
0.620819
0.597852
0.570826
0.538967
0.50151
0.457519
0.406793
0.348797
0.286671
0.736363
0.750523
0.747966
0.74695
0.746011
0.744658
0.742868
0.740617
0.737855
0.734529
0.730579
0.725928
0.72048
0.714117
0.706691
0.698023
0.687892
0.676023
0.662089
0.645679
0.626291
0.60329
0.575914
0.543157
0.504008
0.456902
0.401378
0.335308
0.26319
0.73714
0.751409
0.748616
0.747835
0.747009
0.745787
0.744158
0.742094
0.739548
0.736464
0.732781
0.728423
0.723291
0.717268
0.710204
0.70192
0.692189
0.680735
0.667216
0.651204
0.63216
0.609384
0.58202
0.54883
0.50858
0.458902
0.399102
0.324369
0.240819
0.737818
0.752131
0.749108
0.748587
0.747867
0.74678
0.745313
0.743432
0.741087
0.738224
0.73478
0.730678
0.72582
0.720087
0.713333
0.705377
0.695997
0.684916
0.67179
0.656179
0.637527
0.615084
0.587934
0.554625
0.513772
0.462075
0.398707
0.315116
0.218899
0.738407
0.752742
0.749492
0.749238
0.74861
0.747651
0.74633
0.744606
0.74243
0.739745
0.736487
0.732576
0.727917
0.72239
0.715851
0.708122
0.698983
0.68816
0.675307
0.659979
0.64161
0.619406
0.592412
0.558971
0.517643
0.464107
0.397482
0.304752
0.19404
0.738839
0.75321
0.749737
0.749739
0.749177
0.748324
0.747117
0.745513
0.743458
0.740896
0.737759
0.733967
0.729423
0.724009
0.717582
0.709965
0.700938
0.690227
0.677483
0.662254
0.643958
0.621756
0.594662
0.560786
0.518687
0.462886
0.392485
0.288723
0.158831
0.738874
0.753306
0.749606
0.749825
0.749288
0.748496
0.747345
0.745796
0.743795
0.741284
0.738195
0.734447
0.729942
0.724562
0.71816
0.710558
0.701535
0.69081
0.678028
0.66272
0.644286
0.621832
0.594332
0.559646
0.516335
0.457566
0.382528
0.263296
0.107805
0.738621
0.753069
0.749154
0.749525
0.748967
0.748176
0.74701
0.745437
0.743405
0.740861
0.737739
0.733957
0.729416
0.723995
0.717546
0.709886
0.700787
0.68996
0.677039
0.661535
0.64282
0.619942
0.591827
0.556087
0.511309
0.449241
0.369595
0.232024
0.0441175
0.740557
0.754916
0.750966
0.75146
0.750974
0.750273
0.749188
0.747677
0.745681
0.743141
0.73999
0.736152
0.73153
0.72601
0.719444
0.711654
0.702409
0.691417
0.678304
0.662565
0.643552
0.620268
0.59159
0.55496
0.508921
0.444429
0.362258
0.216196
0.00619789
0.750288
0.764918
0.761432
0.762254
0.76236
0.762377
0.762115
0.761454
0.76026
0.758416
0.755825
0.752401
0.748058
0.7427
0.736207
0.728421
0.719136
0.708078
0.694891
0.679087
0.660029
0.636748
0.60808
0.571669
0.525309
0.462023
0.380382
0.266547
0.183735
0.327577
0.326933
0.326284
0.325627
0.324964
0.324295
0.323619
0.322937
0.322249
0.321557
0.320858
0.320153
0.319442
0.318726
0.318005
0.317276
0.316544
0.315808
0.315069
0.314321
0.313568
0.312815
0.312062
0.311304
0.310548
0.309791
0.309026
0.308258
0.307491
0.306724
0.305957
0.305193
0.304427
0.303659
0.302892
0.302125
0.30136
0.300596
0.299835
0.299075
0.298317
0.297562
0.296808
0.296058
0.295311
0.294567
0.293826
0.293089
0.292356
0.291626
0.290901
0.29018
0.289463
0.288752
0.288045
0.287343
0.286647
0.285956
0.285271
0.284592
0.283919
0.283252
0.282592
0.281938
0.281292
0.280652
0.280019
0.279394
0.278777
0.278167
0.277565
0.276971
0.276385
0.275808
0.275239
0.274679
0.274128
0.273587
0.273053
0.272532
0.272022
0.271517
0.271022
0.270539
0.270064
0.269598
0.269144
0.2687
0.268266
0.267842
0.267427
0.267023
0.26663
0.266248
0.265877
0.265517
0.265168
0.26483
0.264504
0.264188
0.263884
0.263591
0.263309
0.263038
0.262778
0.262529
0.262291
0.262064
0.261848
0.261644
0.261451
0.261269
0.261098
0.260937
0.260788
0.260649
0.26052
0.2604
0.260291
0.26019
0.260098
0.260015
0.25994
0.259873
0.259815
0.259763
0.259719
0.259683
0.259654
0.259633
0.259618
0.259611
0.259613
0.259617
0.259643
0.259658
0.25972
0.25973
0.259886
0.32826
0.327587
0.326906
0.326216
0.325521
0.324819
0.324109
0.323396
0.322678
0.321951
0.321217
0.320481
0.319741
0.318996
0.318248
0.317498
0.316746
0.315987
0.315221
0.314468
0.313712
0.312948
0.312176
0.311399
0.310617
0.309841
0.309081
0.308342
0.307583
0.306801
0.306019
0.305226
0.304438
0.303656
0.302872
0.302094
0.301318
0.30054
0.299763
0.298987
0.298211
0.297437
0.296664
0.295894
0.295127
0.294363
0.293602
0.292845
0.292088
0.291335
0.290588
0.289846
0.289108
0.288376
0.287648
0.286925
0.286208
0.285497
0.284791
0.284092
0.283399
0.282712
0.282033
0.281359
0.280694
0.280035
0.279384
0.27874
0.278104
0.277476
0.276855
0.276243
0.275639
0.275045
0.27446
0.273883
0.273316
0.27276
0.272214
0.271675
0.271144
0.270627
0.270122
0.269619
0.269125
0.268643
0.268167
0.267701
0.267247
0.266803
0.266377
0.26596
0.265552
0.265157
0.264779
0.264415
0.264063
0.263721
0.263389
0.263069
0.262761
0.262465
0.26218
0.261907
0.261647
0.261399
0.261162
0.260939
0.260728
0.260528
0.260341
0.260166
0.260002
0.259849
0.259708
0.259577
0.259457
0.259346
0.259245
0.259155
0.259073
0.259001
0.258938
0.258885
0.258841
0.258808
0.258778
0.25876
0.258745
0.25873
0.258727
0.258707
0.258724
0.258679
0.258729
0.258662
0.258713
0.258639
0.258599
0.329382
0.328667
0.327943
0.327217
0.326484
0.325746
0.325005
0.324257
0.323503
0.322746
0.321989
0.321225
0.32046
0.319691
0.318915
0.318133
0.317347
0.316582
0.315816
0.315012
0.314207
0.313402
0.312601
0.311828
0.311041
0.310219
0.309386
0.30853
0.307702
0.306896
0.306074
0.305266
0.304453
0.303626
0.302803
0.301987
0.301173
0.30036
0.299547
0.298736
0.297926
0.297119
0.296313
0.295509
0.294705
0.293902
0.293101
0.292302
0.291508
0.290718
0.289929
0.289144
0.288365
0.287592
0.286825
0.286063
0.285306
0.284556
0.283812
0.283075
0.282345
0.281622
0.280906
0.280198
0.279499
0.278807
0.278124
0.277451
0.276786
0.27613
0.275485
0.27485
0.274224
0.273607
0.272998
0.272397
0.271807
0.271222
0.270643
0.270073
0.26951
0.26896
0.268418
0.267888
0.267375
0.266872
0.26638
0.265896
0.265424
0.264968
0.264522
0.264087
0.263669
0.263262
0.262862
0.262473
0.2621
0.261743
0.261401
0.261073
0.260759
0.260459
0.260172
0.259899
0.25964
0.259394
0.259162
0.258942
0.258736
0.258543
0.258362
0.258195
0.25804
0.257899
0.25777
0.257654
0.257549
0.257458
0.257378
0.257312
0.257258
0.257216
0.257187
0.257169
0.257163
0.257165
0.257182
0.257207
0.257252
0.2573
0.257371
0.257423
0.257502
0.257589
0.25761
0.257793
0.257656
0.258077
0.257686
0.331124
0.330383
0.329636
0.32889
0.328135
0.327373
0.326602
0.325825
0.325049
0.324261
0.323465
0.322652
0.32183
0.321007
0.320192
0.319373
0.318533
0.317666
0.3168
0.315946
0.315093
0.314239
0.313373
0.312476
0.31159
0.31073
0.309862
0.308988
0.308101
0.307216
0.306342
0.305464
0.304582
0.303702
0.302822
0.301932
0.301042
0.300156
0.299275
0.298398
0.297523
0.296651
0.295782
0.294915
0.294051
0.293189
0.292328
0.29147
0.290611
0.289752
0.288899
0.288059
0.287234
0.286413
0.285596
0.284785
0.28398
0.28318
0.282387
0.281601
0.280822
0.280051
0.279286
0.27853
0.277782
0.277043
0.276312
0.27559
0.274878
0.274173
0.273479
0.272792
0.272113
0.271441
0.270773
0.27011
0.26945
0.268803
0.268172
0.267556
0.266962
0.266377
0.265807
0.26526
0.264727
0.26421
0.263709
0.263223
0.262754
0.262293
0.261839
0.2614
0.26097
0.260547
0.260138
0.259736
0.259343
0.258967
0.258607
0.258266
0.257943
0.257634
0.257341
0.257062
0.256799
0.256549
0.256314
0.256093
0.255886
0.255692
0.255514
0.255349
0.255198
0.25506
0.254936
0.254827
0.254735
0.254663
0.25461
0.254576
0.254562
0.254568
0.254594
0.254641
0.254707
0.254797
0.254899
0.255022
0.255169
0.255319
0.25548
0.255786
0.255748
0.256445
0.255778
0.257479
0.255715
0.258787
0.255259
0.333291
0.332503
0.331709
0.330901
0.330078
0.329247
0.328439
0.327617
0.326749
0.325882
0.325006
0.324148
0.323292
0.322406
0.32149
0.320571
0.319672
0.318769
0.317856
0.316939
0.316008
0.315072
0.314138
0.313201
0.312253
0.311293
0.310343
0.309415
0.308484
0.307523
0.306548
0.305571
0.304594
0.303628
0.302665
0.301707
0.300755
0.299804
0.298852
0.297898
0.296945
0.295995
0.295048
0.294105
0.293167
0.292237
0.291315
0.290388
0.289458
0.288535
0.287622
0.286704
0.285784
0.284878
0.283985
0.283102
0.282227
0.28136
0.280501
0.279649
0.278806
0.277971
0.277143
0.276325
0.275514
0.274713
0.27392
0.273135
0.272361
0.271594
0.270838
0.270091
0.269357
0.268636
0.267933
0.267251
0.266584
0.265934
0.265301
0.264673
0.264043
0.263426
0.26282
0.262215
0.261624
0.261044
0.26047
0.259916
0.259375
0.258841
0.258333
0.257842
0.257368
0.256922
0.256487
0.256076
0.25569
0.255318
0.254961
0.254611
0.254274
0.25395
0.25364
0.253345
0.253065
0.2528
0.252552
0.252319
0.252102
0.251903
0.251719
0.251555
0.25141
0.251286
0.251183
0.251105
0.251049
0.251016
0.251004
0.251015
0.251047
0.251103
0.251182
0.251284
0.251411
0.251558
0.251752
0.251946
0.252184
0.252566
0.252598
0.253531
0.25282
0.255301
0.252649
0.258357
0.251514
0.26321
0.247202
0.335561
0.334756
0.333926
0.333075
0.332221
0.33136
0.330447
0.329529
0.328635
0.327728
0.326812
0.325867
0.324897
0.323941
0.322984
0.322025
0.321046
0.320044
0.319029
0.318015
0.317017
0.31601
0.314973
0.313931
0.312886
0.31184
0.310805
0.309766
0.308728
0.307693
0.306649
0.305603
0.304551
0.303499
0.302443
0.301389
0.300343
0.299295
0.298246
0.297199
0.296155
0.295113
0.294073
0.293036
0.291998
0.29096
0.289927
0.288899
0.287875
0.286855
0.285843
0.284837
0.283842
0.282875
0.281928
0.28098
0.280034
0.279093
0.278159
0.277233
0.276315
0.275407
0.274508
0.27362
0.272742
0.271875
0.271019
0.270174
0.269336
0.268512
0.267697
0.266894
0.266104
0.265325
0.264561
0.263816
0.263087
0.262361
0.261633
0.26092
0.260231
0.259558
0.2589
0.258271
0.257659
0.25706
0.256481
0.255911
0.255352
0.25482
0.25429
0.253773
0.253274
0.252777
0.252308
0.251861
0.251426
0.250995
0.250569
0.250161
0.249776
0.249407
0.249058
0.248731
0.248421
0.248136
0.247866
0.247621
0.247397
0.247195
0.247016
0.24686
0.246726
0.246616
0.246528
0.246462
0.246416
0.246391
0.24639
0.246411
0.246459
0.24653
0.246634
0.24677
0.246939
0.247138
0.24739
0.247727
0.247874
0.248674
0.248291
0.250189
0.248478
0.252308
0.24836
0.254786
0.246553
0.261086
0.231045
0.33847
0.33761
0.336737
0.335856
0.334948
0.334004
0.333053
0.332094
0.331108
0.330098
0.329078
0.328044
0.32702
0.32598
0.324904
0.323813
0.322711
0.321635
0.320565
0.319447
0.318305
0.317164
0.316037
0.31492
0.313793
0.312642
0.311472
0.310287
0.309095
0.307922
0.306749
0.305572
0.304402
0.303224
0.30206
0.300919
0.299774
0.298622
0.297471
0.296322
0.295175
0.294029
0.292885
0.291746
0.290613
0.289475
0.288335
0.287214
0.286108
0.285012
0.283921
0.28284
0.28177
0.280683
0.279601
0.27854
0.277495
0.276463
0.275442
0.274432
0.273433
0.272444
0.271467
0.2705
0.269544
0.268597
0.267662
0.266738
0.265831
0.264937
0.264051
0.263178
0.262319
0.261477
0.260646
0.259823
0.259016
0.258229
0.257463
0.256719
0.255989
0.255274
0.254575
0.253875
0.253195
0.252539
0.251891
0.251264
0.250667
0.25008
0.249513
0.248973
0.248449
0.247936
0.247443
0.246956
0.246472
0.246017
0.245583
0.24517
0.24477
0.244391
0.244025
0.243671
0.243344
0.243023
0.242728
0.242451
0.242197
0.241962
0.241751
0.241557
0.24139
0.24124
0.241117
0.241013
0.240937
0.240883
0.240855
0.240857
0.240885
0.240946
0.241034
0.241152
0.241309
0.241484
0.241636
0.242012
0.241928
0.242733
0.24216
0.243552
0.242481
0.244214
0.243238
0.244353
0.243358
0.250861
0.218364
0.342125
0.341215
0.340258
0.339264
0.338257
0.337236
0.336194
0.335115
0.334032
0.332954
0.331833
0.330679
0.329502
0.328318
0.327152
0.325993
0.32479
0.323547
0.322293
0.321052
0.319827
0.318597
0.317327
0.316034
0.31474
0.313471
0.312216
0.310957
0.309684
0.3084
0.307113
0.305832
0.304555
0.30327
0.301974
0.300661
0.299338
0.298029
0.296736
0.295453
0.294177
0.292909
0.291648
0.290392
0.289144
0.287898
0.286653
0.285421
0.284202
0.282995
0.281795
0.280604
0.279413
0.278221
0.277038
0.275876
0.274728
0.273592
0.272469
0.271358
0.270258
0.269172
0.268093
0.267028
0.265973
0.26493
0.263896
0.262871
0.261862
0.260874
0.259909
0.258966
0.258043
0.257143
0.256257
0.25539
0.254544
0.25371
0.252885
0.252079
0.251305
0.250528
0.249756
0.24901
0.248282
0.247562
0.246857
0.246167
0.245487
0.244832
0.244191
0.243559
0.242945
0.242364
0.241795
0.241237
0.240715
0.240216
0.239742
0.239285
0.238856
0.238443
0.238052
0.237686
0.237333
0.237013
0.236701
0.236416
0.236149
0.235901
0.235668
0.235463
0.235271
0.235106
0.234957
0.234838
0.234736
0.23466
0.234609
0.234572
0.234562
0.234564
0.234584
0.23461
0.234647
0.234734
0.234679
0.23493
0.234727
0.235163
0.234854
0.235388
0.235154
0.235406
0.23602
0.235594
0.235711
0.242686
0.21279
0.346561
0.345491
0.344415
0.343328
0.342204
0.341041
0.339872
0.338697
0.337477
0.336223
0.334967
0.333732
0.332488
0.331181
0.329836
0.328472
0.32711
0.325789
0.324462
0.323075
0.32165
0.32022
0.318814
0.317418
0.316008
0.31456
0.313116
0.311682
0.310233
0.308768
0.307312
0.30585
0.304382
0.302963
0.301573
0.300151
0.298719
0.297294
0.295868
0.294438
0.293014
0.291597
0.29019
0.288794
0.287395
0.286007
0.284625
0.283249
0.281884
0.280532
0.279198
0.277879
0.276578
0.275295
0.274014
0.272744
0.271492
0.270244
0.26901
0.267788
0.266584
0.265392
0.26422
0.263065
0.261924
0.260804
0.259698
0.258617
0.257548
0.256491
0.255446
0.254412
0.253386
0.252374
0.251387
0.250413
0.249453
0.248529
0.247621
0.246728
0.245859
0.245029
0.244216
0.243413
0.242639
0.241895
0.241165
0.240449
0.239764
0.239086
0.238423
0.237777
0.237154
0.236538
0.235924
0.23534
0.234767
0.234213
0.233667
0.233146
0.232643
0.23216
0.2317
0.231259
0.230847
0.230444
0.230078
0.229725
0.229395
0.229088
0.228805
0.22854
0.228303
0.228081
0.227885
0.227704
0.227545
0.227401
0.227263
0.227162
0.22704
0.22696
0.226879
0.226812
0.226738
0.226733
0.22662
0.22672
0.226564
0.226774
0.226579
0.22686
0.226884
0.226621
0.227087
0.226144
0.224817
0.231799
0.205554
0.351906
0.350728
0.349497
0.34823
0.346957
0.345672
0.344321
0.342934
0.341567
0.340193
0.338744
0.337252
0.335764
0.334271
0.332785
0.331291
0.329764
0.328176
0.326582
0.325015
0.323492
0.321933
0.320328
0.318718
0.317098
0.315483
0.313851
0.312206
0.31058
0.308968
0.307355
0.305766
0.304164
0.302539
0.300926
0.29934
0.297776
0.296215
0.294644
0.293073
0.291507
0.28994
0.288369
0.286795
0.285227
0.283686
0.282184
0.280703
0.279244
0.277799
0.276346
0.274909
0.273475
0.272055
0.270647
0.269232
0.267823
0.266439
0.265073
0.263722
0.26239
0.261074
0.259785
0.258517
0.257278
0.256061
0.254868
0.253697
0.252554
0.251436
0.250342
0.249274
0.248229
0.247202
0.246187
0.245196
0.244215
0.243234
0.242264
0.241309
0.240361
0.239425
0.23851
0.237608
0.23672
0.235862
0.235025
0.234217
0.233422
0.232662
0.231937
0.231231
0.230544
0.229883
0.229252
0.228638
0.228055
0.227479
0.226934
0.226408
0.225892
0.225402
0.224922
0.224465
0.224015
0.223594
0.223183
0.222788
0.222424
0.22207
0.22174
0.221428
0.221134
0.220851
0.220591
0.22034
0.220107
0.219884
0.219681
0.219475
0.219305
0.21912
0.218969
0.218824
0.218671
0.218598
0.218412
0.218438
0.218214
0.218322
0.218137
0.218127
0.218397
0.218062
0.218086
0.217344
0.215939
0.222098
0.199232
0.358002
0.356608
0.355214
0.353801
0.352301
0.350766
0.349251
0.347706
0.346085
0.344447
0.342836
0.341214
0.339557
0.33787
0.336156
0.334429
0.332694
0.330963
0.32921
0.327428
0.325603
0.323784
0.321993
0.32021
0.318408
0.3166
0.314843
0.313095
0.311291
0.309466
0.307647
0.305819
0.304006
0.302201
0.300371
0.298549
0.296744
0.294944
0.29316
0.291402
0.289661
0.287935
0.28623
0.28454
0.282882
0.281241
0.279581
0.277914
0.276271
0.274626
0.273009
0.271409
0.269824
0.268272
0.266743
0.265236
0.263765
0.262312
0.260867
0.259452
0.258051
0.256664
0.25529
0.253933
0.252592
0.251266
0.249954
0.248655
0.247375
0.246107
0.244852
0.243621
0.242409
0.241227
0.240077
0.238945
0.237858
0.23682
0.2358
0.234806
0.233859
0.232949
0.23204
0.231144
0.230274
0.229419
0.228577
0.22774
0.22693
0.226143
0.225344
0.224575
0.223833
0.223104
0.222392
0.22171
0.22104
0.220397
0.219795
0.219193
0.218622
0.218066
0.217537
0.217026
0.216544
0.216086
0.215639
0.215222
0.214801
0.214414
0.214036
0.213668
0.21331
0.212977
0.212647
0.212338
0.21204
0.211754
0.211479
0.211234
0.210982
0.210783
0.210561
0.210423
0.2102
0.210125
0.209917
0.209905
0.209735
0.209743
0.209671
0.209529
0.209654
0.209071
0.20868
0.208066
0.206929
0.212254
0.192193
0.36471
0.363125
0.361477
0.359803
0.358135
0.356423
0.354653
0.352872
0.351094
0.34928
0.347394