/*--------------------------------*- C++ -*----------------------------------*\
| =========                 |                                                 |
| \\      /  F ield         | OpenFOAM: The Open Source CFD Toolbox           |
|  \\    /   O peration     | Version:  5.x                                   |
|   \\  /    A nd           | Web:      www.OpenFOAM.org                      |
|    \\/     M anipulation  |                                                 |
\*---------------------------------------------------------------------------*/
/*   Windows 32 and 64 bit porting by blueCAPE: http://www.bluecape.com.pt   *\
|  Based on Windows porting (2.0.x v4) by Symscape: http://www.symscape.com   |
\*---------------------------------------------------------------------------*/
FoamFile
{
    version     2.0;
    format      ascii;
    class       surfaceScalarField;
    location    "360";
    object      phi;
}
// * * * * * * * * * * * * * * * * * * * * * * * * * * * * * * * * * * * * * //

dimensions      [0 3 -1 0 0 0 0];

internalField   nonuniform List<scalar> 
87341
(
0.366295
39.5567
0.530607
39.7587
0.497839
39.9558
0.604288
39.8166
0.641361
39.886
0.686665
39.8777
0.724689
39.885
0.763974
39.8838
0.802227
39.8848
0.835376
39.8899
0.86815
39.8903
0.895752
39.8954
0.922169
39.8966
0.949904
39.8953
0.973607
39.8993
0.99263
39.904
1.01522
39.9004
1.04131
39.8969
1.0614
39.9029
1.07837
39.9061
1.09416
39.9072
1.10765
39.9095
1.11945
39.9112
1.13119
39.9113
1.1489
39.9053
1.17217
39.8998
1.19283
39.9024
1.2038
39.9121
39.9176
1.20921
0.969678
38.5871
1.36131
39.3671
1.47188
39.8452
1.60784
39.6806
1.64604
39.8478
1.80326
39.7205
1.90163
39.7866
2.0295
39.7559
2.12207
39.7922
2.22216
39.7898
2.31409
39.7983
2.40148
39.808
2.48003
39.8181
2.55138
39.824
2.61921
39.8315
2.68429
39.8389
2.74309
39.8416
2.7912
39.8488
2.83962
39.8545
2.89063
39.8551
2.93579
39.8621
2.97834
39.867
3.02139
39.8682
3.06489
39.8678
3.10175
39.8685
3.12087
39.8806
3.13091
39.8923
3.14891
39.8941
39.8829
3.18362
2.03661
36.5505
3.35454
38.0492
4.1355
39.0643
4.22104
39.5951
4.3802
39.6886
4.31662
39.7841
4.35109
39.7522
4.3269
39.7801
4.35153
39.7676
4.37153
39.7698
4.39804
39.7718
4.43383
39.7723
4.47699
39.7749
4.51749
39.7835
4.55985
39.7891
4.61111
39.7877
4.66048
39.7923
4.70628
39.803
4.7549
39.8059
4.80052
39.8094
4.85144
39.8112
4.91054
39.8079
4.96552
39.8132
5.00625
39.8271
5.03629
39.8384
5.07563
39.8413
5.13631
39.8317
5.20878
39.8216
39.8308
5.26094
1.70208
34.8484
3.50827
36.243
4.96488
37.6077
5.85837
38.7016
6.16518
39.3818
6.25815
39.6911
6.27908
39.7312
6.31736
39.7418
6.34142
39.7435
6.36427
39.747
6.38647
39.7496
6.4052
39.7535
6.42475
39.7554
6.45044
39.7578
6.4798
39.7598
6.50474
39.7627
6.53574
39.7613
6.57862
39.7602
6.6198
39.7647
6.6604
39.7688
6.70189
39.7697
6.73398
39.7758
6.76321
39.784
6.8073
39.783
6.87244
39.7733
6.94748
39.7663
7.00296
39.7762
7.03558
39.789
39.8036
7.06274
1.09345
33.7549
2.46529
34.8711
4.04333
36.0296
5.5135
37.2314
6.59001
38.3053
7.18329
39.0978
7.39581
39.5187
7.44306
39.6945
7.48808
39.6985
7.53389
39.7011
7.57772
39.7058
7.62877
39.7025
7.68167
39.7025
7.72535
39.7141
7.77371
39.7114
7.82666
39.7098
7.86671
39.7212
7.90199
39.7249
7.94889
39.7178
8.00154
39.7162
8.04736
39.7239
8.09638
39.7268
8.1594
39.721
8.22433
39.718
8.2737
39.7239
8.30962
39.7304
8.34751
39.7383
8.39923
39.7373
39.7338
8.46907
0.859112
32.8958
1.87746
33.8528
3.05274
34.8543
4.38955
35.8946
5.7515
36.9433
6.89653
37.9528
7.63198
38.7833
7.99348
39.333
8.13007
39.5619
8.21718
39.614
8.30794
39.615
8.39344
39.617
8.47528
39.6206
8.56424
39.6251
8.64586
39.6298
8.72892
39.6267
8.82121
39.6289
8.91106
39.635
8.98832
39.6406
9.05933
39.6452
9.14784
39.6353
9.24647
39.6281
9.33502
39.6324
9.41009
39.643
9.48498
39.649
9.56383
39.6515
9.64588
39.6562
9.73652
39.6466
39.639
9.83132
0.757141
32.1387
1.61521
32.9947
2.57697
33.8926
3.64626
34.8253
4.8126
35.777
6.03681
36.7286
7.16065
37.6594
8.00144
38.4922
8.4709
39.0925
8.6782
39.4067
8.7975
39.4957
8.91789
39.4966
9.03699
39.5015
9.15117
39.511
9.26986
39.5111
9.38686
39.5097
9.50011
39.5157
9.62005
39.5151
9.74315
39.5175
9.86488
39.5234
9.97217
39.5281
10.0676
39.5327
10.1671
39.5329
10.2728
39.5373
10.3833
39.5385
10.4955
39.5394
10.6066
39.5451
10.708
39.5452
39.5579
10.789
0.703394
31.4353
1.47654
32.2216
2.3228
33.0463
3.24453
33.9036
4.23925
34.7823
5.2981
35.6698
6.40596
36.5516
7.4909
37.4073
8.37468
38.2087
8.94054
38.8409
9.21198
39.2243
9.35854
39.35
9.50383
39.3562
9.64906
39.3657
9.7851
39.3751
9.9245
39.3703
10.0738
39.3664
10.2121
39.3767
10.3565
39.3731
10.5054
39.3745
10.649
39.3844
10.7882
39.3935
10.922
39.3991
11.0585
39.4007
11.194
39.4031
11.3276
39.4057
11.4627
39.41
11.5957
39.4122
39.4191
11.7345
0.674673
30.7606
1.40037
31.4959
2.18095
32.2657
3.0184
33.0661
3.91225
33.8884
4.85902
34.723
5.85129
35.5593
6.87327
36.3853
7.89555
37.1864
8.79297
37.9435
9.43105
38.5862
9.76788
39.0132
9.95717
39.1669
10.1431
39.1798
10.3307
39.1875
10.5056
39.1954
10.6773
39.1947
10.8606
39.1934
11.029
39.2047
11.1953
39.2082
11.3751
39.2046
11.5602
39.2084
11.7386
39.2206
11.9083
39.2311
12.0717
39.2397
12.2342
39.2432
12.3878
39.2565
12.5305
39.2695
39.2855
12.6641
0.658039
30.1026
1.35843
30.7955
2.10118
31.523
2.88794
32.2794
3.71887
33.0575
4.59236
33.8495
5.50465
34.647
6.44874
35.4412
7.41302
36.2221
8.37876
36.9777
9.27478
37.6902
9.96269
38.3253
10.3611
38.7685
10.5893
38.9517
10.8051
38.9716
11.0167
38.9838
11.2267
38.9848
11.428
38.9922
11.6294
39.0033
11.8309
39.0068
12.0105
39.0249
12.1971
39.0219
12.3898
39.0279
12.5881
39.0329
12.769
39.0587
12.9406
39.0716
13.1236
39.0734
13.319
39.0741
39.0907
13.5138
0.655149
29.4474
1.34483
30.1058
2.06951
30.7983
2.82994
31.519
3.62607
32.2614
4.45684
33.0187
5.32
33.7839
6.21174
34.5495
7.1261
35.3078
8.05376
36.0501
8.97852
36.7654
9.86594
37.4379
10.5805
38.0539
11.0245
38.5078
11.289
38.7072
11.5376
38.7351
11.7774
38.745
12.0265
38.7431
12.268
38.7618
12.4895
38.7853
12.724
38.7904
12.9341
38.8118
13.1374
38.8246
13.3428
38.8274
13.5698
38.8318
13.7898
38.8516
13.9809
38.8824
14.1552
38.8998
38.899
14.3469
0.660149
28.7873
1.34891
29.417
2.06801
30.0792
2.81775
30.7692
3.59786
31.4813
4.4073
32.2093
5.24429
32.9469
6.10607
33.6877
6.98868
34.4252
7.88627
35.1525
8.78975
35.8619
9.68333
36.5443
10.5503
37.1869
11.2801
37.778
11.7548
38.2325
12.0566
38.4332
12.3309
38.4707
12.5898
38.4842
12.863
38.4886
13.1328
38.5154
13.385
38.5383
13.6508
38.5459
13.9072
38.5683
14.1511
38.5835
14.3778
38.6051
14.6121
38.6173
14.873
38.6214
15.1331
38.6398
38.6774
15.3547
0.666086
28.1212
1.35898
28.7242
2.07874
29.3594
2.82536
30.0226
3.59841
30.7082
4.39706
31.4106
5.2197
32.1242
6.06411
32.8433
6.92724
33.562
7.80495
34.2748
8.69153
34.9754
9.57866
35.6571
10.4537
36.3119
11.3029
36.9287
12.0381
37.4973
12.5251
37.9462
12.8496
38.1462
13.1474
38.1864
13.4288
38.2072
13.7273
38.2169
14.0186
38.247
14.3
38.2645
14.5958
38.2724
14.8868
38.2926
15.1593
38.3326
15.4178
38.3588
15.6479
38.3913
15.8785
38.4092
38.4092
16.1467
0.676778
27.4444
1.37785
28.0231
2.10355
28.6337
2.85376
29.2724
3.62774
29.9342
4.42459
30.6138
5.24303
31.3058
6.08113
32.0052
6.93643
32.7067
7.80578
33.4054
8.6851
34.096
9.56901
34.7732
10.45
35.4309
11.317
36.0617
12.1586
36.6557
12.9002
37.2046
13.3982
37.6482
13.7421
37.8426
14.0732
37.8761
14.3754
37.9146
14.6891
37.9333
14.9984
37.9553
15.2876
37.9832
15.569
38.0111
15.8645
38.0371
16.1541
38.0692
16.4479
38.0975
16.7242
38.1329
38.1771
16.9563
0.689522
26.7549
1.40162
27.311
2.13644
27.8989
2.89398
28.5149
3.67361
29.1546
4.47413
29.8133
5.29431
30.4856
6.13259
31.1669
6.98687
31.8525
7.85456
32.5377
8.73249
33.2181
9.61663
33.8891
10.5018
34.5458
11.3807
35.1828
12.2431
35.7934
13.0791
36.3686
13.822
36.9053
14.3192
37.3455
14.6694
37.5259
15.0264
37.5576
15.3501
37.6096
15.6659
37.6395
15.9946
37.6545
16.308
37.6978
16.6018
37.7432
16.8908
37.7802
17.1657
37.8226
17.4703
37.8283
37.874
17.7734
0.702974
26.0519
1.42736
26.5866
2.17305
27.1532
2.93984
27.7481
3.72736
28.3671
4.53455
29.0061
5.35986
29.6603
6.20181
30.3249
7.05861
30.9957
7.92804
31.6683
8.80744
32.3387
9.69359
33.0029
10.5825
33.6569
11.469
34.2963
12.346
34.9163
13.2036
35.511
14.0359
36.073
14.7804
36.6009
15.2765
37.0297
15.6404
37.1937
16.0215
37.2286
16.3603
37.3006
16.6807
37.3341
17.0207
37.3579
17.3637
37.4001
17.7067
37.4373
18.0373
37.492
18.341
37.5246
37.5636
18.6514
0.717533
25.3344
1.45563
25.8485
2.21415
26.3947
2.99272
26.9695
3.79083
27.569
4.60783
28.1891
5.4424
28.8257
6.29286
29.4745
7.15753
30.131
8.03444
30.7914
8.9213
31.4518
9.8155
32.1087
10.7139
32.7585
11.6127
33.3975
12.5071
34.0219
13.3908
34.6273
14.2553
35.2084
15.0972
35.7591
15.8487
36.2782
16.3529
36.6894
16.7366
36.8449
17.1376
36.8996
17.4962
36.9755
17.8402
37.0139
18.1868
37.0536
18.526
37.0981
18.8663
37.1516
19.1875
37.2035
37.2553
19.4957
0.731857
24.6025
1.48368
25.0967
2.2553
25.6231
3.0463
26.1785
3.85604
26.7592
4.68378
27.3613
5.52859
27.9809
6.38897
28.6141
7.26331
29.2567
8.14984
29.9048
9.0465
30.5552
9.95097
31.2043
10.8606
31.8489
11.7724
32.4857
12.6827
33.1116
13.5869
33.723
14.4793
34.316
15.3523
34.8861
16.2014
35.4291
16.9464
35.9445
17.446
36.3453
17.8329
36.5126
18.2379
36.5706
18.6085
36.6432
18.9764
36.6856
19.331
36.7436
19.6744
36.8081
20.0045
36.8734
36.9482
20.3116
0.744823
23.8577
1.50923
24.3323
2.29297
24.8394
3.09558
25.3759
3.91642
25.9384
4.75463
26.5231
5.60924
27.1263
6.47898
27.7443
7.36221
28.3734
8.25725
29.0098
9.16228
29.6502
10.0752
30.2914
10.9937
30.9304
11.915
31.5644
12.8361
32.1905
13.7534
32.8058
14.6623
33.4071
15.5573
33.9911
16.4319
34.5545
17.2813
35.0951
18.0158
35.6107
18.5226
36.0059
18.9318
36.1614
19.3398
36.2352
19.725
36.3005
20.1004
36.3682
20.4579
36.4506
20.8247
36.5066
36.567
21.2058
0.756866
23.1008
1.533
23.5561
2.32813
24.0442
3.14181
24.5622
3.97338
25.1068
4.82199
25.6745
5.68664
26.2617
6.56621
26.8648
7.45922
27.4804
8.36391
28.1051
9.27857
28.7355
10.2013
29.3686
11.13
30.0017
12.0623
30.6321
12.9957
31.2571
13.9272
31.8743
14.8533
32.481
15.77
33.0744
16.6727
33.6518
17.5573
34.2105
18.4181
34.7499
19.158
35.2661
19.6677
35.6517
20.0932
35.8097
20.5005
35.8932
20.8901
35.9785
21.285
36.0557
21.6033
36.1884
36.2521
21.9182
0.767565
22.3333
1.55415
22.7695
2.3595
23.2389
3.18314
23.7386
4.02444
24.2655
4.88258
24.8164
5.75653
25.3877
6.64518
25.9761
7.54727
26.5783
8.4612
27.1912
9.38525
27.8114
10.3177
28.4362
11.2565
29.0629
12.1997
29.6889
13.145
30.3119
14.0898
30.9295
15.0314
31.5394
15.9666
32.1393
16.8917
32.7267
17.8028
33.2994
18.697
33.8556
19.566
34.3971
20.2966
34.9211
20.7928
35.3134
21.2009
35.4851
21.5771
35.6023
21.9623
35.6705
22.399
35.7518
35.9008
22.7502
0.776497
21.5568
1.57185
21.9742
2.38576
22.425
3.21776
22.9066
4.06725
23.416
4.9334
23.9502
5.81524
24.5059
6.71163
25.0797
7.62131
25.6686
8.54287
26.2696
9.47464
26.8797
10.4149
27.4959
11.3619
28.1159
12.3135
28.7372
13.2678
29.3576
14.2225
29.9748
15.175
30.5869
16.1226
31.1916
17.0623
31.787
17.9906
32.3711
18.9041
32.9421
19.8016
33.4996
20.674
34.0487
21.3925
34.595
21.8972
34.9804
22.3379
35.1616
22.7112
35.2972
23.0937
35.3693
35.4832
23.5113
0.78387
20.7729
1.58638
21.1717
2.40726
21.6041
3.24606
22.0678
4.10217
22.5599
4.97479
23.0776
5.86296
23.6177
6.76554
24.1772
7.68128
24.7529
8.60884
25.3421
9.54664
25.9419
10.493
26.5495
11.4463
27.1627
12.4046
27.7789
13.366
28.3962
14.3284
29.0124
15.2895
29.6257
16.2471
30.2341
17.1984
30.8358
18.1406
31.4289
19.0707
32.012
19.9865
32.5838
20.8903
33.1449
21.7774
33.7078
22.4953
34.2625
22.9814
34.6754
23.4327
34.8459
23.8025
34.9994
35.1128
24.1729
0.789454
19.9834
1.59741
20.3637
2.42354
20.778
3.26743
21.2239
4.12846
21.6989
5.00587
22.2002
5.89873
22.7248
6.80595
23.2699
7.72629
23.8326
8.65841
24.4099
9.60079
24.9995
10.5518
25.5985
11.5097
26.2047
12.4728
26.8159
13.4391
27.4299
14.4068
28.0448
15.3738
28.6587
16.3378
29.27
17.2967
29.8769
18.2479
30.4777
19.1889
31.0711
20.117
31.6557
21.0307
32.2312
21.9397
32.7988
22.8341
33.3682
23.5476
33.9619
24.0177
34.3758
24.4592
34.558
34.7227
24.8493
0.793712
19.1897
1.60572
19.5517
2.43573
19.9479
3.28332
20.3763
4.14791
20.8343
5.02874
21.3193
5.92488
21.8287
6.83522
22.3596
7.75852
22.9093
8.69346
23.475
9.63859
24.0543
10.5923
24.6448
11.553
25.2441
12.5189
25.85
13.4882
26.4606
14.4589
27.074
15.4292
27.6884
16.397
28.3022
17.3602
28.9137
18.3165
29.5214
19.2636
30.1239
20.1993
30.72
21.1217
31.3087
22.0305
31.89
22.9364
32.4623
23.8488
33.0494
24.5607
33.664
25.0218
34.0968
34.3113
25.4332
0.796547
18.3932
1.6112
18.7371
2.44367
19.1155
3.29355
19.5264
4.16026
19.9676
5.04306
20.4365
5.94104
20.9307
6.85311
21.4475
7.77806
21.9843
8.71454
22.5385
9.66112
23.1078
10.6162
23.6897
11.5782
24.2821
12.5453
24.8829
13.5158
25.4901
14.4878
26.102
15.4595
26.7167
16.4289
27.3328
17.394
27.9486
18.3527
28.5627
19.303
29.1737
20.2427
29.7802
21.1702
30.3813
22.084
30.9761
22.9823
31.5641
23.8861
32.1456
24.8001
32.7499
25.508
33.389
33.8636
25.9557
0.798097
17.5951
1.6141
17.9211
2.44772
18.2819
3.29858
18.6756
4.16613
19.1
5.04964
19.553
5.94822
20.0322
6.86081
20.5349
7.78622
21.0589
8.72311
21.6016
9.67003
22.1608
10.6254
22.7343
11.5876
23.3199
12.5548
23.9157
13.5252
24.5197
14.497
25.1301
15.4684
25.7454
16.4373
26.3638
17.402
26.984
18.3604
27.6043
19.3104
28.2236
20.2502
28.8404
21.1779
29.4537
22.0917
30.0624
22.99
30.6657
23.872
31.2636
24.7633
31.8586
25.6708
32.4815
33.1703
26.3641
0.7985
16.7966
1.61468
17.1049
2.44829
17.4482
3.29899
17.8249
4.16626
18.2328
5.04941
18.6699
5.94755
19.134
6.85965
19.6228
7.78447
20.1341
8.72067
20.6654
9.66676
21.2147
10.6212
21.7799
11.5823
22.3589
12.5483
22.9497
13.5175
23.5505
14.4878
24.1597
15.4576
24.7757
16.4247
25.3967
17.3872
26.0214
18.3431
26.6484
19.2906
27.2762
20.2275
27.9035
21.1519
28.5292
22.0621
29.1522
22.9564
29.7714
23.8335
30.3865
24.6942
30.998
25.5689
31.6068
32.2801
26.459
0.797665
15.9989
1.61277
16.2898
2.44511
16.6159
3.29439
16.9756
4.16015
17.367
5.04171
17.7883
5.93823
18.2375
6.84868
18.7124
7.77185
19.2109
8.70639
19.7309
9.65081
20.2703
10.6035
20.8272
11.5629
21.3995
12.527
21.9856
13.494
22.5835
14.4621
23.1916
15.4293
23.8085
16.3935
24.4325
17.3528
25.0622
18.3051
25.6961
19.2483
26.3329
20.1805
26.9713
21.0998
27.61
22.0041
28.2478
22.892
28.8836
23.7618
29.5166
24.6134
30.1464
25.4472
30.773
31.4121
26.3152
0.795559
15.2034
1.60829
15.4771
2.43806
15.7861
3.28464
16.129
4.14763
16.504
5.0264
16.9096
5.92015
17.3437
6.82789
17.8047
7.74844
18.2904
8.68047
18.7989
9.62252
19.3283
10.573
19.8767
11.53
20.4425
12.4918
21.0237
13.4564
21.6189
14.4218
22.2263
15.386
22.8444
16.3467
23.4717
17.302
24.1069
18.2497
24.7484
19.1877
25.3949
20.1139
26.0452
21.0261
26.6977
21.9225
27.3514
22.8011
28.005
23.6603
28.6574
24.4989
29.3079
25.3158
29.956
30.6038
26.1241
0.79214
14.4112
1.60116
14.668
2.42702
14.9603
3.26958
15.2864
4.12853
15.6451
5.00333
16.0348
5.89323
16.4538
6.79727
16.9006
7.71432
17.3733
8.64303
17.8702
9.58192
18.3894
10.5293
18.9293
11.4835
19.4883
12.4424
20.0648
13.4042
20.6571
14.3666
21.2638
15.3276
21.8834
16.2848
22.5145
17.2361
23.1556
18.1791
23.8054
19.1116
24.4625
20.0312
25.1255
20.9358
25.7932
21.8231
26.464
22.6913
27.1369
23.5382
27.8105
24.3625
28.4837
25.1628
29.1557
29.8264
25.9402
0.787277
13.6239
1.59111
13.8642
2.41157
14.1398
3.24866
14.4494
4.10216
14.7916
4.97162
15.1653
5.85637
15.5691
6.75553
16.0015
7.66797
16.4609
8.5924
16.9457
9.52731
17.4545
10.471
17.9856
11.4218
18.5376
12.3775
19.109
13.3363
19.6984
14.2958
20.3043
15.2537
20.9255
16.2077
21.5605
17.1554
22.208
18.0941
22.8667
19.0214
23.5351
19.9349
24.212
20.8321
24.896
21.7106
25.5855
22.5681
26.2793
23.4026
26.976
24.2122
27.6741
24.9954
28.3725
29.0702
25.7516
0.780854
12.8431
1.57791
13.0671
2.39138
13.3263
3.2214
13.6193
4.06789
13.9451
4.93052
14.3027
5.80871
14.6909
6.70165
15.1085
7.60829
15.5542
8.5274
16.0266
9.4575
16.5244
10.397
17.0461
11.3439
17.5906
12.2964
18.1565
13.2522
18.7426
14.209
19.3476
15.1642
19.9702
16.1154
20.6093
17.06
21.2635
17.9951
21.9315
18.9181
22.6121
19.8263
23.3039
20.7169
24.0054
21.5872
24.7152
22.4348
25.4318
23.2572
26.1535
24.0524
26.8789
24.8186
27.6063
28.3345
25.5543
0.772778
12.0703
1.56138
12.2785
2.36617
12.5216
3.18747
12.798
4.02536
13.1072
4.87963
13.4484
5.74981
13.8207
6.63521
14.2231
7.53487
14.6546
8.44762
15.1139
9.37205
15.5999
10.3065
16.1116
11.2492
16.6479
12.198
17.2077
13.1507
17.7899
14.1048
18.3935
15.0577
19.0173
16.0067
19.6603
16.9489
20.3212
17.8815
20.999
18.8013
21.6923
19.7053
22.3999
20.5904
23.1202
21.4538
23.8519
22.2924
24.5931
23.1036
25.3423
23.885
26.0975
24.6343
26.857
27.6189
25.3499
0.762963
11.3073
1.54136
11.5001
2.33573
11.7272
3.1466
11.9872
3.97421
12.2796
4.81851
12.6041
5.67917
12.9601
6.5556
13.3467
7.44698
13.7632
8.3522
14.2087
9.26991
14.6822
10.1985
15.1831
11.1361
15.7103
12.0807
16.2631
13.03
16.8407
13.9814
17.442
14.9324
18.0664
15.8798
18.7128
16.8207
19.3803
17.7518
20.0679
18.6698
20.7744
19.5711
21.4986
20.4524
22.239
21.3102
22.994
22.1413
23.762
22.9425
24.5411
23.7109
25.3291
24.444
26.1239
26.9232
25.1398
0.751331
10.556
1.51773
10.7337
2.2999
10.945
3.09858
11.1885
3.9142
11.464
4.74686
11.7714
5.59637
12.1105
6.46228
12.4808
7.3439
12.8816
8.24022
13.3123
9.14998
13.7725
10.0717
14.2614
11.0035
14.7784
11.9435
15.3232
12.8892
15.8949
13.8381
16.4931
14.7874
17.1171
15.734
17.7662
16.6745
18.4398
17.6053
19.1371
18.5228
19.8569
19.4231
20.5983
20.3022
21.3598
21.1564
22.1399
21.9816
22.9368
22.7744
23.7484
23.5312
24.5723
24.249
25.406
26.2468
24.9255
0.737823
9.81819
1.4904
9.98115
2.25859
10.1768
3.04333
10.4037
3.84524
10.6621
4.66457
10.9521
5.5013
11.2738
6.35513
11.6269
7.2255
12.0112
8.11154
12.4263
9.01213
12.8719
9.92588
13.3476
10.8511
13.8532
11.7858
14.3884
12.7277
14.9531
13.674
15.5467
14.6219
16.1692
15.5681
16.82
16.509
17.4989
17.4409
18.2052
18.3596
18.9383
19.2607
19.6971
20.1398
20.4807
20.9924
21.2873
21.8139
22.1153
22.6
22.9622
23.3468
23.8255
24.0505
24.7023
25.589
24.7083
0.722398
9.0958
1.45933
9.24422
2.21176
9.42439
2.98083
9.63467
3.7673
9.8756
4.5716
10.1478
5.39388
10.4515
6.234
10.7868
7.09156
11.1537
7.96587
11.552
8.85594
11.9818
9.76053
12.443
10.678
12.9357
11.6065
13.4599
12.5438
14.0158
13.4872
14.6033
14.4338
15.2226
15.3802
15.8736
16.3227
16.5564
17.2571
17.2708
18.1788
18.0165
19.083
18.7929
19.9646
19.5991
20.8182
20.4337
21.6385
21.2949
22.4204
22.1803
23.1591
23.0869
23.8501
24.0112
24.9491
24.4901
0.705031
8.39077
1.42451
8.52475
2.15941
8.68949
2.91102
8.88305
3.68028
9.10634
4.46776
9.36032
5.27379
9.64551
6.0984
9.96221
6.94137
10.3107
7.80219
10.6912
8.68006
11.1039
9.57389
11.5492
10.4823
12.0274
11.4034
12.5388
12.3353
13.0839
13.2753
13.6633
14.2207
14.2773
15.1678
14.9265
16.1129
15.6114
17.0514
16.3323
17.9784
17.0896
18.8883
17.883
19.7754
18.7121
20.6333
19.5758
21.4558
20.4724
22.2366
21.3995
22.9697
22.3538
23.65
23.3309
24.3261
24.2729
0.685731
7.70503
1.38595
7.82454
2.10151
7.97393
2.83381
8.15075
3.58394
8.35621
4.35264
8.59162
5.14039
8.85776
5.94742
9.15518
6.7737
9.48441
7.61892
9.84595
8.48251
10.2403
9.36359
10.6681
10.261
11.1299
11.1733
11.6265
12.0986
12.1586
13.0345
12.7274
13.9782
13.3336
14.9263
13.9784
15.8748
14.6629
16.819
15.3881
17.7536
16.155
18.6724
16.9641
19.5688
17.8157
20.4353
18.7093
21.2643
19.6434
22.0482
20.6156
22.7796
21.6224
23.4518
22.6587
23.7185
24.0594
0.66455
7.04048
1.34368
7.14541
2.03799
7.27962
2.74897
7.43977
3.47783
7.62734
4.22549
7.84397
4.99259
8.09066
5.77957
8.3682
6.5866
8.67737
7.41362
9.01893
8.2603
9.39365
9.12607
9.80235
10.0101
10.2459
10.9111
10.7255
11.8277
11.2421
12.7577
11.7973
13.6986
12.3927
14.6472
13.0298
15.5997
13.7104
16.551
14.4367
17.4957
15.2103
18.4269
16.033
19.3369
16.9057
20.2172
17.829
21.0586
18.802
21.8514
19.8228
22.5864
20.8874
23.255
21.9901
23.1234
23.8501
0.641573
6.39891
1.29772
6.48926
1.96868
6.60866
2.65605
6.7524
3.36118
6.92221
4.08513
7.12002
4.82876
7.34704
5.59267
7.60429
6.37729
7.89276
7.18279
8.21343
8.00915
8.56728
8.85615
8.95535
9.72329
9.37879
10.6098
9.83893
11.5146
10.3373
12.4361
10.8758
13.3722
11.4566
14.32
12.0819
15.2759
12.7545
16.2351
13.4775
17.1917
14.2537
18.1385
15.0862
19.0668
15.9774
19.9668
16.929
20.8273
17.9415
21.6365
19.0136
22.3824
20.1415
23.0537
21.3188
22.536
23.6411
0.616899
5.78201
1.24802
5.85814
1.89328
5.9634
2.55444
6.09124
3.23299
6.24366
3.93016
6.42285
4.64697
6.63023
5.38425
6.867
6.14265
7.13436
6.92262
7.43346
7.72449
7.76542
8.54841
8.13143
9.39436
8.53284
10.2621
8.97119
11.1511
9.44834
12.0604
9.96654
12.9884
10.5285
13.9329
11.1374
14.8905
11.7969
15.8569
12.5111
16.8261
13.2845
17.7907
14.1216
18.7413
15.0268
19.6666
16.0036
20.5536
17.0545
21.3876
18.1796
22.1531
19.3759
22.8354
20.6365
21.9498
23.4216
0.590589
5.19142
1.19446
5.25427
1.81141
5.34644
2.44348
5.45917
3.0923
5.59483
3.75926
5.75589
4.44555
5.94394
5.15221
6.16034
5.88013
6.40644
6.63009
6.6835
7.40277
6.99274
8.19878
7.33542
9.01863
7.71299
9.86268
8.12715
10.731
8.58
11.6234
9.07415
12.5391
9.61289
13.4763
10.2002
14.4324
10.8408
15.4036
11.54
16.3843
12.3038
17.3673
13.1387
18.3426
14.0514
19.2979
15.0484
20.218
16.1345
21.0851
17.3125
21.8798
18.5812
22.5825
19.9338
21.3569
23.1755
0.562626
4.6288
1.13683
4.68007
1.72274
4.76054
2.32272
4.85919
2.93858
4.97898
3.57181
5.12266
4.22379
5.29195
4.89577
5.48836
5.5889
5.71331
6.30429
5.96811
7.04304
6.25399
7.80625
6.57221
8.595
6.92424
9.41026
7.31189
10.2528
7.73741
11.1232
8.20378
12.0213
8.71482
12.9461
9.27537
13.8961
9.89087
14.868
10.568
15.8574
11.3144
16.8571
12.1389
17.8574
13.0511
18.8451
14.0606
19.8033
15.1763
20.7109
16.4049
21.5439
17.7482
22.2765
19.2012
20.7489
22.8845
0.532917
4.09588
1.07504
4.13794
1.62726
4.20832
2.19238
4.29407
2.77227
4.39909
3.36856
4.52638
3.9828
4.67771
4.61644
4.85471
5.27093
5.05882
5.94773
5.29132
6.64837
5.55335
7.37447
5.84611
8.12766
6.17105
8.90951
6.53003
9.72143
6.9255
10.5644
7.36077
11.4392
7.84002
12.346
8.3686
13.284
8.95283
14.2515
9.60057
15.2445
10.3213
16.2572
11.1263
17.2803
12.0281
18.3003
13.0406
19.299
14.1776
20.2525
15.4514
21.1317
16.869
21.9032
18.4296
20.1179
22.5343
0.501386
3.5945
1.00928
3.63004
1.52564
3.69196
2.05367
3.76603
2.59525
3.85751
3.15212
3.9695
3.726
4.10384
4.31854
4.26217
4.93151
4.44585
5.56673
4.6561
6.22618
4.8939
6.91191
5.16038
7.626
5.45696
8.37044
5.78559
9.14707
6.14887
9.9577
6.55013
10.8039
6.99377
11.687
7.48557
12.6071
8.03269
13.5636
8.64404
14.5542
9.33082
15.5739
10.1065
16.6149
10.9871
17.6644
11.9911
18.7036
13.1384
19.7061
14.449
20.6375
15.9376
21.4555
17.6116
19.4567
22.1167
0.468126
3.12637
0.940254
3.15792
1.41939
3.21283
1.90901
3.27641
2.41094
3.35558
2.92699
3.45345
3.45904
3.57179
4.00898
3.71223
4.57886
3.87598
5.17085
4.06411
5.78724
4.27751
6.43038
4.51724
7.10262
4.78472
7.80645
5.08176
8.54441
5.41091
9.3189
5.77564
10.1321
6.18054
10.9861
6.63159
11.8822
7.13657
12.8209
7.70532
13.8014
8.35033
14.8208
9.08718
15.8728
9.93504
16.9464
10.9175
18.0235
12.0613
19.0756
13.3968
20.0638
14.9494
20.9347
16.7407
18.7585
21.6329
0.433551
2.69282
0.869275
2.72219
1.31084
2.77127
1.76183
2.82541
2.22392
2.8935
2.699
2.97837
3.18908
3.0817
3.69627
3.20504
4.2228
3.34944
4.77108
3.51583
5.34358
3.705
5.94299
3.91784
6.57211
4.1556
7.23378
4.42009
7.93088
4.71381
8.66623
5.04029
9.44257
5.4042
10.2626
5.81157
11.1287
6.27049
12.0426
6.79141
13.0052
7.38772
14.0156
8.07672
15.0703
8.88041
16.1603
9.82745
17.2701
10.9515
18.3705
12.2964
19.4196
13.9003
20.3494
15.8109
18.0161
21.0918
0.398426
2.29439
0.798122
2.3225
1.20284
2.36655
1.61607
2.41218
2.03926
2.4703
2.47441
2.54322
2.92359
2.63252
3.38903
2.7396
3.87304
2.86544
4.37825
3.01062
4.90744
3.17581
5.46348
3.3618
6.04937
3.56971
6.66813
3.80133
7.32283
4.05911
8.01663
4.34649
8.75276
4.66807
9.53451
5.02982
10.3651
5.43987
11.2477
5.90886
12.1847
6.45069
13.1776
7.08387
14.2255
7.83246
15.323
8.72996
16.4583
9.81626
17.6034
11.1513
18.7172
12.7864
19.713
14.8151
17.2197
20.5095
0.363743
1.93065
0.728729
1.95751
1.09825
1.99702
1.47549
2.03495
1.8617
2.0841
2.25889
2.14602
2.66915
2.22226
3.09476
2.31399
3.53822
2.42198
4.00223
2.5466
4.48966
2.68838
5.00344
2.84802
5.5466
3.02656
6.12228
3.22564
6.73373
3.44766
7.38433
3.69589
8.07769
3.97471
8.81761
4.28991
9.60812
4.64936
10.4534
5.06355
11.3577
5.54641
12.3245
6.11704
13.3564
6.8006
14.4515
7.63483
15.6042
8.66364
16.7889
9.9666
17.9715
11.6038
19.0424
13.7442
16.3525
19.9096
0.330515
1.60013
0.662822
1.6252
0.999485
1.66036
1.34316
1.69128
1.69492
1.73233
2.05678
1.78416
2.43082
1.84823
2.81934
1.92546
3.2249
2.01642
3.65016
2.12135
4.09793
2.24061
4.57112
2.37483
5.07274
2.52494
5.60594
2.69245
6.17402
2.87958
6.78055
3.08937
7.42939
3.32588
8.12477
3.59453
8.87142
3.9027
9.67456
4.26041
10.5399
4.68109
11.4731
5.18386
12.48
5.79366
13.5632
6.55159
14.7249
7.50202
15.9437
8.74779
17.2006
10.3469
18.3613
12.5835
15.3842
19.3296
0.299559
1.30058
0.601652
1.32311
0.908191
1.35382
1.22107
1.3784
1.54129
1.41211
1.87082
1.45463
2.21171
1.50735
2.56622
1.57095
2.93684
1.6458
3.32613
1.73206
3.73678
1.82996
4.17158
1.94003
4.63343
2.06308
5.1254
2.20048
5.65079
2.35419
6.21323
2.52693
6.81674
2.72236
7.46592
2.94535
8.16605
3.20257
8.92323
3.50322
9.74455
3.85978
10.6378
4.29066
11.6122
4.81925
12.6752
5.48853
13.8382
6.33908
15.0869
7.49902
16.4264
9.00738
17.7054
11.3045
14.26
18.8296
0.271374
1.0292
0.54589
1.0486
0.825196
1.07452
1.11014
1.09346
1.40181
1.12044
1.70209
1.15435
2.01296
1.19648
2.33658
1.24732
2.6753
1.30708
3.03154
1.37582
3.40781
1.45369
3.80672
1.54112
4.231
1.6388
4.68358
1.7479
5.16766
1.87011
5.68685
2.00774
6.24527
2.16394
6.84772
2.3429
7.49991
2.55038
8.2087
2.79443
8.98241
3.08607
9.83089
3.44218
10.7666
3.88354
11.8024
4.45272
12.9591
5.18239
14.2367
6.22143
15.6665
7.57755
17.1208
9.85025
12.8939
18.4869
0.246147
0.783055
0.495688
0.799055
0.750603
0.8196
1.01036
0.833705
1.27636
0.854438
1.55032
0.880386
1.83412
0.912691
2.12979
0.951644
2.43953
0.997345
2.76556
1.04979
3.11018
1.10908
3.47578
1.17552
3.86488
1.2497
4.28023
1.33255
4.72488
1.42545
5.20235
1.53028
5.71674
1.64955
6.27294
1.7867
6.87693
1.9464
7.53609
2.13527
8.25974
2.36242
9.0597
2.64222
9.95113
2.99211
10.9529
3.45099
12.0935
4.04171
13.3982
4.91676
14.9173
6.05846
16.65
8.11753
11.1817
18.3623
0.223911
0.559144
0.450812
0.572154
0.683968
0.586445
0.921062
0.59661
1.164
0.611497
1.41429
0.6301
1.67368
0.6533
1.94408
0.681244
2.22748
0.713947
2.52589
0.751373
2.8414
0.793569
3.17615
0.840768
3.53244
0.893407
3.9128
0.952192
4.3201
1.01815
4.7577
1.09268
5.22957
1.17768
5.74058
1.27569
6.29677
1.39022
6.90578
1.52625
7.57751
1.69069
8.32515
1.89458
9.16593
2.15134
10.1245
2.49246
11.2339
2.93228
12.5494
3.60125
14.1376
4.4702
16.2279
6.02722
9.02326
18.3863
0.204647
0.354496
0.41072
0.366082
0.624479
0.372686
0.841117
0.379972
1.06329
0.389323
1.29221
0.401177
1.52954
0.415976
1.77701
0.433777
2.03641
0.454548
2.30954
0.478241
2.59823
0.504875
2.9044
0.534598
3.23011
0.567702
3.57764
0.604656
3.94966
0.646132
4.34929
0.693052
4.78032
0.746646
5.24743
0.808578
5.75651
0.881139
6.31517
0.967591
6.93336
1.0725
7.62483
1.20311
8.40771
1.36846
9.31018
1.58999
10.3674
1.87504
11.654
2.3147
13.2603
2.86389
15.6039
3.6836
6.4258
18.2013
0.187988
0.166508
0.374622
0.179448
0.57117
0.176137
0.769183
0.18196
0.972544
0.185961
1.18206
0.191658
1.39932
0.198723
1.62587
0.207219
1.86332
0.2171
2.11323
0.228332
2.37719
0.240918
2.65686
0.254929
2.95405
0.270508
3.27082
0.287885
3.60956
0.30739
3.97315
0.329466
4.36509
0.354711
4.78974
0.38392
5.25267
0.418207
5.76115
0.459118
6.32472
0.508924
6.95687
0.57096
7.67539
0.649934
8.50935
0.756035
9.49219
0.892208
10.7019
1.10499
12.2165
1.3493
14.5148
1.38528
3.5819
17.3587
0.166508
0.345957
0.522094
0.704054
0.890015
1.08167
1.2804
1.48761
1.70472
1.93305
2.17397
2.42889
2.6994
2.98729
3.29468
3.62414
3.97885
4.36277
4.78098
5.2401
5.74902
6.31998
6.96992
7.72595
8.61816
9.72315
11.0725
12.4577
16.0396
1.21889
54.1306
1.23999
54.1191
1.26804
54.1122
1.29457
54.1137
1.30634
54.1285
1.30229
54.1443
1.29621
54.1463
1.30339
54.1331
1.32531
54.1183
1.34253
54.123
1.33872
54.1441
1.32711
54.1518
1.32826
54.1391
1.33394
54.1346
1.32642
54.1478
1.31645
54.1502
1.32564
54.131
1.34992
54.116
1.36403
54.1261
1.34367
54.1606
1.31103
54.1729
1.30656
54.1447
1.33551
54.1113
1.37592
54.0998
1.38805
54.1281
1.38609
54.1422
1.38329
54.143
1.36813
54.1554
1.3364
54.172
1.32113
54.1555
1.34005
54.1213
1.38492
54.0954
1.41937
54.1058
1.42385
54.1358
1.42527
54.1388
1.42757
54.1379
1.43051
54.1373
1.43371
54.137
1.43703
54.1369
1.44037
54.1369
1.44362
54.137
1.44664
54.1372
1.44915
54.1377
1.45108
54.1383
1.45244
54.1389
1.45353
54.1391
1.45428
54.1395
1.4549
54.1396
1.45519
54.1399
1.45518
54.1402
1.45473
54.1407
1.45395
54.141
1.45262
54.1416
1.45073
54.1421
1.44832
54.1427
1.44549
54.1431
1.44185
54.1439
1.43789
54.1442
1.43319
54.1449
1.42817
54.1453
1.4226
54.1458
1.41638
54.1465
1.40992
54.1467
1.40254
54.1476
1.39504
54.1477
1.38662
54.1487
1.37814
54.1487
1.36812
54.1503
1.35858
54.1498
1.34826
54.1506
1.33717
54.1513
1.32685
54.1506
1.31371
54.1534
1.30207
54.1519
1.28873
54.1536
1.27643
54.1525
1.2622
54.1545
1.24708
54.1553
1.2315
54.1558
1.21168
54.1601
1.1915
54.1604
1.1684
54.1633
1.14749
54.1611
1.1318
54.1559
1.11534
54.1567
1.09635
54.1592
1.07691
54.1597
1.06364
54.1535
1.04366
54.1602
1.02017
54.1637
0.998309
54.1621
0.977943
54.1606
0.957164
54.161
0.935706
54.1617
0.913506
54.1624
0.891216
54.1625
0.868332
54.1631
0.845401
54.1632
0.822058
54.1636
0.798501
54.1638
0.774712
54.164
0.750729
54.1642
0.726609
54.1644
0.702357
54.1645
0.678106
54.1645
0.65378
54.1646
0.629449
54.1646
0.604871
54.1648
0.580191
54.1649
0.555288
54.1651
0.530272
54.1653
0.505045
54.1655
0.479741
54.1655
0.454216
54.1658
0.428611
54.1658
0.402754
54.1661
0.376882
54.1661
0.350936
54.1662
0.324952
54.1662
0.298977
54.1662
0.273039
54.1662
0.24723
54.166
0.221442
54.166
0.195525
54.1662