/*--------------------------------*- C++ -*----------------------------------*\
| =========                 |                                                 |
| \\      /  F ield         | OpenFOAM: The Open Source CFD Toolbox           |
|  \\    /   O peration     | Version:  5.x                                   |
|   \\  /    A nd           | Web:      www.OpenFOAM.org                      |
|    \\/     M anipulation  |                                                 |
\*---------------------------------------------------------------------------*/
/*   Windows 32 and 64 bit porting by blueCAPE: http://www.bluecape.com.pt   *\
|  Based on Windows porting (2.0.x v4) by Symscape: http://www.symscape.com   |
\*---------------------------------------------------------------------------*/
FoamFile
{
    version     2.0;
    format      ascii;
    class       volVectorField;
    location    "360";
    object      U;
}
// * * * * * * * * * * * * * * * * * * * * * * * * * * * * * * * * * * * * * //

dimensions      [0 1 -1 0 0 0 0];

internalField   nonuniform List<vector> 
43900
(
(1.16162 -0.00073773 -1.60951e-027)
(1.16713 0.00218192 -4.31317e-027)
(1.16972 0.000365832 1.44411e-030)
(1.16837 0.00183709 2.8294e-030)
(1.16973 0.000796777 3.66725e-030)
(1.16991 0.00200875 3.67271e-030)
(1.17012 0.00118228 5.75778e-027)
(1.17052 0.00190345 -1.14952e-026)
(1.17045 0.00165021 9.69739e-030)
(1.17011 0.0018357 -1.14671e-026)
(1.17011 0.00192507 1.14898e-026)
(1.16998 0.00198334 1.15832e-029)
(1.16988 0.00201739 -1.14311e-026)
(1.16999 0.00207755 2.50365e-029)
(1.1699 0.00217001 2.56323e-029)
(1.16993 0.00219442 2.63202e-029)
(1.17013 0.00222325 -2.2754e-026)
(1.17 0.0023171 5.49806e-029)
(1.16979 0.00234002 2.27828e-026)
(1.16983 0.00238543 2.85909e-029)
(1.1699 0.00244418 2.90139e-029)
(1.16993 0.0024395 2.94977e-029)
(1.16978 0.00250036 2.99121e-029)
(1.16985 0.00251202 3.02916e-029)
(1.17022 0.00252694 3.0663e-029)
(1.1703 0.00261657 -2.24865e-026)
(1.17012 0.00262259 6.26348e-029)
(1.16985 0.00269135 6.32867e-029)
(1.16976 0.00270421 8.97541e-026)
(1.15868 0.0114642 0)
(1.1655 -0.00498305 0)
(1.17143 0.00906892 0)
(1.16658 -0.000187701 0)
(1.16842 0.0061984 0)
(1.168 0.00273213 0)
(1.16831 0.00490979 0)
(1.16764 0.00461979 0)
(1.1681 0.00463076 0)
(1.16851 0.00531576 0)
(1.16859 0.00530943 0)
(1.16891 0.0054822 0)
(1.169 0.00579124 0)
(1.16878 0.00596196 0)
(1.16905 0.00607777 0)
(1.16925 0.00623919 0)
(1.16884 0.00643109 0)
(1.16873 0.00650562 0)
(1.16925 0.00662524 0)
(1.16938 0.00679237 0)
(1.16936 0.00682583 0)
(1.16945 0.00698686 0)
(1.16966 0.00707991 0)
(1.16959 0.00714455 0)
(1.16888 0.00731256 0)
(1.16847 0.00730485 0)
(1.16877 0.00737868 0)
(1.16955 0.00739964 0)
(1.16993 0.00743486 0)
(1.102 0.0321406 0)
(1.14468 -0.0175835 0)
(1.16303 0.0288206 0)
(1.1632 -0.00369126 0)
(1.16633 0.020907 0)
(1.16424 0.00399582 0)
(1.16578 0.0150492 0)
(1.16648 0.00837664 0)
(1.16661 0.0118615 0)
(1.16665 0.0105822 0)
(1.16686 0.0107556 0)
(1.16696 0.0111031 0)
(1.16728 0.011065 0)
(1.16754 0.0111716 0)
(1.16751 0.0112747 0)
(1.16751 0.0114174 0)
(1.16783 0.0115293 0)
(1.16817 0.0116496 0)
(1.16785 0.0118041 0)
(1.16767 0.0118277 0)
(1.16795 0.012005 0)
(1.16795 0.0121815 0)
(1.16763 0.012234 0)
(1.16759 0.0124356 0)
(1.16822 0.0124825 0)
(1.1692 0.0125399 0)
(1.16951 0.0127234 0)
(1.16881 0.0128317 0)
(1.16778 0.013025 1.5781e-027)
(1.04075 0.0199845 0)
(1.08661 -0.00669786 0)
(1.12951 0.0201212 0)
(1.1555 0.00823131 0)
(1.16323 0.0222993 0)
(1.1659 0.0107975 0)
(1.1647 0.0206496 0)
(1.16354 0.0137336 0)
(1.16457 0.0182333 0)
(1.16473 0.0158669 0)
(1.16489 0.0169955 0)
(1.16525 0.0167378 0)
(1.16526 0.0168163 0)
(1.16551 0.0168775 0)
(1.16592 0.0169297 0)
(1.16579 0.0170487 0)
(1.16564 0.0170832 0)
(1.16593 0.0172184 0)
(1.16639 0.0172489 0)
(1.16666 0.0174536 0)
(1.16643 0.0175592 0)
(1.16623 0.0175539 0)
(1.16674 0.0177341 0)
(1.1675 0.0178055 0)
(1.16753 0.0178714 0)
(1.16667 0.0181849 0)
(1.16573 0.0182836 0)
(1.16578 0.018408 0)
(1.16723 0.0185214 1.68455e-027)
(1.0033 0.0101988 3.37459e-027)
(1.03879 -0.000895259 0)
(1.07566 0.0108408 0)
(1.11394 0.0129255 0)
(1.14432 0.0183462 0)
(1.15993 0.0173962 0)
(1.16326 0.0228806 0)
(1.1643 0.0186124 0)
(1.16332 0.0217312 0)
(1.16343 0.0204046 0)
(1.16342 0.0208614 0)
(1.16325 0.0212017 0)
(1.16359 0.0211533 0)
(1.1636 0.0212953 0)
(1.16351 0.0214358 0)
(1.16389 0.0215535 0)
(1.16411 0.0217608 0)
(1.1639 0.0217459 0)
(1.16382 0.0219789 0)
(1.16394 0.0220648 0)
(1.16423 0.0221384 0)
(1.16478 0.0224069 0)
(1.16485 0.0224812 0)
(1.16403 0.0226155 0)
(1.16342 0.0228758 0)
(1.16387 0.0229388 0)
(1.16534 0.0230404 0)
(1.166 0.0231857 0)
(1.16545 0.0233019 -7.08931e-027)
(0.976 0.00683792 -3.5218e-027)
(1.00587 0.00068425 0)
(1.03709 0.00760631 0)
(1.06948 0.0110589 0)
(1.10191 0.0149364 0)
(1.13224 0.0182502 0)
(1.15263 0.0222063 0)
(1.16094 0.0223486 0)
(1.16218 0.0246358 0)
(1.16184 0.0230918 0)
(1.16183 0.0244678 0)
(1.1619 0.0243273 0)
(1.16162 0.0246041 0)
(1.16191 0.0248443 0)
(1.16204 0.0251402 0)
(1.16166 0.0254042 0)
(1.16201 0.025536 0)
(1.16253 0.0259784 0)
(1.16221 0.0260864 0)
(1.16209 0.026344 0)
(1.1623 0.0266332 0)
(1.16206 0.0268114 0)
(1.16177 0.0270983 0)
(1.16231 0.027449 0)
(1.16335 0.0275887 0)
(1.16341 0.0277764 0)
(1.1624 0.0280253 0)
(1.1619 0.0282922 0)
(1.16235 0.0285677 3.75194e-027)
(0.952749 0.00529403 0)
(0.979073 0.00143787 0)
(1.00665 0.00647206 0)
(1.0353 0.0097064 0)
(1.06443 0.0130483 0)
(1.09336 0.0166894 0)
(1.12142 0.0204641 0)
(1.14477 0.0233697 0)
(1.15635 0.0260585 0)
(1.15952 0.0266296 0)
(1.15941 0.0265691 0)
(1.15916 0.0274851 0)
(1.1595 0.0276547 0)
(1.15914 0.0279656 0)
(1.15922 0.0284212 0)
(1.15967 0.0287365 0)
(1.15932 0.0291608 0)
(1.15918 0.0294215 0)
(1.1598 0.02986 0)
(1.16019 0.0302516 0)
(1.1595 0.0305251 0)
(1.15938 0.0309175 0)
(1.16007 0.0312446 0)
(1.16008 0.0314126 0)
(1.15952 0.0318259 0)
(1.15973 0.0322011 0)
(1.16088 0.0325469 0)
(1.16112 0.0329377 0)
(1.16038 0.0331051 0)
(0.931539 0.00444297 0)
(0.955489 0.00191559 0)
(0.980596 0.00604118 0)
(1.00669 0.00910946 0)
(1.0334 0.0121706 0)
(1.06028 0.0154816 0)
(1.08685 0.0190437 0)
(1.11233 0.0226279 0)
(1.13559 0.0259641 0)
(1.15037 0.0283697 0)
(1.15552 0.0301909 0)
(1.15575 0.0299088 0)
(1.15545 0.0307495 0)
(1.15594 0.0311569 0)
(1.15572 0.0316333 0)
(1.15551 0.0321389 0)
(1.1561 0.0323804 0)
(1.15598 0.0331907 0)
(1.15561 0.0333214 0)
(1.15553 0.0339947 0)
(1.15641 0.034458 0)
(1.1568 0.0348593 0)
(1.15619 0.0353 0)
(1.1563 0.0357598 0)
(1.15705 0.0362916 0)
(1.15688 0.0366313 0)
(1.15583 0.0369854 0)
(1.15581 0.0375291 0)
(1.15717 0.0378738 0)
(0.911487 0.00386527 0)
(0.933695 0.00232767 0)
(0.956975 0.0059461 0)
(0.981179 0.00894566 0)
(1.00602 0.0119028 0)
(1.0312 0.0150326 0)
(1.05634 0.0183696 0)
(1.08104 0.0218606 0)
(1.10477 0.0254108 0)
(1.12684 0.0287027 0)
(1.14365 0.0315344 0)
(1.15045 0.0336244 0)
(1.15105 0.0336682 0)
(1.15079 0.0345255 0)
(1.15114 0.0351693 0)
(1.15142 0.0358582 0)
(1.15084 0.0364725 0)
(1.15134 0.0368028 0)
(1.15136 0.0377691 0)
(1.15166 0.0381896 0)
(1.15138 0.0386293 0)
(1.15151 0.0395129 0)
(1.15248 0.040027 0)
(1.15236 0.0405974 0)
(1.15184 0.0412229 0)
(1.15221 0.0416569 0)
(1.15354 0.0424265 0)
(1.15395 0.0429082 0)
(1.15308 0.0431831 0)
(0.89205 0.00339191 0)
(0.912924 0.00272703 0)
(0.934806 0.00605212 0)
(0.957556 0.00904414 0)
(0.980946 0.011984 0)
(1.00473 0.0150503 0)
(1.02863 0.018286 0)
(1.05237 0.0216654 0)
(1.0756 0.0251532 0)
(1.09792 0.0286825 0)
(1.11867 0.0320473 0)
(1.13644 0.0350329 0)
(1.14448 0.0375527 0)
(1.14535 0.0378414 0)
(1.14511 0.0388549 0)
(1.14521 0.0396121 0)
(1.14596 0.0403161 0)
(1.1454 0.0412663 0)
(1.14596 0.0416066 0)
(1.14595 0.0426654 0)
(1.14618 0.0433254 0)
(1.14624 0.0438024 0)
(1.14605 0.0447057 0)
(1.14684 0.045177 0)
(1.14786 0.0461946 0)
(1.14766 0.0465897 0)
(1.14702 0.0471946 0)
(1.14741 0.048027 0)
(1.14919 0.0485225 -9.91423e-027)
(0.872845 0.00321799 0)
(0.892642 0.00304848 0)
(0.913427 0.00631827 0)
(0.935042 0.00937427 0)
(0.957292 0.0123711 0)
(0.979962 0.0154667 0)
(1.00283 0.0187072 0)
(1.02567 0.022075 0)
(1.04822 0.0255459 0)
(1.07019 0.0290951 0)
(1.0912 0.0326716 0)
(1.11064 0.0361179 0)
(1.12819 0.0392642 0)
(1.13761 0.0420825 0)
(1.13856 0.0426173 0)
(1.13869 0.0438738 0)
(1.13844 0.0447626 0)
(1.13944 0.0454074 0)
(1.13936 0.0468198 0)
(1.13964 0.0472797 0)
(1.14055 0.0483268 0)
(1.14037 0.0492815 0)
(1.14106 0.0499394 0)
(1.14061 0.0506948 0)
(1.14108 0.0516136 0)
(1.14201 0.0522583 0)
(1.14294 0.0534407 0)
(1.14282 0.0539608 0)
(1.14207 0.054549 1.0458e-026)
(0.853631 0.00318389 0)
(0.872492 0.00336402 0)
(0.892321 0.00669328 0)
(0.912971 0.00987312 0)
(0.934262 0.0129891 0)
(0.956006 0.0161875 0)
(0.978007 0.0195149 0)
(1.00007 0.0229577 0)
(1.02198 0.0264951 0)
(1.04352 0.0301076 0)
(1.06443 0.0337701 0)
(1.08439 0.0374324 0)
(1.10295 0.0409688 0)
(1.11981 0.0442649 0)
(1.12998 0.0472066 0)
(1.13076 0.048205 0)
(1.13162 0.0495935 0)
(1.13097 0.0504618 0)
(1.13193 0.0513784 0)
(1.13279 0.0527453 0)
(1.1325 0.053825 0)
(1.13384 0.0543379 0)
(1.13406 0.0562888 0)
(1.13485 0.0565315 0)
(1.13448 0.0578444 0)
(1.13466 0.0587927 0)
(1.13561 0.0594177 0)
(1.13644 0.0607454 0)
(1.13752 0.0617873 1.14949e-026)
(0.834219 0.00310796 0)
(0.852274 0.00372118 0)
(0.871278 0.00713736 0)
(0.891096 0.010469 0)
(0.911563 0.0137422 0)
(0.93251 0.0170875 0)
(0.953762 0.0205503 0)
(0.975143 0.0241195 0)
(0.996475 0.0277771 0)
(1.01758 0.0315066 0)
(1.03825 0.035289 0)
(1.05828 0.0390985 0)
(1.07737 0.0428867 0)
(1.09515 0.046545 0)
(1.11136 0.04998 0)
(1.12174 0.0531163 0)
(1.12238 0.0542999 0)
(1.12385 0.0559159 0)
(1.12327 0.0566711 0)
(1.12366 0.0581212 0)
(1.12532 0.0593274 0)
(1.12481 0.0608141 0)
(1.1258 0.0615009 0)
(1.12596 0.0631975 0)
(1.12764 0.0643988 0)
(1.12824 0.0650533 0)
(1.12803 0.0669894 0)
(1.12849 0.0673304 0)
(1.12954 0.0682802 -1.21435e-026)
(0.814575 0.00309794 0)
(0.831888 0.00410076 0)
(0.850138 0.0076611 0)
(0.869211 0.0111831 0)
(0.88895 0.0146537 0)
(0.909192 0.0181903 0)
(0.929783 0.021837 0)
(0.950563 0.0255849 0)
(0.971374 0.0294178 0)
(0.992057 0.0333214 0)
(1.01245 0.0372802 0)
(1.03238 0.0412751 0)
(1.05166 0.0452798 0)
(1.07001 0.0492471 0)
(1.0871 0.0530616 0)
(1.10278 0.0567127 0)
(1.11322 0.0600343 0)
(1.11353 0.0613906 0)
(1.11521 0.0631696 0)
(1.11541 0.0640856 0)
(1.11558 0.0659682 0)
(1.11727 0.0668182 0)
(1.11699 0.0689297 0)
(1.1182 0.0694897 0)
(1.11871 0.0710303 0)
(1.11939 0.0727237 0)
(1.12133 0.0731683 0)
(1.12193 0.0751903 0)
(1.12181 0.0763894 -1.33998e-026)
(0.794565 0.00313903 0)
(0.811194 0.00449861 0)
(0.828753 0.00825167 0)
(0.847133 0.0119952 0)
(0.866205 0.0156954 0)
(0.88581 0.019459 0)
(0.905796 0.023327 0)
(0.926023 0.027293 0)
(0.946347 0.0313421 0)
(0.966625 0.0354615 0)
(0.986718 0.0396378 0)
(1.00648 0.0438546 0)
(1.02576 0.0480917 0)
(1.04436 0.0523224 0)
(1.06207 0.0564974 0)
(1.07857 0.0604911 0)
(1.09392 0.0643734 0)
(1.10436 0.067798 0)
(1.10411 0.0694294 0)
(1.10587 0.0710687 0)
(1.10682 0.0725555 0)
(1.10679 0.074454 0)
(1.1086 0.075162 0)
(1.10912 0.0777101 0)
(1.11037 0.078564 0)
(1.11139 0.0796706 0)
(1.11164 0.0820773 0)
(1.11325 0.0824557 0)
(1.11532 0.083972 1.41645e-026)
(0.774175 0.00322213 0)
(0.790162 0.0049132 0)
(0.80708 0.00889769 0)
(0.82482 0.0128915 0)
(0.843263 0.0168456 0)
(0.862279 0.020864 0)
(0.881717 0.0249848 0)
(0.901435 0.0291997 0)
(0.921308 0.0334961 0)
(0.941204 0.0378619 0)
(0.961 0.042285 0)
(0.98057 0.0467511 0)
(0.999787 0.0512424 0)
(1.01851 0.0557376 0)
(1.03658 0.0602081 0)
(1.05379 0.0646011 0)
(1.06987 0.0688022 0)
(1.08496 0.0729017 0)
(1.09497 0.0765263 0)
(1.09455 0.0781916 0)
(1.09638 0.0801682 0)
(1.09824 0.0817214 0)
(1.09802 0.0839097 0)
(1.09993 0.0845792 0)
(1.10096 0.0873724 0)
(1.10225 0.0885106 0)
(1.10405 0.0899631 0)
(1.10357 0.0924134 0)
(1.10507 0.0934931 0)
(0.753375 0.00334543 0)
(0.768749 0.00535384 0)
(0.785059 0.00960744 0)
(0.8022 0.0138853 0)
(0.820056 0.0181256 0)
(0.838507 0.0224302 0)
(0.85743 0.0268401 0)
(0.876681 0.0313455 0)
(0.896133 0.0359321 0)
(0.915669 0.0405898 0)
(0.935176 0.0453069 0)
(0.954542 0.0500707 0)
(0.973657 0.0548658 0)
(0.992407 0.0596745 0)
(1.01067 0.0644758 0)
(1.02829 0.0692412 0)
(1.04511 0.0739143 0)
(1.06092 0.0783914 0)
(1.07579 0.0828409 0)
(1.08512 0.0865512 0)
(1.08496 0.0885994 0)
(1.08728 0.09063 0)
(1.08967 0.0923427 0)
(1.08953 0.0950616 0)
(1.09123 0.0957153 0)
(1.09206 0.0981968 0)
(1.09408 0.100425 0)
(1.09618 0.101067 0)
(1.09644 0.103679 0)
(0.732135 0.00350059 0)
(0.746915 0.00581602 0)
(0.762636 0.0103683 0)
(0.7792 0.0149558 0)
(0.796497 0.019509 0)
(0.814406 0.0241263 0)
(0.832814 0.0288496 0)
(0.851601 0.0336725 0)
(0.870641 0.0385797 0)
(0.889821 0.0435606 0)
(0.909035 0.0486048 0)
(0.928178 0.0537 0)
(0.947152 0.0588324 0)
(0.965858 0.0639861 0)
(0.984193 0.0691429 0)
(1.00204 0.0742817 0)
(1.01928 0.0793722 0)
(1.03576 0.0843539 0)
(1.05135 0.0891521 0)
(1.06604 0.0938769 0)
(1.07459 0.0977148 0)
(1.07519 0.0999857 0)
(1.07741 0.102029 0)
(1.07952 0.103847 0)
(1.08036 0.107034 0)
(1.082 0.107656 0)
(1.08285 0.11029 0)
(1.08525 0.112881 0)
(1.08818 0.113408 0)
(0.710496 0.00368075 4.06665e-026)
(0.724697 0.00629402 0)
(0.739847 0.0111674 0)
(0.755852 0.0160842 0)
(0.772609 0.0209687 0)
(0.790005 0.0259195 0)
(0.807927 0.0309778 0)
(0.826265 0.0361377 0)
(0.8449 0.0413843 0)
(0.863722 0.0467056 0)
(0.882636 0.0520929 0)
(0.901545 0.0575338 0)
(0.920358 0.0630153 0)
(0.938985 0.0685223 0)
(0.957338 0.074038 0)
(0.975323 0.079543 0)
(0.992839 0.0850147 0)
(1.00978 0.09042 0)
(1.02602 0.0956987 0)
(1.04153 0.100799 0)
(1.05609 0.105748 0)
(1.06426 0.109808 0)
(1.06506 0.112332 0)
(1.0675 0.114347 0)
(1.06909 0.116591 0)
(1.07117 0.119887 0)
(1.07405 0.120858 0)
(1.07451 0.123323 0)
(1.077 0.126332 0)
(0.688491 0.00388718 1.31966e-027)
(0.702123 0.00679299 0)
(0.716711 0.0120115 0)
(0.732169 0.0172798 0)
(0.748396 0.022517 0)
(0.765287 0.0278242 0)
(0.782733 0.0332419 0)
(0.800631 0.0387647 0)
(0.818879 0.0443794 0)
(0.837366 0.0500732 0)
(0.855992 0.0558346 0)
(0.874672 0.0616538 0)
(0.893319 0.0675177 0)
(0.911854 0.0734125 0)
(0.930197 0.0793225 0)
(0.948269 0.0852304 0)
(0.965986 0.0911169 0)
(0.983261 0.0969595 0)
(1.00001 0.102726 0)
(1.01615 0.108362 0)
(1.0317 0.113803 0)
(1.04633 0.119205 0)
(1.05398 0.12339 0)
(1.05571 0.125994 0)
(1.05809 0.128689 0)
(1.05989 0.130507 0)
(1.06267 0.133988 0)
(1.06663 0.135677 0)
(1.06697 0.137425 0)
(0.666148 0.0041168 -4.69191e-026)
(0.679218 0.00731105 0)
(0.693254 0.0128961 0)
(0.708173 0.0185354 0)
(0.723881 0.0241444 0)
(0.740278 0.0298271 0)
(0.75726 0.0356259 0)
(0.774725 0.0415334 0)
(0.792575 0.0475368 0)
(0.810712 0.053625 0)
(0.829042 0.0597863 0)
(0.847479 0.0660099 0)
(0.865944 0.0722833 0)
(0.88436 0.0785931 0)
(0.902654 0.0849247 0)
(0.920756 0.0912622 0)
(0.938595 0.097588 0)
(0.956096 0.103883 0)
(0.973184 0.110125 0)
(0.989789 0.116283 0)
(1.00587 0.122289 0)
(1.02153 0.128158 0)
(1.03632 0.13392 0)
(1.04361 0.137938 0)
(1.04631 0.141122 0)
(1.0497 0.143392 0)
(1.05055 0.145626 0)
(1.05436 0.14861 0)
(1.05845 0.151523 0)
(0.643515 0.00436606 0)
(0.656031 0.0078453 0)
(0.66952 0.013815 0)
(0.683905 0.0198421 0)
(0.699097 0.0258388 0)
(0.715002 0.0319134 0)
(0.731521 0.0381099 0)
(0.748556 0.0444201 0)
(0.766015 0.0508306 0)
(0.783808 0.057331 0)
(0.801842 0.0639094 0)
(0.820033 0.0705537 0)
(0.838306 0.0772524 0)
(0.856588 0.0839918 0)
(0.874812 0.0907575 0)
(0.892911 0.0975341 0)
(0.910823 0.104305 0)
(0.928483 0.111051 0)
(0.945827 0.117754 0)
(0.96279 0.12439 0)
(0.979323 0.130925 0)
(0.995433 0.137301 0)
(1.01137 0.143588 0)
(1.02678 0.149607 0)
(1.03363 0.153795 0)
(1.03716 0.157152 0)
(1.04126 0.159931 0)
(1.04235 0.162149 0)
(1.04635 0.1657 0)
(0.620644 0.00463523 -5.72476e-026)
(0.63261 0.00839779 0)
(0.645558 0.0147705 0)
(0.659416 0.0212024 0)
(0.674099 0.0276029 0)
(0.689519 0.0340857 0)
(0.705582 0.0406965 0)
(0.722195 0.0474272 0)
(0.739266 0.0542626 0)
(0.756709 0.0611915 0)
(0.77444 0.0682034 0)
(0.792377 0.0752862 0)
(0.81045 0.0824275 0)
(0.828588 0.0896135 0)
(0.846727 0.0968302 0)
(0.864807 0.104063 0)
(0.882767 0.111294 0)
(0.900551 0.118508 0)
(0.918102 0.125685 0)
(0.935365 0.132806 0)
(0.95229 0.13985 0)
(0.968852 0.146788 0)
(0.985098 0.153559 0)
(1.00171 0.160255 0)
(1.01743 0.166878 0)
(1.02442 0.170993 0)
(1.02837 0.17449 0)
(1.03252 0.177894 0)
(1.03468 0.179715 5.41468e-026)
(0.597582 0.00492106 -1.6058e-027)
(0.609003 0.00896691 0)
(0.621416 0.0157597 0)
(0.634751 0.022612 0)
(0.648929 0.0294313 0)
(0.663866 0.0363379 0)
(0.679474 0.0433792 0)
(0.695664 0.0505465 0)
(0.712349 0.0578239 0)
(0.729448 0.0652007 0)
(0.746882 0.0726658 0)
(0.76457 0.0802059 0)
(0.782442 0.0878076 0)
(0.80043 0.0954576 0)
(0.818475 0.103141 0)
(0.836517 0.110843 0)
(0.854502 0.118548 0)
(0.872377 0.126239 0)
(0.890091 0.133898 0)
(0.907594 0.141506 0)
(0.924841 0.149044 0)
(0.941798 0.156492 0)
(0.958466 0.163833 0)
(0.974938 0.17096 0)
(0.991814 0.178201 0)
(1.00899 0.185206 0)
(1.01535 0.189404 0)
(1.0196 0.193124 0)
(1.02428 0.196301 1.06117e-027)
(0.574378 0.00522553 6.59058e-026)
(0.58526 0.00955748 0)
(0.597142 0.0167899 0)
(0.60996 0.0240807 0)
(0.623637 0.0313365 0)
(0.638096 0.0386846 0)
(0.653253 0.0461743 0)
(0.669025 0.0537963 0)
(0.685329 0.0615343 0)
(0.702083 0.0693756 0)
(0.719213 0.0773091 0)
(0.736646 0.0853218 0)
(0.754312 0.0933999 0)
(0.772149 0.10153 0)
(0.790096 0.109697 0)
(0.808098 0.117884 0)
(0.8261 0.126075 0)
(0.844053 0.134254 0)
(0.861909 0.142404 0)
(0.879622 0.150504 0)
(0.89715 0.158537 0)
(0.914456 0.166484 0)
(0.93152 0.174331 0)
(0.948352 0.182061 0)
(0.964919 0.189582 0)
(0.982596 0.197258 0)
(1.00051 0.204903 0)
(1.00741 0.209115 0)
(1.01188 0.212913 -6.18885e-026)
(0.551068 0.00554657 0)
(0.561417 0.0101692 0)
(0.572774 0.0178604 0)
(0.585079 0.0256074 0)
(0.598261 0.0333168 0)
(0.612246 0.041124 0)
(0.626957 0.0490801 0)
(0.642315 0.0571753 0)
(0.65824 0.0653925 0)
(0.674656 0.0737182 0)
(0.69149 0.0821404 0)
(0.708673 0.0906464 0)
(0.726137 0.0992215 0)
(0.74382 0.10785 0)
(0.761666 0.116517 0)
(0.779621 0.125206 0)
(0.797633 0.133901 0)
(0.815655 0.142584 0)
(0.83364 0.151237 0)
(0.851545 0.159843 0)
(0.869328 0.168382 0)
(0.886953 0.176836 0)
(0.90439 0.185188 0)
(0.921621 0.193429 0)
(0.938632 0.201538 0)
(0.955489 0.209432 0)
(0.973834 0.217624 0)
(0.992599 0.225661 0)
(1.00054 0.230098 0)
(0.527696 0.00588406 0)
(0.537516 0.0108039 0)
(0.548354 0.0189741 0)
(0.560151 0.0271959 0)
(0.572842 0.0353772 0)
(0.586358 0.0436624 0)
(0.600626 0.0521047 0)
(0.615571 0.0606932 0)
(0.631119 0.0694103 0)
(0.647197 0.0782419 0)
(0.663737 0.0871757 0)
(0.680671 0.0961979 0)
(0.697936 0.105292 0)
(0.715471 0.114442 0)
(0.73322 0.123632 0)
(0.751131 0.132843 0)
(0.769154 0.14206 0)
(0.787242 0.151262 0)
(0.805351 0.160433 0)
(0.823437 0.169554 0)
(0.841462 0.178605 0)
(0.859387 0.187568 0)
(0.877178 0.196424 0)
(0.894811 0.205158 0)
(0.912263 0.213756 0)
(0.929544 0.222197 0)
(0.946789 0.230429 0)
(0.965839 0.239105 0)
(0.985617 0.247444 7.26213e-026)
(0.504294 0.00623815 0)
(0.513593 0.0114639 0)
(0.523918 0.0201344 0)
(0.535212 0.028851 0)
(0.547415 0.0375244 0)
(0.560465 0.0463085 0)
(0.574292 0.0552588 0)
(0.588828 0.0643634 0)
(0.604002 0.0736034 0)
(0.619746 0.0829644 0)
(0.635992 0.0924322 0)
(0.65268 0.101992 0)
(0.669746 0.111628 0)
(0.687134 0.121321 0)
(0.70479 0.131056 0)
(0.722662 0.140812 0)
(0.740702 0.150571 0)
(0.758863 0.160314 0)
(0.777101 0.170021 0)
(0.795374 0.179672 0)
(0.813643 0.189246 0)
(0.831869 0.198725 0)
(0.850018 0.208088 0)
(0.868059 0.217316 0)
(0.885969 0.226393 0)
(0.903736 0.235304 0)
(0.921399 0.244028 0)
(0.939017 0.252584 0)
(0.959904 0.261734 9.20982e-028)
(0.480898 0.00660716 0)
(0.489682 0.0121482 0)
(0.499498 0.0213399 0)
(0.510294 0.0305702 0)
(0.522013 0.0397545 0)
(0.534599 0.0490576 0)
(0.547988 0.0585366 0)
(0.562116 0.0681788 0)
(0.576918 0.0779645 0)
(0.59233 0.0878786 0)
(0.608288 0.0979058 0)
(0.624732 0.10803 0)
(0.641606 0.118234 0)
(0.658852 0.1285 0)
(0.676418 0.138807 0)
(0.694256 0.149135 0)
(0.712317 0.159463 0)
(0.730558 0.169771 0)
(0.748935 0.180037 0)
(0.767405 0.190239 0)
(0.785929 0.200356 0)
(0.804469 0.210365 0)
(0.822988 0.220246 0)
(0.841454 0.229978 0)
(0.859837 0.239542 0)
(0.878118 0.248922 0)
(0.896293 0.258105 0)
(0.914377 0.26705 0)
(0.933157 0.27594 -1.64005e-025)
(0.457544 0.00698974 0)
(0.465821 0.0128564 0)
(0.475135 0.0225894 0)
(0.485436 0.0323514 0)
(0.496674 0.0420655 0)
(0.508797 0.0519073 0)
(0.521748 0.0619364 0)
(0.535467 0.0721389 0)
(0.549896 0.0824944 0)
(0.564973 0.0929871 0)
(0.58064 0.103601 0)
(0.596841 0.11432 0)
(0.613522 0.125125 0)
(0.630629 0.135995 0)
(0.648112 0.146906 0)
(0.665924 0.157838 0)
(0.684018 0.168768 0)
(0.70235 0.179672 0)
(0.720878 0.190525 0)
(0.739561 0.201305 0)
(0.758358 0.211986 0)
(0.77723 0.222545 0)
(0.79614 0.232959 0)
(0.815053 0.243203 0)
(0.833934 0.253256 0)
(0.852757 0.263098 0)
(0.871504 0.272713 0)
(0.890173 0.282095 0)
(0.908891 0.291125 -6.32695e-028)
(0.43427 0.00738425 0)
(0.442047 0.0135876 0)
(0.450865 0.0238809 0)
(0.460675 0.0341921 0)
(0.471433 0.044454 0)
(0.483093 0.0548547 0)
(0.495604 0.0654557 0)
(0.508912 0.076242 0)
(0.522963 0.0871929 0)
(0.537701 0.0982917 0)
(0.553073 0.109522 0)
(0.569026 0.120865 0)
(0.585512 0.132301 0)
(0.60248 0.143806 0)
(0.619882 0.155356 0)
(0.637673 0.166928 0)
(0.655808 0.178496 0)
(0.674245 0.190032 0)
(0.692942 0.20151 0)
(0.711856 0.212903 0)
(0.73095 0.224182 0)
(0.750182 0.23532 0)
(0.769514 0.246291 0)
(0.788908 0.257067 0)
(0.808328 0.267624 0)
(0.827741 0.277936 0)
(0.847119 0.287985 0)
(0.866443 0.297758 0)
(0.885732 0.307213 9.21169e-026)
(0.411116 0.00778777 0)
(0.418403 0.0143389 0)
(0.42673 0.0252093 0)
(0.436052 0.0360843 0)
(0.446329 0.0469098 0)
(0.457523 0.0578871 0)
(0.46959 0.0690794 0)
(0.482481 0.080471 0)
(0.496147 0.0920408 0)
(0.510541 0.103772 0)
(0.525612 0.115647 0)
(0.541313 0.127645 0)
(0.557599 0.139744 0)
(0.574424 0.151921 0)
(0.591743 0.16415 0)
(0.609513 0.176403 0)
(0.627694 0.18865 0)
(0.646243 0.200863 0)
(0.665121 0.21301 0)
(0.684288 0.225059 0)
(0.703702 0.236979 0)
(0.723325 0.248738 0)
(0.743115 0.260304 0)
(0.763034 0.271645 0)
(0.783041 0.282734 0)
(0.803098 0.29354 0)
(0.823171 0.30404 0)
(0.843228 0.314212 0)
(0.863255 0.324041 9.77758e-026)
(0.388125 0.00819697 0)
(0.394932 0.0151068 0)
(0.402775 0.0265683 0)
(0.411611 0.0380186 0)
(0.421407 0.0494209 0)
(0.432131 0.0609898 0)
(0.443746 0.0727906 0)
(0.456211 0.084807 0)
(0.469483 0.0970177 0)
(0.48352 0.109406 0)
(0.498278 0.121953 0)
(0.513715 0.134639 0)
(0.529789 0.14744 0)
(0.546462 0.160331 0)
(0.563691 0.173281 0)
(0.581438 0.186261 0)
(0.599664 0.199237 0)
(0.618332 0.212176 0)
(0.637402 0.225042 0)
(0.656837 0.2378 0)
(0.676596 0.250411 0)
(0.696639 0.26284 0)
(0.716926 0.275048 0)
(0.737413 0.286999 0)
(0.758059 0.298658 0)
(0.77882 0.309991 0)
(0.799654 0.320967 0)
(0.820521 0.331561 0)
(0.841388 0.341749 -1.03121e-025)
(0.365346 0.00860832 0)
(0.371683 0.0158873 0)
(0.379048 0.0279509 0)
(0.3874 0.0399851 0)
(0.396712 0.0519747 0)
(0.40696 0.0641486 0)
(0.418115 0.0765737 0)
(0.430142 0.0892333 0)
(0.443006 0.102107 0)
(0.456669 0.115177 0)
(0.471095 0.128426 0)
(0.486249 0.141833 0)
(0.502094 0.155373 0)
(0.518598 0.169016 0)
(0.535724 0.182732 0)
(0.553439 0.196486 0)
(0.571707 0.210243 0)
(0.590493 0.223963 0)
(0.609763 0.237607 0)
(0.629478 0.251132 0)
(0.649603 0.264495 0)
(0.670096 0.277653 0)
(0.690915 0.290561 0)
(0.712018 0.303175 0)
(0.733358 0.315453 0)
(0.754886 0.327354 0)
(0.776554 0.338841 0)
(0.798313 0.34988 0)
(0.820116 0.360443 1.08345e-025)
(0.342828 0.00901796 0)
(0.348706 0.0166758 0)
(0.3556 0.0293488 0)
(0.363468 0.0419722 0)
(0.372293 0.0545567 0)
(0.382057 0.067346 0)
(0.392739 0.0804084 0)
(0.404313 0.0937273 0)
(0.41675 0.107283 0)
(0.43002 0.121059 0)
(0.444094 0.135038 0)
(0.458943 0.149197 0)
(0.474537 0.163509 0)
(0.490851 0.177945 0)
(0.507855 0.192471 0)
(0.525518 0.207049 0)
(0.543813 0.221642 0)
(0.56271 0.236205 0)
(0.582177 0.250691 0)
(0.602181 0.265052 0)
(0.622686 0.279237 0)
(0.643655 0.293194 0)
(0.665044 0.30687 0)
(0.68681 0.320212 0)
(0.708902 0.333169 0)
(0.731267 0.34569 0)
(0.75385 0.35773 0)
(0.776591 0.369246 0)
(0.799432 0.380203 -2.27921e-025)
(0.320622 0.00942205 0)
(0.326053 0.0174662 0)
(0.332483 0.0307528 0)
(0.339867 0.0439666 0)
(0.348198 0.0571503 0)
(0.357469 0.0705624 0)
(0.367666 0.0842719 0)
(0.378769 0.0982628 0)
(0.390758 0.112516 0)
(0.403611 0.127018 0)
(0.417306 0.14175 0)
(0.431823 0.156691 0)
(0.447139 0.171811 0)
(0.463235 0.187082 0)
(0.480088 0.202467 0)
(0.497675 0.217928 0)
(0.515975 0.233417 0)
(0.534964 0.248888 0)
(0.554619 0.264288 0)
(0.57491 0.27956 0)
(0.595805 0.294645 0)
(0.61727 0.309481 0)
(0.639263 0.324005 0)
(0.661739 0.338152 0)
(0.684645 0.351859 0)
(0.707923 0.365064 0)
(0.731508 0.37771 0)
(0.755333 0.389743 0)
(0.779325 0.401117 1.09165e-027)
(0.298784 0.00981727 0)
(0.303778 0.0182519 0)
(0.309748 0.0321525 0)
(0.316648 0.0459544 0)
(0.32448 0.0597384 0)
(0.333247 0.0737773 0)
(0.342942 0.088141 0)
(0.353554 0.102814 0)
(0.365072 0.11778 0)
(0.377481 0.133025 0)
(0.390768 0.148534 0)
(0.404918 0.164284 0)
(0.419919 0.180249 0)
(0.435759 0.196398 0)
(0.452425 0.212693 0)
(0.469903 0.229089 0)
(0.488178 0.245539 0)
(0.507236 0.261988 0)
(0.52706 0.278379 0)
(0.547628 0.294646 0)
(0.568916 0.310721 0)
(0.590892 0.32653 0)
(0.613518 0.341995 0)
(0.636749 0.357039 0)
(0.660532 0.371583 0)
(0.684803 0.385549 0)
(0.709488 0.398864 0)
(0.734508 0.411462 0)
(0.759776 0.423284 1.52569e-027)
(0.277369 0.0102012 0)
(0.281934 0.0190246 0)
(0.287448 0.0335361 0)
(0.293863 0.0479199 0)
(0.301188 0.0623012 0)
(0.309438 0.0769675 0)
(0.318615 0.0919885 0)
(0.328717 0.10735 0)
(0.339738 0.123038 0)
(0.351672 0.139042 0)
(0.364516 0.155348 0)
(0.378263 0.171935 0)
(0.392908 0.188777 0)
(0.408449 0.205841 0)
(0.424884 0.22309 0)
(0.442209 0.240478 0)
(0.46042 0.257953 0)
(0.47951 0.275458 0)
(0.499472 0.292926 0)
(0.520297 0.310285 0)
(0.541967 0.327453 0)
(0.564459 0.344344 0)
(0.587742 0.360864 0)
(0.611773 0.376917 0)
(0.636497 0.392404 0)
(0.661846 0.407227 0)
(0.687738 0.421293 0)
(0.714079 0.434517 0)
(0.740764 0.446823 1.30595e-025)
(0.256433 0.010573 0)
(0.260574 0.0197747 0)
(0.265635 0.0348906 0)
(0.271561 0.0498448 0)
(0.278373 0.0648153 0)
(0.286095 0.0801038 0)
(0.294737 0.0957791 0)
(0.304305 0.111829 0)
(0.314802 0.128242 0)
(0.32623 0.145013 0)
(0.338594 0.162128 0)
(0.351896 0.17957 0)
(0.366142 0.197314 0)
(0.381337 0.215327 0)
(0.397491 0.233574 0)
(0.41461 0.252009 0)
(0.4327 0.270579 0)
(0.451769 0.289221 0)
(0.471825 0.307862 0)
(0.492869 0.326421 0)
(0.514899 0.344803 0)
(0.537901 0.362906 0)
(0.561855 0.380618 0)
(0.586724 0.397819 0)
(0.612455 0.414384 0)
(0.638975 0.430189 0)
(0.666194 0.445112 0)
(0.694 0.459041 0)
(0.722264 0.471879 -1.33e-025)
(0.236034 0.0109335 0)
(0.239752 0.0204909 0)
(0.244362 0.0362006 0)
(0.249797 0.051707 0)
(0.256089 0.0672509 0)
(0.263271 0.0831476 0)
(0.271362 0.0994649 0)
(0.280375 0.116192 0)
(0.290321 0.133324 0)
(0.301211 0.150858 0)
(0.313056 0.168783 0)
(0.325869 0.187087 0)
(0.339664 0.205747 0)
(0.354456 0.224735 0)
(0.370265 0.244018 0)
(0.387113 0.263553 0)
(0.405017 0.283282 0)
(0.424001 0.303141 0)
(0.444088 0.323054 0)
(0.465297 0.34293 0)
(0.487644 0.362664 0)
(0.511133 0.382134 0)
(0.535758 0.401206 0)
(0.561494 0.41973 0)
(0.588294 0.43755 0)
(0.616086 0.454502 0)
(0.644767 0.470427 0)
(0.674205 0.485176 0)
(0.704243 0.498617 1.40156e-025)
(0.216227 0.0112858 0)
(0.219519 0.0211608 0)
(0.223681 0.0374483 0)
(0.228626 0.0534788 0)
(0.234393 0.0695687 0)
(0.241027 0.0860472 0)
(0.248553 0.10298 0)
(0.256992 0.12036 0)
(0.266361 0.138187 0)
(0.27668 0.156462 0)
(0.287968 0.175182 0)
(0.300246 0.194337 0)
(0.313535 0.213911 0)
(0.327862 0.233881 0)
(0.343256 0.254218 0)
(0.359753 0.274881 0)
(0.377389 0.29582 0)
(0.396203 0.31697 0)
(0.416236 0.338253 0)
(0.437532 0.359572 0)
(0.460128 0.380809 0)
(0.484055 0.401824 0)
(0.509328 0.422457 0)
(0.535943 0.442525 0)
(0.563868 0.461827 0)
(0.593032 0.48015 0)
(0.623327 0.497282 0)
(0.654595 0.513018 0)
(0.686641 0.527176 0)
(0.197067 0.0116338 0)
(0.199931 0.0217708 0)
(0.203651 0.0386116 0)
(0.208109 0.0551239 0)
(0.213353 0.0717164 0)
(0.219434 0.0887323 0)
(0.226386 0.106235 0)
(0.234234 0.12422 0)
(0.243005 0.142695 0)
(0.252725 0.161666 0)
(0.263419 0.181137 0)
(0.275114 0.201104 0)
(0.287842 0.221559 0)
(0.301637 0.242488 0)
(0.316539 0.263868 0)
(0.332598 0.285668 0)
(0.349866 0.307846 0)
(0.3684 0.330342 0)
(0.388268 0.35308 0)
(0.409539 0.375959 0)
(0.432283 0.398854 0)
(0.456563 0.421607 0)
(0.482428 0.44403 0)
(0.509905 0.465902 0)
(0.538987 0.486969 0)
(0.569619 0.506956 0)
(0.601687 0.525574 0)
(0.635013 0.542539 0)
(0.66935 0.557595 1.42767e-025)
(0.178604 0.01198 0)
(0.181044 0.022306 0)
(0.184337 0.0396629 0)
(0.18832 0.0565953 0)
(0.193046 0.0736265 0)
(0.198577 0.0911126 0)
(0.20495 0.109114 0)
(0.212199 0.127631 0)
(0.220356 0.146677 0)
(0.229451 0.166267 0)
(0.239517 0.186412 0)
(0.250587 0.207118 0)
(0.262697 0.228387 0)
(0.275889 0.250216 0)
(0.290215 0.272594 0)
(0.305734 0.295505 0)
(0.322518 0.318918 0)
(0.340646 0.342784 0)
(0.36021 0.367033 0)
(0.381314 0.391568 0)
(0.404066 0.41626 0)
(0.428571 0.440939 0)
(0.454925 0.465393 0)
(0.483203 0.489357 0)
(0.513438 0.512521 0)
(0.545608 0.534527 0)
(0.579609 0.554988 0)
(0.615242 0.57351 0)
(0.652203 0.589725 -5.63523e-027)
(0.160887 0.012321 0)
(0.16292 0.0227499 0)
(0.165812 0.0405669 0)
(0.169337 0.057835 0)
(0.173561 0.0752174 0)
(0.17855 0.0930814 0)
(0.18435 0.111482 0)
(0.190998 0.130427 0)
(0.198532 0.149938 0)
(0.206987 0.170037 0)
(0.216397 0.190746 0)
(0.226801 0.212083 0)
(0.238238 0.234062 0)
(0.250757 0.256696 0)
(0.264416 0.279992 0)
(0.279288 0.303947 0)
(0.295459 0.328552 0)
(0.313034 0.353773 0)
(0.332134 0.37955 0)
(0.352898 0.405799 0)
(0.375478 0.432394 0)
(0.400033 0.459163 0)
(0.426719 0.485873 0)
(0.455678 0.512224 0)
(0.487009 0.537839 0)