/*--------------------------------*- C++ -*----------------------------------*\
| =========                 |                                                 |
| \\      /  F ield         | OpenFOAM: The Open Source CFD Toolbox           |
|  \\    /   O peration     | Version:  5.x                                   |
|   \\  /    A nd           | Web:      www.OpenFOAM.org                      |
|    \\/     M anipulation  |                                                 |
\*---------------------------------------------------------------------------*/
/*   Windows 32 and 64 bit porting by blueCAPE: http://www.bluecape.com.pt   *\
|  Based on Windows porting (2.0.x v4) by Symscape: http://www.symscape.com   |
\*---------------------------------------------------------------------------*/
FoamFile
{
    version     2.0;
    format      ascii;
    class       volScalarField;
    location    "80";
    object      epsilon;
}
// * * * * * * * * * * * * * * * * * * * * * * * * * * * * * * * * * * * * * //

dimensions      [0 2 -3 0 0 0 0];

internalField   nonuniform List<scalar> 
43900
(
0.00155628
0.00151966
0.00151974
0.00151966
0.00151967
0.00151967
0.00151967
0.00151967
0.00151967
0.00151968
0.00151968
0.00151968
0.00151968
0.00151968
0.00151968
0.00151968
0.00151968
0.00151968
0.00151968
0.00151968
0.00151968
0.00151969
0.00151969
0.00151969
0.00151969
0.00151969
0.00151969
0.00151969
0.00151969
8.65304e-005
3.23065e-005
3.15573e-005
3.25877e-005
3.27973e-005
3.27966e-005
3.27876e-005
3.27953e-005
3.27963e-005
3.2799e-005
3.2801e-005
3.28026e-005
3.28039e-005
3.28051e-005
3.28062e-005
3.28071e-005
3.28079e-005
3.28085e-005
3.28092e-005
3.28097e-005
3.28103e-005
3.28108e-005
3.28113e-005
3.28118e-005
3.28123e-005
3.28127e-005
3.28132e-005
3.28136e-005
3.28138e-005
0.0349688
0.00245117
5.58859e-005
2.38987e-006
1.33561e-006
1.37112e-006
1.41129e-006
1.41224e-006
1.41288e-006
1.41326e-006
1.4136e-006
1.41391e-006
1.4142e-006
1.41445e-006
1.41468e-006
1.41489e-006
1.41509e-006
1.41527e-006
1.41543e-006
1.41559e-006
1.41573e-006
1.41586e-006
1.41598e-006
1.41609e-006
1.4162e-006
1.41629e-006
1.41639e-006
1.41648e-006
1.41655e-006
0.115964
0.0261536
0.00355036
0.000187848
4.18006e-006
2.41715e-007
1.18367e-007
1.16796e-007
1.16886e-007
1.16913e-007
1.16944e-007
1.16973e-007
1.17005e-007
1.17035e-007
1.17062e-007
1.17088e-007
1.17112e-007
1.17134e-007
1.17154e-007
1.17173e-007
1.1719e-007
1.17206e-007
1.17221e-007
1.17234e-007
1.17246e-007
1.17258e-007
1.1727e-007
1.1728e-007
1.1729e-007
0.176383
0.0674283
0.0219616
0.00469237
0.000451857
1.26948e-005
2.58569e-007
4.42249e-008
4.04436e-008
4.04059e-008
4.04081e-008
4.04155e-008
4.04247e-008
4.04333e-008
4.04408e-008
4.04476e-008
4.04532e-008
4.04604e-008
4.04632e-008
4.04674e-008
4.04708e-008
4.04795e-008
4.04787e-008
4.04789e-008
4.048e-008
4.0473e-008
4.04676e-008
4.04657e-008
4.04658e-008
0.200304
0.08898
0.0381087
0.0144764
0.00364753
0.000358838
8.17598e-006
1.5119e-007
6.56159e-008
6.48232e-008
6.4823e-008
6.48303e-008
6.48503e-008
6.48698e-008
6.48861e-008
6.49004e-008
6.49126e-008
6.49264e-008
6.4932e-008
6.49383e-008
6.49509e-008
6.498e-008
6.49586e-008
6.49585e-008
6.49607e-008
6.49227e-008
6.49195e-008
6.49196e-008
6.49205e-008
0.210065
0.0993152
0.0464132
0.0205093
0.0077085
0.00164164
9.09037e-005
1.1579e-006
2.03399e-007
1.96713e-007
1.96708e-007
1.96729e-007
1.96793e-007
1.96874e-007
1.96928e-007
1.96977e-007
1.97039e-007
1.97086e-007
1.97101e-007
1.97123e-007
1.97167e-007
1.97289e-007
1.97083e-007
1.97066e-007
1.97067e-007
1.96942e-007
1.96934e-007
1.96934e-007
1.96943e-007
0.211095
0.102245
0.0493287
0.0228933
0.00948694
0.00275489
0.000280249
5.23412e-006
6.91314e-007
6.62585e-007
6.62538e-007
6.62582e-007
6.62756e-007
6.62902e-007
6.62988e-007
6.63161e-007
6.63647e-007
6.63433e-007
6.63433e-007
6.63436e-007
6.63474e-007
6.63724e-007
6.62991e-007
6.6269e-007
6.62681e-007
6.6268e-007
6.62457e-007
6.62457e-007
6.62631e-007
0.208057
0.101583
0.0494942
0.0233687
0.0100191
0.0031985
0.000406177
1.01347e-005
1.27719e-006
1.218e-006
1.21777e-006
1.21777e-006
1.21778e-006
1.21781e-006
1.21786e-006
1.21799e-006
1.21771e-006
1.21761e-006
1.21761e-006
1.21756e-006
1.21756e-006
1.21762e-006
1.21684e-006
1.21684e-006
1.21684e-006
1.21685e-006
1.21664e-006
1.21676e-006
1.21595e-006
0.203749
0.10004
0.0490686
0.0232966
0.0100608
0.00328487
0.000441358
1.19098e-005
1.60457e-006
1.53647e-006
1.53616e-006
1.5362e-006
1.53597e-006
1.53597e-006
1.53598e-006
1.53609e-006
1.53568e-006
1.53568e-006
1.53552e-006
1.53552e-006
1.53541e-006
1.53552e-006
1.53505e-006
1.53505e-006
1.53486e-006
1.53485e-006
1.53491e-006
1.53416e-006
1.53407e-006
0.199143
0.0979035
0.0481352
0.0229655
0.00997037
0.0032721
0.000441925
1.22046e-005
1.76568e-006
1.69528e-006
1.69494e-006
1.69495e-006
1.69479e-006
1.69479e-006
1.69476e-006
1.69476e-006
1.69444e-006
1.69443e-006
1.69443e-006
1.69439e-006
1.69444e-006
1.69404e-006
1.69404e-006
1.69404e-006
1.69384e-006
1.69384e-006
1.69341e-006
1.69339e-006
1.6934e-006
0.194017
0.0953489
0.0468408
0.022329
0.00970933
0.00319797
0.000433174
1.21942e-005
1.8434e-006
1.76725e-006
1.76672e-006
1.76673e-006
1.7667e-006
1.7667e-006
1.76655e-006
1.76655e-006
1.76654e-006
1.7666e-006
1.76644e-006
1.76644e-006
1.76617e-006
1.76617e-006
1.76617e-006
1.76621e-006
1.76605e-006
1.76605e-006
1.76574e-006
1.76573e-006
1.76576e-006
0.188451
0.0925744
0.0454484
0.0216347
0.0093699
0.00305054
0.000405738
1.17381e-005
1.87932e-006
1.79761e-006
1.797e-006
1.797e-006
1.79701e-006
1.79714e-006
1.79684e-006
1.79684e-006
1.7967e-006
1.7967e-006
1.79671e-006
1.79684e-006
1.79651e-006
1.7965e-006
1.79651e-006
1.79653e-006
1.79662e-006
1.79661e-006
1.79639e-006
1.7964e-006
1.79648e-006
0.182531
0.0896287
0.0439751
0.0209082
0.00902676
0.00290384
0.000375493
1.1072e-005
1.89679e-006
1.80989e-006
1.80904e-006
1.80904e-006
1.80904e-006
1.80905e-006
1.8091e-006
1.80902e-006
1.80902e-006
1.8091e-006
1.80903e-006
1.80903e-006
1.80871e-006
1.80871e-006
1.80874e-006
1.80896e-006
1.80881e-006
1.80882e-006
1.80854e-006
1.80855e-006
1.80861e-006
0.176298
0.0865343
0.0424324
0.0201521
0.00867421
0.00275757
0.000348035
1.05703e-005
1.90888e-006
1.81471e-006
1.8137e-006
1.8137e-006
1.8137e-006
1.81371e-006
1.81374e-006
1.81386e-006
1.81369e-006
1.81369e-006
1.8137e-006
1.81377e-006
1.81364e-006
1.81364e-006
1.81348e-006
1.81348e-006
1.81349e-006
1.81364e-006
1.81352e-006
1.81367e-006
1.8133e-006
0.169733
0.0832868
0.0408203
0.019367
0.00831199
0.0026109
0.000322298
1.01858e-005
1.92056e-006
1.81708e-006
1.81598e-006
1.81599e-006
1.81586e-006
1.81586e-006
1.81579e-006
1.8158e-006
1.81552e-006
1.81553e-006
1.81554e-006
1.81574e-006
1.81569e-006
1.8157e-006
1.81557e-006
1.81557e-006
1.81553e-006
1.81553e-006
1.81554e-006
1.81517e-006
1.81517e-006
0.162819
0.0798788
0.0391359
0.0185515
0.00793931
0.00246328
0.000297945
9.89245e-006
1.93396e-006
1.81855e-006
1.81693e-006
1.81693e-006
1.81694e-006
1.81707e-006
1.81693e-006
1.81693e-006
1.81671e-006
1.81671e-006
1.81673e-006
1.81686e-006
1.81675e-006
1.81676e-006
1.81659e-006
1.81659e-006
1.8165e-006
1.8165e-006
1.81655e-006
1.81625e-006
1.81625e-006
0.155559
0.0763116
0.0373792
0.0177055
0.00755586
0.00231455
0.00027481
9.66867e-006
1.94977e-006
1.81992e-006
1.81796e-006
1.818e-006
1.8179e-006
1.8179e-006
1.8179e-006
1.8179e-006
1.81769e-006
1.81769e-006
1.81751e-006
1.81752e-006
1.81753e-006
1.81768e-006
1.81748e-006
1.8177e-006
1.81724e-006
1.81724e-006
1.81734e-006
1.81694e-006
1.81695e-006
0.147971
0.072593
0.0355542
0.0168307
0.00716232
0.00216504
0.000252873
9.50373e-006
1.96868e-006
1.82177e-006
1.81911e-006
1.81911e-006
1.81911e-006
1.81926e-006
1.81879e-006
1.81879e-006
1.81879e-006
1.81895e-006
1.81878e-006
1.81878e-006
1.81861e-006
1.81861e-006
1.81866e-006
1.81823e-006
1.81823e-006
1.81823e-006
1.81826e-006
1.81781e-006
1.81783e-006
0.140079
0.0687354
0.0336667
0.01593
0.00675994
0.00201542
0.000232171
9.39096e-006
1.99141e-006
1.82404e-006
1.82031e-006
1.8203e-006
1.82031e-006
1.8202e-006
1.82011e-006
1.82011e-006
1.82007e-006
1.82006e-006
1.82007e-006
1.82008e-006
1.82016e-006
1.81991e-006
1.81991e-006
1.81931e-006
1.81942e-006
1.81923e-006
1.81948e-006
1.81915e-006
1.81916e-006
0.131918
0.0647551
0.0317247
0.0150069
0.00635028
0.00186645
0.000212733
9.32665e-006
2.01856e-006
1.82737e-006
1.82249e-006
1.82248e-006
1.82253e-006
1.82208e-006
1.82208e-006
1.82216e-006
1.82215e-006
1.82228e-006
1.8216e-006
1.8216e-006
1.82131e-006
1.82122e-006
1.82122e-006
1.82135e-006
1.82084e-006
1.82105e-006
1.82067e-006
1.82064e-006
1.82035e-006
0.123532
0.0606731
0.0297378
0.014066
0.00593516
0.00171891
0.000194559
9.30869e-006
2.05082e-006
1.83138e-006
1.82469e-006
1.82445e-006
1.82445e-006
1.82435e-006
1.82435e-006
1.8245e-006
1.82392e-006
1.82388e-006
1.82388e-006
1.82415e-006
1.82361e-006
1.82382e-006
1.8231e-006
1.82296e-006
1.82329e-006
1.82308e-006
1.82241e-006
1.82269e-006
1.82175e-006
0.114975
0.0565146
0.0277178
0.0131124
0.00551658
0.00157364
0.000177624
9.32335e-006
2.08846e-006
1.83661e-006
1.82774e-006
1.82751e-006
1.82817e-006
1.82752e-006
1.82752e-006
1.82696e-006
1.82696e-006
1.82721e-006
1.82692e-006
1.82693e-006
1.8258e-006
1.82568e-006
1.82538e-006
1.82593e-006
1.82512e-006
1.82497e-006
1.82587e-006
1.82464e-006
1.82464e-006
0.10631
0.0523087
0.0256779
0.0121518
0.00509682
0.00143142
0.000161879
9.35328e-006
2.13299e-006
1.84348e-006
1.83196e-006
1.83195e-006
1.83108e-006
1.83106e-006
1.83108e-006
1.83121e-006
1.83061e-006
1.83075e-006
1.8301e-006
1.82985e-006
1.8304e-006
1.82919e-006
1.82998e-006
1.82917e-006
1.82793e-006
1.82891e-006
1.82807e-006
1.82789e-006
1.82785e-006
0.0976079
0.0480881
0.023633
0.0111906
0.00467815
0.00129312
0.000147252
9.40208e-006
2.18328e-006
1.85189e-006
1.83692e-006
1.83618e-006
1.8368e-006
1.83601e-006
1.83601e-006
1.83506e-006
1.83595e-006
1.83477e-006
1.83431e-006
1.8361e-006
1.83391e-006
1.83459e-006
1.83453e-006
1.83246e-006
1.83428e-006
1.83224e-006
1.83155e-006
1.83272e-006
1.83082e-006
0.0889457
0.0438877
0.0215986
0.0102355
0.00426324
0.00115931
0.000133644
9.44187e-006
2.24271e-006
1.86329e-006
1.84314e-006
1.84317e-006
1.84154e-006
1.8411e-006
1.84109e-006
1.84322e-006
1.84052e-006
1.8402e-006
1.84261e-006
1.84012e-006
1.84086e-006
1.8405e-006
1.83794e-006
1.84025e-006
1.83848e-006
1.83659e-006
1.8387e-006
1.83622e-006
1.83614e-006
0.0804038
0.0397448
0.0195916
0.00929341
0.00385435
0.00103101
0.000120965
9.49501e-006
2.30686e-006
1.87706e-006
1.85141e-006
1.84908e-006
1.8508e-006
1.84987e-006
1.8506e-006
1.8484e-006
1.8497e-006
1.85133e-006
1.84723e-006
1.84788e-006
1.84899e-006
1.845e-006
1.84729e-006
1.84548e-006
1.84324e-006
1.84651e-006
1.84315e-006
1.84272e-006
1.84345e-006
0.0720645
0.0356964
0.0176285
0.00837131
0.00345457
0.000908387
0.000109116
9.48941e-006
2.37877e-006
1.89562e-006
1.86225e-006
1.86106e-006
1.85845e-006
1.85997e-006
1.85961e-006
1.86059e-006
1.85887e-006
1.85596e-006
1.85868e-006
1.8591e-006
1.85401e-006
1.85624e-006
1.85429e-006
1.85232e-006
1.8561e-006
1.85197e-006
1.85123e-006
1.85267e-006
1.84907e-006
0.0640084
0.0317798
0.0157261
0.00747625
0.0030658
0.000792681
9.79392e-005
9.47342e-006
2.45854e-006
1.91722e-006
1.87343e-006
1.87116e-006
1.87357e-006
1.87074e-006
1.8691e-006
1.86917e-006
1.86946e-006
1.87161e-006
1.86872e-006
1.86475e-006
1.86876e-006
1.86632e-006
1.86377e-006
1.8661e-006
1.86216e-006
1.86364e-006
1.86365e-006
1.85863e-006
1.85788e-006
0.0563112
0.0280298
0.0138999
0.00661461
0.00269174
0.000683646
8.75138e-005
9.40589e-006
2.53809e-006
1.9396e-006
1.89248e-006
1.88763e-006
1.88429e-006
1.88465e-006
1.88616e-006
1.88489e-006
1.88147e-006
1.88141e-006
1.88141e-006
1.88432e-006
1.87887e-006
1.87793e-006
1.87993e-006
1.87657e-006
1.87644e-006
1.87262e-006
1.87194e-006
1.8707e-006
1.87154e-006
0.0490426
0.0244786
0.0121649
0.00579269
0.00233353
0.000582743
7.74688e-005
9.28205e-006
2.61826e-006
1.97981e-006
1.90751e-006
1.9004e-006
1.90511e-006
1.90166e-006
1.90106e-006
1.89866e-006
1.8986e-006
1.90097e-006
1.89711e-006
1.89479e-006
1.89708e-006
1.89518e-006
1.89158e-006
1.89012e-006
1.89022e-006
1.89074e-006
1.88561e-006
1.888e-006
1.88333e-006
0.0422599
0.0211536
0.0105337
0.00501613
0.00199599
0.000489378
6.82367e-005
9.08961e-006
2.71412e-006
2.00672e-006
1.93062e-006
1.92881e-006
1.92143e-006
1.9237e-006
1.91906e-006
1.92163e-006
1.92019e-006
1.91491e-006
1.91968e-006
1.91708e-006
1.91056e-006
1.91332e-006
1.91097e-006
1.91381e-006
1.90782e-006
1.90228e-006
1.90749e-006
1.90034e-006
1.89845e-006
0.0360093
0.0180773
0.00901741
0.00428957
0.00167904
0.000405408
5.9292e-005
8.81945e-006
2.77541e-006
2.04961e-006
1.96608e-006
1.94483e-006
1.94975e-006
1.94589e-006
1.94736e-006
1.94259e-006
1.93992e-006
1.94579e-006
1.93836e-006
1.93773e-006
1.94086e-006
1.93143e-006
1.93408e-006
1.9312e-006
1.9298e-006
1.93015e-006
1.92164e-006
1.92318e-006
1.92187e-006
0.0303224
0.0152657
0.00762429
0.00361724
0.00138856
0.000329459
5.11226e-005
8.47845e-006
2.85935e-006
2.10423e-006
1.98689e-006
1.97897e-006
1.97238e-006
1.97564e-006
1.9746e-006
1.97457e-006
1.97194e-006
1.96511e-006
1.96945e-006
1.96982e-006
1.9612e-006
1.96489e-006
1.95762e-006
1.95791e-006
1.9574e-006
1.94943e-006
1.9513e-006
1.94286e-006
1.94232e-006
0.0252156
0.0127286
0.00636014
0.00300229
0.00112368
0.000263911
4.34913e-005
8.06287e-006
2.92558e-006
2.13898e-006
2.03083e-006
2.01448e-006
2.00559e-006
2.00613e-006
2.00939e-006
2.00438e-006
2.00283e-006
2.00416e-006
1.99789e-006
1.99836e-006
2.00429e-006
1.99163e-006
1.9922e-006
1.98703e-006
1.98485e-006
1.98618e-006
1.97746e-006
1.97849e-006
1.96906e-006
0.0206916
0.010469
0.00522751
0.00244667
0.000889963
0.000206706
3.65866e-005
7.60768e-006
2.96142e-006
2.21234e-006
2.07587e-006
2.04115e-006
2.0513e-006
2.04659e-006
2.03932e-006
2.04794e-006
2.0488e-006
2.03523e-006
2.04428e-006
2.03667e-006
2.02913e-006
2.04056e-006
2.02853e-006
2.02453e-006
2.01832e-006
2.01846e-006
2.02145e-006
2.00693e-006
2.00787e-006
0.0167391
0.00848393
0.0042266
0.00195264
0.000685761
0.000159487
3.041e-005
7.09679e-006
3.02922e-006
2.25407e-006
2.12002e-006
2.10907e-006
2.08571e-006
2.08578e-006
2.0965e-006
2.08775e-006
2.08162e-006
2.09436e-006
2.08327e-006
2.08001e-006
2.08375e-006
2.07227e-006
2.0813e-006
2.07268e-006
2.07092e-006
2.05813e-006
2.04793e-006
2.05607e-006
2.04444e-006
0.0133355
0.00676504
0.003355
0.00151995
0.000515387
0.00012051
2.50538e-005
6.60889e-006
3.02799e-006
2.34115e-006
2.1781e-006
2.14063e-006
2.14681e-006
2.14697e-006
2.13464e-006
2.13834e-006
2.15045e-006
2.13514e-006
2.13665e-006
2.14272e-006
2.13411e-006
2.13403e-006
2.12158e-006
2.12826e-006
2.11789e-006
2.11732e-006
2.10874e-006
2.09212e-006
2.09743e-006
0.0104478
0.00529925
0.0026074
0.00115156
0.000375467
8.98805e-005
2.04882e-005
6.07532e-006
3.07783e-006
2.38507e-006
2.23353e-006
2.21625e-006
2.19781e-006
2.19157e-006
2.20331e-006
2.20034e-006
2.18941e-006
2.21176e-006
2.19793e-006
2.19392e-006
2.19382e-006
2.19239e-006
2.19932e-006
2.18166e-006
2.18442e-006
2.17245e-006
2.17538e-006
2.16904e-006
2.14334e-006
0.00803618
0.00406974
0.00197861
0.000843776
0.000267114
6.61462e-005
1.66864e-005
5.65792e-006
3.06825e-006
2.47959e-006
2.3094e-006
2.25957e-006
2.26536e-006
2.27315e-006
2.26958e-006
2.26656e-006
2.27061e-006
2.25905e-006
2.27599e-006
2.27158e-006
2.27431e-006
2.27388e-006
2.25604e-006
2.26251e-006
2.25219e-006
2.26298e-006
2.24019e-006
2.23561e-006
2.22671e-006
0.0060553
0.00305719
0.00145901
0.000599273
0.000185035
4.83758e-005
1.36642e-005
5.19561e-006
3.10054e-006
2.5197e-006
2.38655e-006
2.36508e-006
2.3256e-006
2.32411e-006
2.32624e-006
2.33562e-006
2.35139e-006
2.36232e-006
2.34566e-006
2.35757e-006
2.35235e-006
2.35311e-006
2.35775e-006
2.34742e-006
2.34238e-006
2.32285e-006
2.33845e-006
2.32262e-006
2.32049e-006
0.00445819
0.00223955
0.00104311
0.000410043
0.000126385
3.54517e-005
1.12038e-005
4.88348e-006
3.0922e-006
2.62538e-006
2.46133e-006
2.40848e-006
2.40536e-006
2.41809e-006
2.42236e-006
2.42806e-006
2.43098e-006
2.42274e-006
2.44903e-006
2.43873e-006
2.44974e-006
2.44404e-006
2.44703e-006
2.45537e-006
2.45336e-006
2.45404e-006
2.42482e-006
2.43004e-006
2.40765e-006
0.00319658
0.00159515
0.000718921
0.000273347
8.5409e-005
2.60811e-005
9.39157e-006
4.55844e-006
3.13805e-006
2.6644e-006
2.54688e-006
2.51664e-006
2.50906e-006
2.49194e-006
2.49298e-006
2.50083e-006
2.50891e-006
2.53933e-006
2.53213e-006
2.56421e-006
2.55907e-006
2.58198e-006
2.57355e-006
2.57361e-006
2.56959e-006
2.56012e-006
2.57282e-006
2.54015e-006
2.54517e-006
0.00222409
0.0011
0.000478928
0.000177381
5.79564e-005
1.95768e-005
7.94177e-006
4.34782e-006
3.13433e-006
2.78928e-006
2.61271e-006
2.57565e-006
2.5872e-006
2.59924e-006
2.59843e-006
2.59991e-006
2.60897e-006
2.62555e-006
2.68256e-006
2.6832e-006
2.70834e-006
2.67935e-006
2.71087e-006
2.703e-006
2.7151e-006
2.70565e-006
2.69936e-006
2.70534e-006
2.67558e-006
0.00149536
0.000732895
0.000308071
0.000114435
3.96672e-005
1.49613e-005
6.91563e-006
4.14065e-006
3.21253e-006
2.80979e-006
2.73433e-006
2.71306e-006
2.65832e-006
2.66293e-006
2.69418e-006
2.72656e-006
2.75502e-006
2.75832e-006
2.76601e-006
2.78324e-006
2.79725e-006
2.86294e-006
2.84621e-006
2.89255e-006
2.88675e-006
2.90299e-006
2.89451e-006
2.87389e-006
2.86947e-006
0.000967841
0.000470657
0.000193795
7.34513e-005
2.78516e-005
1.17801e-005
6.07905e-006
4.05103e-006
3.20407e-006
2.94161e-006
2.79716e-006
2.76976e-006
2.7866e-006
2.78895e-006
2.80526e-006
2.80846e-006
2.82648e-006
2.88143e-006
2.90862e-006
2.91911e-006
2.95285e-006
2.98469e-006
3.08469e-006
3.07432e-006
3.12392e-006
3.11126e-006
3.13339e-006
3.11688e-006
3.09814e-006
0.00060139
0.000292506
0.000119953
4.8096e-005
1.99177e-005
9.53105e-006
5.54705e-006
3.90691e-006
3.28448e-006
2.98192e-006
2.927e-006
2.87552e-006
2.86409e-006
2.88807e-006
2.90777e-006
2.94797e-006
2.95801e-006
2.98117e-006
3.01235e-006
3.09626e-006
3.14292e-006
3.21167e-006
3.23757e-006
3.33093e-006
3.30938e-006
3.36672e-006
3.35034e-006
3.38453e-006
3.37063e-006
0.000358832
0.000176892
7.43915e-005
3.19061e-005
1.48396e-005
7.89254e-006
5.07004e-006
3.8692e-006
3.29533e-006
3.11415e-006
2.97808e-006
2.97222e-006
2.9832e-006
3.00121e-006
3.01058e-006
3.04068e-006
3.0798e-006
3.14905e-006
3.17501e-006
3.24592e-006
3.28259e-006
3.36333e-006
3.43818e-006
3.4986e-006
3.66498e-006
3.65155e-006
3.71797e-006
3.69227e-006
3.73416e-006
0.000206601
0.000105355
4.6529e-005
2.18925e-005
1.12636e-005
6.77642e-006
4.71276e-006
3.78661e-006
3.3899e-006
3.14798e-006
3.08742e-006
3.06757e-006
3.08106e-006
3.09252e-006
3.1275e-006
3.15595e-006
3.21776e-006
3.25032e-006
3.32534e-006
3.38279e-006
3.50471e-006
3.55921e-006
3.67904e-006
3.73402e-006
3.83236e-006
4.09504e-006
4.09906e-006
4.17445e-006
4.13634e-006
0.000115876
6.248e-005
2.96926e-005
1.53989e-005
8.88472e-006
5.84666e-006
4.45875e-006
3.75776e-006
3.39126e-006
3.24347e-006
3.17123e-006
3.16645e-006
3.17148e-006
3.18828e-006
3.23281e-006
3.27519e-006
3.33579e-006
3.42424e-006
3.46609e-006
3.5537e-006
3.62344e-006
3.77922e-006
3.88088e-006
4.09793e-006
4.18534e-006
4.32943e-006
4.71821e-006
4.72771e-006
4.82588e-006
6.41819e-005
3.73258e-005
1.94394e-005
1.11565e-005
7.20285e-006
5.20731e-006
4.18277e-006
3.70528e-006
3.44718e-006
3.28225e-006
3.25414e-006
3.24682e-006
3.27732e-006
3.28579e-006
3.35142e-006
3.3698e-006
3.45694e-006
3.50452e-006
3.64992e-006
3.69818e-006
3.84566e-006
3.9322e-006
4.1389e-006
4.28735e-006
4.64044e-006
4.77705e-006
5.01311e-006
5.53515e-006
5.50585e-006
3.5631e-005
2.2685e-005
1.30769e-005
8.41178e-006
5.91637e-006
4.69636e-006
4.00311e-006
3.67007e-006
3.43374e-006
3.36609e-006
3.34146e-006
3.34814e-006
3.3495e-006
3.39039e-006
3.42842e-006
3.51746e-006
3.57248e-006
3.65852e-006
3.73473e-006
3.90415e-006
3.99362e-006
4.2043e-006
4.34056e-006
4.6436e-006
4.88634e-006
5.46895e-006
5.69516e-006
6.11229e-006
6.79411e-006
2.01695e-005
1.41551e-005
9.1527e-006
6.47134e-006
5.11112e-006
4.24572e-006
3.86806e-006
3.59489e-006
3.4373e-006
3.41266e-006
3.40242e-006
3.39408e-006
3.4154e-006
3.46548e-006
3.51156e-006
3.56555e-006
3.66973e-006
3.73559e-006
3.86785e-006
3.97449e-006
4.19973e-006
4.33301e-006
4.60138e-006
4.81885e-006
5.21294e-006
5.63041e-006
6.38541e-006
6.79122e-006
7.74636e-006
1.18277e-005
9.17033e-006
6.64355e-006
5.21254e-006
4.45212e-006
3.8759e-006
3.75097e-006
3.50936e-006
3.47971e-006
3.43312e-006
3.4364e-006
3.44954e-006
3.51269e-006
3.5537e-006
3.61961e-006
3.65638e-006
3.73903e-006
3.81583e-006
3.98029e-006
4.0938e-006
4.34166e-006
4.54633e-006
4.97749e-006
5.40832e-006
6.30467e-006
7.08463e-006
8.72468e-006
9.59208e-006
1.07922e-005
7.3448e-006
6.2566e-006
5.08021e-006
4.31323e-006
4.06882e-006
3.61364e-006
3.5942e-006
3.46934e-006
3.47832e-006
3.44694e-006
3.47317e-006
3.47875e-006
3.55339e-006
3.58418e-006
3.6918e-006
3.84185e-006
4.27441e-006
5.19622e-006
8.07296e-006
1.31133e-005
2.50241e-005
4.74416e-005
8.11259e-005
0.000150062
0.000212571
0.000339281
0.000411718
0.000504816
0.000463849
4.89377e-006
4.5372e-006
4.08349e-006
3.77819e-006
3.65677e-006
3.43247e-006
3.49733e-006
3.44844e-006
3.51548e-006
3.54939e-006
3.70605e-006
4.12789e-006
5.75394e-006
9.46042e-006
2.07428e-005
4.49055e-005
0.000110235
0.000214197
0.000457666
0.000740907
0.00131781
0.00201433
0.00304687
0.00453943
0.00601838
0.00874139
0.0104248
0.0145531
0.0145116
3.61969e-006
3.58052e-006
3.42586e-006
3.43531e-006
3.41133e-006
3.4612e-006
3.71764e-006
4.32623e-006
7.67027e-006
1.45615e-005
3.56558e-005
8.43569e-005
0.000211409
0.000401628
0.000820111
0.00138359
0.0025128
0.00385636
0.00611007
0.00867054
0.0126034
0.0172287
0.0237512
0.0321173
0.042275
0.0579646
0.0725635
0.105275
0.12211
2.92211e-006
3.07156e-006
3.36069e-006
3.95748e-006
5.86674e-006
9.82857e-006
2.98415e-005
6.54849e-005
0.000205752
0.000391212
0.000838409
0.00153679
0.00279764
0.00434561
0.00683404
0.0100161
0.0146556
0.0203104
0.028195
0.0376102
0.0507196
0.0664903
0.0885939
0.115784
0.153896
0.204423
0.272294
0.386983
0.499678
2.87126e-006
4.23819e-006
9.09075e-006
2.37663e-005
6.77434e-005
0.000157119
0.000446036
0.000840427
0.00192805
0.00310651
0.00546429
0.00849961
0.0130104
0.0184647
0.0262188
0.0358778
0.048876
0.0646569
0.0857617
0.110988
0.145611
0.186924
0.245983
0.316218
0.423481
0.552537
0.7715
1.04731
1.46889
0.00151969
0.00151969
0.00151969
0.00151969
0.00151969
0.00151969
0.00151969
0.00151969
0.00151969
0.00151969
0.00151969
0.00151969
0.00151969
0.00151969
0.00151969
0.00151969
0.00151969
0.00151969
0.00151969
0.00151969
0.00151969
0.00151969
0.0015197
0.0015197
0.0015197
0.0015197
0.0015197
0.0015197
0.0015197
0.0015197
0.0015197
0.0015197
0.0015197
0.0015197
0.0015197
0.0015197
0.0015197
0.0015197
0.0015197
0.0015197
0.0015197
0.0015197
0.0015197
0.0015197
0.0015197
0.0015197
0.0015197
0.0015197
0.0015197
0.0015197
0.0015197
0.0015197
0.0015197
0.0015197
0.0015197
0.0015197
0.0015197
0.0015197
0.00151971
0.00151971
0.00151971
0.00151971
0.00151971
0.00151971
0.00151971
0.00151971
0.00151971
0.00151971
0.00151971
0.00151971
0.00151971
0.00151971
0.00151971
0.00151971
0.00151971
0.00151971
0.00151971
0.00151971
0.00151971
0.00151971
0.00151971
0.00151971
0.00151971
0.00151971
0.00151971
0.00151971
0.00151971
0.00151971
0.00151971
0.00151971
0.00151971
0.00151971
0.00151971
0.00151971
0.00151971
0.00151971
0.00151971
0.00151971
0.00151971
0.00151971
0.00151971
0.00151971
0.00151971
0.00151971
0.00151971
0.00151971
0.00151971
0.00151971
0.00151971
0.00151971
0.0015197
0.0015197
0.0015197
0.0015197
0.0015197
0.0015197
0.0015197
0.0015197
0.0015197
0.0015197
0.0015197
0.0015197
0.00151971
0.00151971
0.00151971
0.00151971
0.00151971
0.00151971
0.00151971
0.00151971
0.00151971
0.00151971
0.00151971
0.00151971
0.00151971
0.00151971
0.00151971
0.00151976
0.001542
3.28143e-005
3.2815e-005
3.28155e-005
3.2816e-005
3.28165e-005
3.28169e-005
3.28173e-005
3.28178e-005
3.28182e-005
3.28186e-005
3.2819e-005
3.28194e-005
3.28198e-005
3.28202e-005
3.28205e-005
3.28209e-005
3.28213e-005
3.28216e-005
3.2822e-005
3.28224e-005
3.28227e-005
3.28231e-005
3.28234e-005
3.28238e-005
3.28242e-005
3.28245e-005
3.28249e-005
3.28252e-005
3.28256e-005
3.28259e-005
3.28263e-005
3.28266e-005
3.2827e-005
3.28273e-005
3.28277e-005
3.2828e-005
3.28284e-005
3.28287e-005
3.28291e-005
3.28294e-005
3.28298e-005
3.28301e-005
3.28305e-005
3.28308e-005
3.28312e-005
3.28315e-005
3.28318e-005
3.28322e-005
3.28325e-005
3.28328e-005
3.28332e-005
3.28335e-005
3.28338e-005
3.28341e-005
3.28345e-005
3.28348e-005
3.28351e-005
3.28354e-005
3.28357e-005
3.28359e-005
3.28362e-005
3.28364e-005
3.28366e-005
3.28369e-005
3.28371e-005
3.28373e-005
3.28375e-005
3.28377e-005
3.28379e-005
3.28381e-005
3.28383e-005
3.28385e-005
3.28386e-005
3.28388e-005
3.2839e-005
3.28391e-005
3.28392e-005
3.28393e-005
3.28395e-005
3.28396e-005
3.28397e-005
3.28397e-005
3.28398e-005
3.28399e-005
3.28399e-005
3.284e-005
3.284e-005
3.28401e-005
3.28401e-005
3.28401e-005
3.28401e-005
3.284e-005
3.284e-005
3.284e-005
3.28399e-005
3.28398e-005
3.28397e-005
3.28396e-005
3.28395e-005
3.28394e-005
3.28392e-005
3.2839e-005
3.28389e-005
3.28386e-005
3.28384e-005
3.28381e-005
3.28379e-005
3.28376e-005
3.28372e-005
3.28369e-005
3.28366e-005
3.28363e-005
3.2836e-005
3.28357e-005
3.28355e-005
3.28354e-005
3.28353e-005
3.28353e-005
3.28353e-005
3.28356e-005
3.28359e-005
3.28364e-005
3.2837e-005
3.28377e-005
3.28384e-005
3.2839e-005
3.28396e-005
3.284e-005
3.28404e-005
3.28408e-005
3.28411e-005
3.28419e-005
3.28423e-005
3.28438e-005
3.28439e-005
3.2846e-005
3.28585e-005
3.23631e-005
3.37463e-005
1.41665e-006
1.41676e-006
1.41686e-006
1.41694e-006
1.41703e-006
1.41711e-006
1.41719e-006
1.41727e-006
1.41734e-006
1.41741e-006
1.41748e-006
1.41755e-006
1.41761e-006
1.41768e-006
1.41774e-006
1.4178e-006
1.41787e-006
1.41793e-006
1.41799e-006
1.41805e-006
1.41811e-006
1.41817e-006
1.41823e-006
1.41829e-006
1.41835e-006
1.41841e-006
1.41847e-006
1.41853e-006
1.41859e-006
1.41865e-006
1.41871e-006
1.41877e-006
1.41883e-006
1.41889e-006
1.41895e-006
1.41901e-006
1.41907e-006
1.41913e-006
1.41919e-006
1.41925e-006
1.41931e-006
1.41937e-006
1.41943e-006
1.41949e-006
1.41954e-006
1.4196e-006
1.41966e-006
1.41972e-006
1.41978e-006
1.41983e-006
1.41989e-006
1.41995e-006
1.42e-006
1.42006e-006
1.42011e-006
1.42016e-006
1.42021e-006
1.42027e-006
1.42032e-006
1.42037e-006
1.42042e-006
1.42047e-006
1.42052e-006
1.42057e-006
1.42062e-006
1.42067e-006
1.42072e-006
1.42077e-006
1.42081e-006
1.42086e-006
1.42091e-006
1.42095e-006
1.421e-006
1.42104e-006
1.42108e-006
1.42112e-006
1.42117e-006
1.42121e-006
1.42124e-006
1.42128e-006
1.42132e-006
1.42136e-006
1.42139e-006
1.42143e-006
1.42146e-006
1.4215e-006
1.42153e-006
1.42156e-006
1.42159e-006
1.42162e-006
1.42165e-006
1.42168e-006
1.4217e-006
1.42173e-006
1.42175e-006
1.42177e-006
1.42179e-006
1.42181e-006
1.42183e-006
1.42185e-006
1.42186e-006
1.42187e-006
1.42188e-006
1.42189e-006
1.4219e-006
1.42191e-006
1.42192e-006
1.42192e-006
1.42193e-006
1.42193e-006
1.42192e-006
1.42192e-006
1.4219e-006
1.42189e-006
1.42187e-006
1.42185e-006
1.42183e-006
1.4218e-006
1.42178e-006
1.42176e-006
1.42175e-006
1.42173e-006
1.42171e-006
1.42169e-006
1.42166e-006
1.42163e-006
1.42159e-006
1.42156e-006
1.42148e-006
1.42145e-006
1.42133e-006
1.42132e-006
1.42121e-006
1.42117e-006
1.42119e-006
1.41908e-006
1.33696e-006
3.36295e-006
0.000354373
1.17299e-007
1.17309e-007
1.17318e-007
1.17328e-007
1.17335e-007
1.17344e-007
1.1735e-007
1.17357e-007
1.17363e-007
1.1737e-007
1.17375e-007
1.17381e-007
1.17386e-007
1.17392e-007
1.17397e-007
1.17403e-007
1.17408e-007
1.17413e-007
1.17419e-007
1.17424e-007
1.17429e-007
1.17434e-007
1.17439e-007
1.17445e-007
1.1745e-007
1.17455e-007
1.17461e-007
1.17466e-007
1.17471e-007
1.17477e-007
1.17482e-007
1.17488e-007
1.17493e-007
1.17499e-007
1.17505e-007
1.1751e-007
1.17516e-007
1.17521e-007
1.17527e-007
1.17533e-007
1.17538e-007
1.17544e-007
1.1755e-007
1.17555e-007
1.17561e-007
1.17567e-007
1.17572e-007
1.17578e-007
1.17583e-007
1.17589e-007
1.17594e-007
1.176e-007
1.17606e-007
1.17611e-007
1.17617e-007
1.17622e-007
1.17628e-007
1.17633e-007
1.17639e-007
1.17645e-007
1.1765e-007
1.17656e-007
1.17661e-007
1.17667e-007
1.17672e-007
1.17678e-007
1.17683e-007
1.17688e-007
1.17693e-007
1.17698e-007
1.17702e-007
1.17707e-007
1.17712e-007
1.17717e-007
1.17721e-007
1.17726e-007
1.1773e-007
1.17735e-007
1.17739e-007
1.17744e-007
1.17748e-007
1.17752e-007
1.17756e-007
1.1776e-007
1.17764e-007
1.17768e-007
1.17772e-007
1.17775e-007
1.17779e-007
1.17782e-007
1.17785e-007
1.17788e-007
1.17792e-007
1.17794e-007
1.17797e-007
1.178e-007
1.17802e-007
1.17805e-007
1.17807e-007
1.17809e-007
1.1781e-007
1.17812e-007
1.17813e-007
1.17814e-007
1.17815e-007
1.17816e-007
1.17817e-007
1.17817e-007
1.17817e-007
1.17817e-007
1.17816e-007
1.17814e-007
1.17812e-007
1.17809e-007
1.17805e-007
1.17801e-007
1.17794e-007
1.17788e-007
1.1778e-007
1.17772e-007
1.17764e-007
1.17756e-007
1.17747e-007
1.17737e-007
1.17727e-007
1.17717e-007
1.17703e-007
1.17693e-007
1.17672e-007
1.17662e-007
1.17638e-007
1.17616e-007
1.17624e-007
1.17548e-007
1.17593e-007
1.20367e-007
7.53168e-007
0.000103854
0.00603922
4.04606e-008
4.04556e-008
4.04505e-008
4.04452e-008
4.04392e-008
4.04328e-008
4.04257e-008
4.04185e-008
4.04106e-008
4.04022e-008
4.03933e-008
4.03841e-008
4.03744e-008
4.03644e-008
4.03539e-008
4.03431e-008
4.03319e-008
4.03205e-008
4.03088e-008
4.02966e-008
4.02844e-008
4.02721e-008
4.02593e-008
4.02465e-008
4.02334e-008
4.02205e-008
4.02072e-008
4.01939e-008
4.01805e-008
4.01669e-008
4.01532e-008
4.01398e-008
4.01259e-008
4.0112e-008
4.00983e-008
4.00844e-008
4.00707e-008
4.00565e-008
4.00429e-008
4.0029e-008
4.00152e-008
4.00017e-008
3.99881e-008
3.99746e-008
3.99613e-008
3.9948e-008
3.99347e-008
3.99216e-008
3.99085e-008
3.98957e-008
3.9883e-008
3.98703e-008
3.98579e-008
3.98456e-008
3.98335e-008
3.98215e-008
3.98096e-008
3.97978e-008
3.97863e-008
3.9775e-008
3.97636e-008
3.97524e-008
3.97418e-008
3.97309e-008
3.97201e-008
3.97097e-008
3.96993e-008
3.9689e-008