/*--------------------------------*- C++ -*----------------------------------*\
| =========                 |                                                 |
| \\      /  F ield         | OpenFOAM: The Open Source CFD Toolbox           |
|  \\    /   O peration     | Version:  5.x                                   |
|   \\  /    A nd           | Web:      www.OpenFOAM.org                      |
|    \\/     M anipulation  |                                                 |
\*---------------------------------------------------------------------------*/
/*   Windows 32 and 64 bit porting by blueCAPE: http://www.bluecape.com.pt   *\
|  Based on Windows porting (2.0.x v4) by Symscape: http://www.symscape.com   |
\*---------------------------------------------------------------------------*/
FoamFile
{
    version     2.0;
    format      ascii;
    class       volScalarField;
    location    "80";
    object      k;
}
// * * * * * * * * * * * * * * * * * * * * * * * * * * * * * * * * * * * * * //

dimensions      [0 2 -2 0 0 0 0];

internalField   nonuniform List<scalar> 
43900
(
0.00101769
0.000990114
0.000990205
0.000990116
0.000990116
0.000990121
0.000990116
0.000990123
0.000990124
0.000990126
0.000990127
0.000990129
0.00099013
0.000990131
0.000990131
0.000990132
0.000990132
0.000990133
0.000990133
0.000990134
0.000990134
0.000990134
0.000990135
0.000990135
0.000990135
0.000990136
0.000990136
0.000990136
0.000990137
0.000205563
4.06181e-005
3.87394e-005
4.04946e-005
4.09734e-005
4.09682e-005
4.0953e-005
4.09616e-005
4.09631e-005
4.09665e-005
4.0969e-005
4.09711e-005
4.09728e-005
4.09744e-005
4.09757e-005
4.09769e-005
4.0978e-005
4.09789e-005
4.09797e-005
4.09805e-005
4.09813e-005
4.0982e-005
4.09827e-005
4.09834e-005
4.0984e-005
4.09846e-005
4.09852e-005
4.09858e-005
4.09861e-005
0.201269
0.0228638
0.000618741
9.64143e-006
3.11173e-006
3.16511e-006
3.34941e-006
3.35488e-006
3.35644e-006
3.35732e-006
3.35811e-006
3.35883e-006
3.3595e-006
3.3601e-006
3.36065e-006
3.36116e-006
3.36162e-006
3.36205e-006
3.36245e-006
3.36282e-006
3.36316e-006
3.36347e-006
3.36376e-006
3.36403e-006
3.36429e-006
3.36453e-006
3.36476e-006
3.36498e-006
3.36517e-006
0.681347
0.228705
0.0464747
0.00348152
7.9862e-005
2.21207e-006
5.47845e-007
5.04172e-007
5.03311e-007
5.03368e-007
5.03484e-007
5.03594e-007
5.0371e-007
5.03819e-007
5.03919e-007
5.04012e-007
5.04098e-007
5.04177e-007
5.04248e-007
5.04313e-007
5.04372e-007
5.04427e-007
5.04476e-007
5.0452e-007
5.04557e-007
5.0459e-007
5.04634e-007
5.04656e-007
5.04689e-007
1.11609
0.58511
0.26151
0.0774371
0.0102969
0.000350867
6.02703e-006
5.89397e-007
5.16329e-007
5.15632e-007
5.15666e-007
5.1577e-007
5.15881e-007
5.15987e-007
5.1608e-007
5.16164e-007
5.16234e-007
5.16362e-007
5.16398e-007
5.16482e-007
5.16469e-007
5.16487e-007
5.16475e-007
5.16495e-007
5.1645e-007
5.16507e-007
5.16344e-007
5.16281e-007
5.16247e-007
1.33629
0.789677
0.445673
0.223666
0.076556
0.0101093
0.000275752
5.14517e-006
2.15399e-006
2.12631e-006
2.12642e-006
2.12728e-006
2.12827e-006
2.12921e-006
2.12999e-006
2.13069e-006
2.13118e-006
2.13143e-006
2.13167e-006
2.13206e-006
2.13303e-006
2.13297e-006
2.1333e-006
2.13215e-006
2.13204e-006
2.13214e-006
2.13089e-006
2.13007e-006
2.12961e-006
1.44565
0.896059
0.542906
0.309339
0.151139
0.0435807
0.00317176
4.85639e-005
1.16359e-005
1.13819e-005
1.13838e-005
1.139e-005
1.13958e-005
1.14001e-005
1.14042e-005
1.14075e-005
1.14094e-005
1.14105e-005
1.14126e-005
1.14181e-005
1.14175e-005
1.14175e-005
1.14204e-005
1.14136e-005
1.14111e-005
1.14089e-005
1.14053e-005
1.14011e-005
1.13982e-005
1.47999
0.934274
0.580536
0.344636
0.183268
0.0706846
0.00969952
0.00023495
4.6985e-005
4.58084e-005
4.58112e-005
4.5828e-005
4.58399e-005
4.58499e-005
4.58599e-005
4.58818e-005
4.58804e-005
4.58808e-005
4.58913e-005
4.58825e-005
4.58825e-005
4.58833e-005
4.58921e-005
4.58687e-005
4.58607e-005
4.585e-005
4.58363e-005
4.58227e-005
4.58027e-005
1.47303
0.935385
0.586481
0.353585
0.193666
0.0814067
0.0140067
0.00046875
9.13638e-005
8.87719e-005
8.87645e-005
8.8766e-005
8.87714e-005
8.87876e-005
8.87876e-005
8.87877e-005
8.87885e-005
8.87957e-005
8.87793e-005
8.87706e-005
8.87664e-005
8.87665e-005
8.877e-005
8.87422e-005
8.87262e-005
8.87101e-005
8.86967e-005
8.86706e-005
8.86624e-005
1.45924
0.930347
0.585348
0.354125
0.195274
0.0838285
0.0153237
0.000563743
0.0001167
0.000113617
0.000113603
0.000113603
0.000113607
0.000113601
0.000113601
0.0001136
0.000113603
0.000113589
0.000113584
0.000113576
0.000113568
0.000113565
0.000113567
0.000113543
0.00011353
0.000113516
0.000113497
0.000113488
0.000113484
1.43864
0.918372
0.579356
0.351629
0.194442
0.083751
0.0153838
0.000584199
0.000129296
0.000126085
0.000126066
0.000126066
0.000126067
0.000126056
0.000126052
0.000126051
0.000126051
0.000126051
0.000126037
0.00012603
0.000126026
0.000126026
0.000126013
0.000126002
0.000125995
0.000125985
0.000125974
0.000125969
0.000125961
1.41245
0.90124
0.568142
0.344931
0.191041
0.0824563
0.0151447
0.000584969
0.000135221
0.000131767
0.00013174
0.000131737
0.000131735
0.00013173
0.000131726
0.000131723
0.00013172
0.000131719
0.000131714
0.000131714
0.000131714
0.000131715
0.000131699
0.000131698
0.000131698
0.000131686
0.000131686
0.000131674
0.000131674
1.38356
0.882431
0.555859
0.336856
0.185875
0.079434
0.0142977
0.000564551
0.000137839
0.000134178
0.000134146
0.000134143
0.000134143
0.000134143
0.000134146
0.000134144
0.000134144
0.00013413
0.00013413
0.00013413
0.000134133
0.000134124
0.000134116
0.000134115
0.000134115
0.000134113
0.000134114
0.000134104
0.000134104
1.35261
0.862332
0.54282
0.328501
0.180675
0.0763026
0.0133127
0.000533247
0.000138996
0.000135154
0.000135119
0.000135117
0.000135117
0.000135117
0.000135121
0.000135108
0.000135108
0.000135107
0.000135107
0.000135108
0.000135113
0.000135097
0.000135092
0.000135092
0.000135092
0.000135093
0.000135098
0.000135084
0.000135084
1.31973
0.841037
0.52906
0.319752
0.175309
0.073185
0.0124182
0.000509005
0.000139652
0.000135552
0.000135511
0.000135511
0.000135507
0.000135507
0.000135496
0.000135496
0.000135496
0.000135496
0.000135498
0.000135492
0.000135492
0.000135492
0.000135493
0.000135485
0.000135485
0.000135485
0.000135491
0.000135483
0.000135484
1.28478
0.818477
0.514546
0.310585
0.169748
0.0700237
0.0115714
0.000489677
0.000140182
0.000135728
0.00013567
0.00013567
0.00013567
0.000135671
0.000135675
0.000135665
0.000135665
0.000135666
0.000135671
0.000135656
0.000135656
0.000135656
0.00013566
0.000135649
0.000135649
0.00013565
0.000135648
0.000135649
0.00013565
1.2476
0.794555
0.499222
0.300965
0.163968
0.0667994
0.010761
0.000474159
0.000140726
0.000135831
0.000135767
0.000135768
0.000135759
0.000135759
0.000135762
0.000135756
0.000135756
0.000135758
0.000135747
0.000135747
0.000135751
0.00013575
0.00013575
0.000135751
0.00013574
0.000135741
0.000135738
0.000135738
0.000135746
1.20809
0.769219
0.483054
0.290868
0.15795
0.063503
0.00998235
0.000461616
0.000141354
0.000135929
0.000135836
0.000135834
0.000135834
0.000135834
0.000135838
0.00013583
0.00013583
0.000135831
0.000135836
0.00013582
0.000135811
0.000135813
0.000135811
0.000135811
0.000135816
0.000135809
0.000135809
0.000135815
0.000135795
1.16624
0.742455
0.466033
0.28029
0.151695
0.060137
0.00923555
0.000451683
0.000142099
0.000136038
0.000135914
0.000135914
0.000135917
0.000135912
0.00013592
0.000135898
0.000135897
0.000135901
0.000135892
0.000135892
0.0001359
0.000135887
0.000135895
0.000135882
0.000135882
0.000135893
0.000135873
0.000135873
0.000135884
1.12206
0.714274
0.44817
0.26924
0.145206
0.056711
0.00852278
0.000444051
0.00014298
0.000136171
0.000136024
0.000136024
0.000136017
0.00013602
0.000136
0.000135999
0.00013601
0.000135994
0.000136
0.000135987
0.000135973
0.000135991
0.000135963
0.000135962
0.000135989
0.00013596
0.00013596
0.00013598
0.000135952
1.07561
0.684713
0.429489
0.257733
0.138494
0.0532376
0.00784609
0.000438531
0.000144023
0.000136337
0.000136125
0.000136123
0.000136129
0.00013611
0.000136109
0.000136128
0.000136103
0.000136121
0.000136094
0.000136086
0.000136117
0.000136077
0.000136076
0.000136106
0.000136074
0.000136093
0.000136068
0.000136056
0.000136083
1.02699
0.653836
0.410029
0.245795
0.131574
0.049731
0.00720678
0.000434716
0.000145269
0.000136551
0.000136287
0.0001363
0.000136279
0.000136291
0.000136292
0.000136252
0.000136285
0.000136236
0.000136232
0.000136264
0.000136228
0.000136242
0.000136244
0.000136208
0.000136239
0.000136195
0.00013617
0.000136217
0.000136171
0.976338
0.621737
0.389848
0.233458
0.124461
0.0462074
0.00660527
0.000432624
0.000146695
0.000136827
0.000136487
0.00013645
0.000136477
0.000136444
0.000136433
0.00013647
0.000136428
0.000136428
0.000136446
0.000136411
0.000136418
0.000136407
0.00013637
0.000136406
0.000136382
0.00013633
0.000136387
0.000136343
0.00013634
0.923874
0.588537
0.369018
0.220764
0.117177
0.0426828
0.00604115
0.000431189
0.000148437
0.000137191
0.00013671
0.000136746
0.000136682
0.000136678
0.000136712
0.000136677
0.000136658
0.00013664
0.000136624
0.000136609
0.000136671
0.000136583
0.000136613
0.000136621
0.00013654
0.000136614
0.000136548
0.000136526
0.000136565
0.869848
0.554391
0.347628
0.207763
0.109743
0.0391772
0.00551325
0.000431179
0.000150272
0.000137598
0.000137073
0.00013697
0.000136999
0.000137007
0.00013695
0.000136912
0.000137003
0.000136933
0.000136883
0.000136986
0.000136866
0.000136893
0.000136912
0.000136796
0.00013689
0.000136819
0.00013675
0.000136836
0.000136745
0.814569
0.51948
0.325784
0.194511
0.102187
0.035705
0.00501922
0.000430559
0.000152596
0.000138204
0.000137364
0.000137416
0.000137327
0.000137318
0.000137317
0.000137431
0.000137261
0.000137215
0.000137359
0.000137214
0.000137238
0.00013728
0.000137118
0.000137217
0.000137151
0.000137048
0.000137172
0.000137054
0.000137049
0.758389
0.484014
0.303605
0.181075
0.0945335
0.032292
0.00455685
0.000430551
0.00015495
0.000138768
0.000137921
0.000137761
0.000137838
0.000137792
0.000137762
0.000137693
0.00013774
0.00013784
0.000137625
0.000137642
0.00013773
0.000137534
0.000137642
0.00013755
0.000137421
0.000137597
0.000137444
0.000137414
0.000137454
0.701706
0.448225
0.281224
0.167523
0.0868222
0.0289475
0.00412333
0.000429402
0.00015767
0.000139721
0.000138443
0.000138415
0.00013825
0.000138254
0.000138265
0.000138352
0.000138285
0.000138114
0.000138251
0.000138291
0.000138021
0.000138141
0.000138062
0.000137942
0.000138145
0.000137925
0.000137882
0.000137977
0.000137812
0.644953
0.41237
0.258786
0.153934
0.0790754
0.0257054
0.00371376
0.000427355
0.000160728
0.000140633
0.000139011
0.000138915
0.000139057
0.000138947
0.000138804
0.000138808
0.000138822
0.000138979
0.000138835
0.00013861
0.000138831
0.00013873
0.000138556
0.000138684
0.000138491
0.000138581
0.000138604
0.000138326
0.000138246
0.588583
0.376715
0.236443
0.140387
0.0713519
0.0225702
0.00333095
0.000423671
0.000163678
0.000141631
0.000140074
0.000139911
0.000139646
0.00013965
0.000139693
0.000139693
0.000139582
0.000139517
0.000139511
0.00013967
0.000139401
0.000139323
0.000139461
0.000139315
0.000139298
0.000139085
0.000139045
0.000138983
0.000139038
0.533073
0.341543
0.214357
0.126968
0.0636707
0.0195841
0.00296204
0.000418176
0.000166688
0.000143501
0.000140848
0.000140552
0.000140742
0.000140613
0.000140607
0.000140452
0.00014043
0.000140566
0.000140419
0.000140256
0.000140379
0.000140333
0.000140126
0.000139984
0.000139983
0.000140048
0.000139805
0.00013994
0.000139731
0.478885
0.307133
0.192691
0.113767
0.0561255
0.0167483
0.00262237
0.000410151
0.000170502
0.000144679
0.000141976
0.000141996
0.000141671
0.000141772
0.000141531
0.000141688
0.000141683
0.000141369
0.000141621
0.000141503
0.00014112
0.000141254
0.000141147
0.000141316
0.000141077
0.000140707
0.000140976
0.000140628
0.000140574
0.426476
0.273762
0.17161
0.100868
0.0487305
0.0141214
0.00229284
0.000399577
0.000172739
0.000146563
0.000143841
0.000142896
0.000143191
0.000142972
0.000143034
0.000142836
0.000142713
0.000143045
0.000142646
0.000142605
0.000142758
0.000142244
0.000142378
0.000142285
0.000142252
0.000142255
0.000141771
0.000141845
0.000141808
0.37627
0.241695
0.151275
0.0883658
0.0416243
0.0116842
0.00199116
0.000386391
0.000176016
0.000149137
0.000144904
0.000144733
0.000144415
0.000144564
0.000144512
0.00014452
0.000144439
0.000144091
0.000144289
0.000144325
0.000143869
0.000144059
0.000143679
0.000143687
0.000143697
0.000143329
0.000143422
0.000142992
0.000142918
0.328645
0.211172
0.131844
0.076346
0.0348317
0.00952002
0.00170856
0.00037064
0.000178835
0.000150666
0.000147086
0.000146587
0.000146139
0.000146147
0.000146339
0.00014612
0.000146051
0.000146141
0.00014584
0.000145868
0.000146163
0.000145492
0.000145496
0.000145257
0.000145138
0.000145204
0.000144755
0.000144823
0.000144362
0.283933
0.18241
0.113455
0.0648975
0.0285236
0.00758601
0.00145171
0.000353536
0.000180221
0.000153966
0.000149202
0.000147955
0.000148529
0.000148337
0.000147898
0.00014832
0.000148408
0.00014776
0.000148236
0.000147892
0.00014747
0.000148056
0.00014749
0.000147248
0.000146931
0.00014694
0.000147159
0.000146423
0.00014644
0.242403
0.155593
0.0962411
0.054119
0.0227342
0.00594866
0.00122135
0.000334487
0.00018334
0.000155843
0.000151584
0.000151415
0.00015044
0.00015041
0.000150879
0.000150428
0.000150124
0.000150813
0.00015029
0.000150125
0.000150311
0.000149735
0.000150211
0.000149811
0.000149729
0.000149163
0.000148588
0.000148982
0.00014837
0.204265
0.130872
0.0803162
0.0440965
0.0176488
0.00456998
0.00102038
0.000316381
0.000183496
0.000159928
0.000154447
0.000153075
0.000153457
0.000153533
0.000152901
0.000153075
0.000153673
0.00015292
0.000153016
0.000153356
0.000153008
0.000153006
0.000152324
0.000152655
0.00015218
0.000152173
0.000151759
0.000150868
0.000151105
0.169655
0.108365
0.0657653
0.034996
0.0132726
0.003463
0.000848854
0.000296695
0.000186112
0.000161964
0.000157128
0.00015682
0.00015623
0.000155876
0.000156479
0.000156368
0.000155761
0.000156869
0.000156219
0.000155967
0.000155925
0.000155872
0.000156287
0.000155457
0.000155617
0.000155029
0.000155169
0.000154859
0.00015356
0.138647
0.0881517
0.0526832
0.0268803
0.00972096
0.00259354
0.00070539
0.0002815
0.000186022
0.00016638
0.00016088
0.000159028
0.000159456
0.000159952
0.000159783
0.000159577
0.000159824
0.000159264
0.000160132
0.000159949
0.000160076
0.000160065
0.000159231
0.000159526
0.000159008
0.000159543
0.00015846
0.00015823
0.000157791
0.11125
0.070282
0.0410944
0.0199832
0.00692624
0.00193122
0.000591234
0.000264772
0.000188112
0.000168291
0.000164572
0.000164117
0.00016272
0.000162609
0.000162726
0.000163259
0.000163991
0.000164453
0.000163617
0.000164175
0.000163939
0.000164006
0.000164291
0.000163851
0.000163632
0.000162628
0.000163395
0.000162682
0.000162589
0.0874218
0.0547565
0.0311114
0.0142954
0.00485334
0.00144557
0.000498592
0.000254114
0.000188347
0.000173296
0.000168058
0.000166363
0.000166473
0.000167299
0.000167599
0.000167922
0.000167973
0.000167521
0.000168811
0.000168366
0.0001689
0.000168626
0.000168792
0.000169195
0.000169106
0.000169169
0.000167756
0.000167982
0.000166907
0.0670661
0.041559
0.0227204
0.00992719
0.0033677
0.00108968
0.000430351
0.000242974
0.000191345
0.000175235
0.000172227
0.000171683
0.0001717
0.00017111
0.000171151
0.000171622
0.00017207
0.000173506
0.000173115
0.000174584
0.000174317
0.000175372
0.000174962
0.000174962
0.000174806
0.000174335
0.000174914
0.000173403
0.000173678
0.0500507
0.0305978
0.0160171
0.00669957
0.00234595
0.000841673
0.000376692
0.000236454
0.000191922
0.000181231
0.000175415
0.000174595
0.000175443
0.000176389
0.000176374
0.000176479
0.000177026
0.000177814
0.000180402
0.000180379
0.000181502
0.000180114
0.000181562
0.000181246
0.000181863
0.000181539
0.000181178
0.000181356
0.000179901
0.0361929
0.0217942
0.0108849
0.00448183
0.00165528
0.000665118
0.000339049
0.000230127
0.00019658
0.000182621
0.000181218
0.000180965
0.000179187
0.000179478
0.00018118
0.00018286
0.000184106
0.000184141
0.000184437
0.000185237
0.000185931
0.000189043
0.000188313
0.000190371
0.000190086
0.000190844
0.000190489
0.00018961
0.000189339
0.0252646
0.0149755
0.00721392
0.0029875
0.00120085
0.000543834
0.00030957
0.000228867
0.000197216
0.000189281
0.000184429
0.000183871
0.000185142
0.000185456
0.000186468
0.000186683
0.000187604
0.000190381
0.000191569
0.000192032
0.000193564
0.000195004
0.000199398
0.000198944
0.000201111
0.000200536
0.000201489
0.000200816
0.000199979
0.0169796
0.00995828
0.00469855
0.00203247
0.000893482
0.000458252
0.000291623
0.000225957
0.000202574
0.000191699
0.000190735
0.000189397
0.000189107
0.000190332
0.000191365
0.000193334
0.000193879
0.000195126
0.000196702
0.000200694
0.000202767
0.000205746
0.000206768
0.000210554
0.000209555
0.000212013
0.000211338
0.000212854
0.00021236
0.0109874
0.00644326
0.00306429
0.00140785
0.000693909
0.000396566
0.000276252
0.000226609
0.00020423
0.00019863
0.000193663
0.000193851
0.000194845
0.000195764
0.000196254
0.000197851
0.000199718
0.000203024
0.000204292
0.00020771
0.000209429
0.000213006
0.000216304
0.000218757
0.000225606
0.000225057
0.00022774
0.000226595
0.000228211
0.00687717
0.00410565
0.00201869
0.00101129
0.000552587
0.000354842
0.000265429
0.00022596
0.000210675
0.000201067
0.000199354
0.000198817
0.000199551
0.000200187
0.000202004
0.000203396
0.000206338
0.000207875
0.00021138
0.000214029
0.000219637
0.000222037
0.000227155
0.000229908
0.000233728
0.000244207
0.000244537
0.000247658
0.000246098
0.00420213
0.00260624
0.0013597
0.000748023
0.000457214
0.000320208
0.000257912
0.000226929
0.000211923
0.000206671
0.000203913
0.000203826
0.000204123
0.000204974
0.000207114
0.000209053
0.000211955
0.000216005
0.000217916
0.000221871
0.000225007
0.000232043
0.000236447
0.00024547
0.000250002
0.00025539
0.000270133
0.00027057
0.000274323
0.00254023
0.00166787
0.00094172
0.000571408
0.000388976
0.000296202
0.000249265
0.000227788
0.000216748
0.000209313
0.000208307
0.000208043
0.000209512
0.000209949
0.000212999
0.000213836
0.000217778
0.000219929
0.000226412
0.000228561
0.000235002
0.000238799
0.000247854
0.000254139
0.00026833
0.000275697
0.000283935
0.000303105
0.000301453
0.00154155
0.00108658
0.000671678
0.000453789
0.000335149
0.000276714
0.000243676
0.000227611
0.000216952
0.000214134
0.000212832
0.000213123
0.000213183
0.000215048
0.000216807
0.000220883
0.00022338
0.000227303
0.000230664
0.000238083
0.000241917
0.000250886
0.000256315
0.00026867
0.000278218
0.000300893
0.000311184
0.000324676
0.000351087
0.000954401
0.000726816
0.000497907
0.000367856
0.00030039
0.000258298
0.000238869
0.000225804
0.000218082
0.000216827
0.000216032
0.000215539
0.000216494
0.000218765
0.000220898
0.000223368
0.000228
0.000230954
0.000236877
0.000241551
0.00025129
0.000257163
0.000269932
0.000277768
0.000293958
0.000308584
0.000340398
0.000353149
0.00038131
0.000611469
0.000503881
0.000381971
0.000309822
0.000270497
0.000241747
0.00023479
0.000222401
0.000220654
0.00021784
0.000217894
0.000218422
0.00022125
0.000223177
0.000226239
0.000228137
0.000231831
0.000235029
0.000241955
0.000246536
0.000256513
0.000263656
0.000279198
0.000291463
0.000318406
0.000336599
0.000378404
0.000407642
0.000439425
0.000412762
0.000366031
0.000306309
0.000266308
0.000252054
0.000229211
0.000227428
0.000220478
0.000220422
0.000218627
0.000219662
0.000219823
0.000223036
0.000224178
0.000228458
0.000232565
0.000244686
0.000262766
0.000316894
0.000395723
0.000571595
0.00088962
0.00130616
0.00207205
0.00277554
0.00380393
0.00446019
0.00463249
0.00413081
0.000296505
0.000280502
0.00025604
0.000239063
0.000231934
0.000219527
0.000221655
0.000218965
0.000221641
0.000222176
0.000226144
0.00023549
0.000268792
0.000336174
0.00052588
0.000906387
0.00188673
0.00321329
0.00617982
0.0092481
0.0148401
0.0210434
0.0290449
0.0396378
0.0486993
0.0637866
0.0706687
0.0859073
0.0801337
0.000232233
0.000230306
0.000221369
0.000220688
0.000218266
0.000219723
0.000227229
0.000242466
0.000322527
0.000452679
0.000821903
0.0016006
0.00349201
0.00581274
0.0106612
0.0164607
0.0267357
0.0378714
0.0542961
0.0715141
0.0945424
0.12027
0.150994
0.189812
0.227503
0.287537
0.328621
0.429496
0.435718
0.000195824
0.000203371
0.000216631
0.000239551
0.000308356
0.000395015
0.000858276
0.00145662
0.00368949
0.00602244
0.0111999
0.018317
0.0291614
0.0412119
0.0582193
0.0781867
0.104243
0.133683
0.170098
0.211192
0.261194
0.31955
0.388824
0.474834
0.57073
0.707452
0.837896
1.09929
1.22451
0.000192107
0.000250771
0.000416986
0.000807823
0.00188602
0.00315648
0.00719808
0.0112216
0.0215101
0.0306871
0.0466606
0.0657012
0.0896751
0.116848
0.151025
0.191141
0.239578
0.294997
0.361297
0.43704
0.528567
0.635073
0.765097
0.921181
1.11317
1.36072
1.66629
2.11468
2.50778
0.000990137
0.000990137
0.000990138
0.000990138
0.000990138
0.000990139
0.000990139
0.000990139
0.00099014
0.00099014
0.00099014
0.000990141
0.000990141
0.000990141
0.000990142
0.000990142
0.000990142
0.000990142
0.000990143
0.000990143
0.000990143
0.000990144
0.000990144
0.000990144
0.000990144
0.000990145
0.000990145
0.000990145
0.000990145
0.000990146
0.000990146
0.000990146
0.000990147
0.000990147
0.000990147
0.000990147
0.000990148
0.000990148
0.000990148
0.000990148
0.000990149
0.000990149
0.000990149
0.00099015
0.00099015
0.00099015
0.00099015
0.000990151
0.000990151
0.000990151
0.000990151
0.000990152
0.000990152
0.000990152
0.000990152
0.000990153
0.000990153
0.000990153
0.000990153
0.000990154
0.000990154
0.000990154
0.000990154
0.000990154
0.000990154
0.000990155
0.000990155
0.000990155
0.000990155
0.000990155
0.000990155
0.000990155
0.000990155
0.000990156
0.000990156
0.000990156
0.000990156
0.000990156
0.000990156
0.000990156
0.000990156
0.000990156
0.000990156
0.000990156
0.000990156
0.000990156
0.000990156
0.000990156
0.000990156
0.000990156
0.000990156
0.000990156
0.000990156
0.000990156
0.000990156
0.000990156
0.000990156
0.000990156
0.000990156
0.000990156
0.000990155
0.000990155
0.000990155
0.000990155
0.000990155
0.000990154
0.000990154
0.000990154
0.000990154
0.000990153
0.000990153
0.000990153
0.000990152
0.000990152
0.000990152
0.000990152
0.000990152
0.000990152
0.000990152
0.000990152
0.000990153
0.000990153
0.000990154
0.000990154
0.000990155
0.000990155
0.000990156
0.000990156
0.000990157
0.000990157
0.000990158
0.000990158
0.000990159
0.00099016
0.00099016
0.000990162
0.000990162
0.000990215
0.0010082
4.09868e-005
4.09877e-005
4.09883e-005
4.0989e-005
4.09896e-005
4.09902e-005
4.09908e-005
4.09913e-005
4.09919e-005
4.09924e-005
4.09929e-005
4.09934e-005
4.09939e-005
4.09944e-005
4.09949e-005
4.09954e-005
4.09959e-005
4.09964e-005
4.09968e-005
4.09973e-005
4.09978e-005
4.09982e-005
4.09987e-005
4.09991e-005
4.09996e-005
4.10001e-005
4.10005e-005
4.1001e-005
4.10014e-005
4.10019e-005
4.10023e-005
4.10028e-005
4.10032e-005
4.10037e-005
4.10041e-005
4.10046e-005
4.1005e-005
4.10055e-005
4.10059e-005
4.10064e-005
4.10068e-005
4.10072e-005
4.10077e-005
4.10081e-005
4.10086e-005
4.1009e-005
4.10094e-005
4.10098e-005
4.10103e-005
4.10107e-005
4.10111e-005
4.10115e-005
4.1012e-005
4.10124e-005
4.10128e-005
4.10132e-005
4.10136e-005
4.10139e-005
4.10143e-005
4.10146e-005
4.10149e-005
4.10153e-005
4.10156e-005
4.10159e-005
4.10161e-005
4.10164e-005
4.10167e-005
4.1017e-005
4.10172e-005
4.10175e-005
4.10177e-005
4.1018e-005
4.10182e-005
4.10184e-005
4.10186e-005
4.10188e-005
4.1019e-005
4.10191e-005
4.10193e-005
4.10194e-005
4.10196e-005
4.10197e-005
4.10198e-005
4.10199e-005
4.102e-005
4.10201e-005
4.10201e-005
4.10202e-005
4.10202e-005
4.10202e-005
4.10202e-005
4.10202e-005
4.10202e-005
4.10202e-005
4.10201e-005
4.102e-005
4.10199e-005
4.10198e-005
4.10197e-005
4.10195e-005
4.10194e-005
4.10192e-005
4.1019e-005
4.10187e-005
4.10185e-005
4.10182e-005
4.10178e-005
4.10175e-005
4.10171e-005
4.10167e-005
4.10163e-005
4.10159e-005
4.10156e-005
4.10153e-005
4.1015e-005
4.10148e-005
4.10146e-005
4.10146e-005
4.10146e-005
4.10149e-005
4.10153e-005
4.10159e-005
4.10166e-005
4.10174e-005
4.10182e-005
4.1019e-005
4.10196e-005
4.10202e-005
4.10206e-005
4.10211e-005
4.10215e-005
4.10224e-005
4.10228e-005
4.10246e-005
4.10247e-005
4.10276e-005
4.10544e-005
3.98926e-005
4.21114e-005
3.3654e-006
3.36566e-006
3.3659e-006
3.36612e-006
3.36633e-006
3.36653e-006
3.36672e-006
3.36691e-006
3.36709e-006
3.36727e-006
3.36743e-006
3.3676e-006
3.36777e-006
3.36793e-006
3.36809e-006
3.36824e-006
3.3684e-006
3.36855e-006
3.3687e-006
3.36886e-006
3.36901e-006
3.36916e-006
3.36931e-006
3.36946e-006
3.36962e-006
3.36977e-006
3.36992e-006
3.37007e-006
3.37022e-006
3.37038e-006
3.37053e-006
3.37068e-006
3.37084e-006
3.37099e-006
3.37114e-006
3.3713e-006
3.37145e-006
3.3716e-006
3.37176e-006
3.37191e-006
3.37206e-006
3.37222e-006
3.37237e-006
3.37252e-006
3.37267e-006
3.37282e-006
3.37297e-006
3.37312e-006
3.37327e-006
3.37341e-006
3.37356e-006
3.3737e-006
3.37384e-006
3.37398e-006
3.37412e-006
3.37426e-006
3.37439e-006
3.37453e-006
3.37466e-006
3.37479e-006
3.37492e-006
3.37506e-006
3.37519e-006
3.37532e-006
3.37545e-006
3.37557e-006
3.3757e-006
3.37583e-006
3.37595e-006
3.37607e-006
3.37619e-006
3.37631e-006
3.37642e-006
3.37654e-006
3.37665e-006
3.37676e-006
3.37686e-006
3.37697e-006
3.37707e-006
3.37717e-006
3.37727e-006
3.37737e-006
3.37747e-006
3.37756e-006
3.37765e-006
3.37774e-006
3.37783e-006
3.37791e-006
3.37799e-006
3.37807e-006
3.37815e-006
3.37822e-006
3.37829e-006
3.37836e-006
3.37842e-006
3.37849e-006
3.37855e-006
3.3786e-006
3.37865e-006
3.3787e-006
3.37874e-006
3.37878e-006
3.37882e-006
3.37885e-006
3.37889e-006
3.37891e-006
3.37894e-006
3.37896e-006
3.37897e-006
3.37898e-006
3.37898e-006
3.37897e-006
3.37895e-006
3.37892e-006
3.37888e-006
3.37882e-006
3.37876e-006
3.3787e-006
3.37863e-006
3.37858e-006
3.37852e-006
3.37847e-006
3.37841e-006
3.37836e-006
3.37829e-006
3.37822e-006
3.37812e-006
3.37803e-006
3.37783e-006
3.37776e-006
3.37746e-006
3.3774e-006
3.37716e-006
3.37698e-006
3.3771e-006
3.36761e-006
3.04495e-006
1.63046e-005
0.00262582
5.04709e-007
5.04733e-007
5.04751e-007
5.04775e-007
5.04788e-007
5.04808e-007
5.04814e-007
5.04828e-007
5.04829e-007
5.04837e-007
5.04835e-007
5.0484e-007
5.04838e-007
5.04841e-007
5.04838e-007
5.04838e-007
5.04836e-007
5.04834e-007
5.04832e-007
5.04829e-007
5.04825e-007
5.04822e-007
5.04818e-007
5.04814e-007
5.04809e-007
5.04805e-007
5.04801e-007
5.04796e-007
5.04791e-007
5.04786e-007
5.04782e-007
5.04777e-007
5.04772e-007
5.04767e-007
5.04763e-007
5.04758e-007
5.04752e-007
5.04746e-007
5.04742e-007
5.04737e-007
5.04733e-007
5.04728e-007
5.04724e-007
5.04719e-007
5.04715e-007
5.04711e-007
5.04707e-007
5.04702e-007
5.04698e-007
5.04695e-007
5.04691e-007
5.04687e-007
5.04684e-007
5.04681e-007
5.04678e-007
5.04676e-007
5.04674e-007
5.04671e-007
5.04669e-007
5.04669e-007
5.04668e-007
5.04668e-007
5.04668e-007
5.04667e-007
5.04666e-007
5.04666e-007
5.04665e-007
5.04664e-007
5.04663e-007
5.04663e-007
5.0466e-007
5.04658e-007
5.04657e-007
5.04657e-007
5.04657e-007
5.04657e-007
5.04656e-007
5.04656e-007
5.04657e-007
5.04657e-007
5.04657e-007
5.04657e-007
5.04658e-007
5.04653e-007
5.04654e-007
5.04655e-007
5.04656e-007
5.04656e-007
5.04656e-007
5.04657e-007
5.04657e-007
5.04657e-007
5.04657e-007
5.04657e-007
5.04657e-007
5.04656e-007
5.04655e-007
5.04654e-007
5.04652e-007
5.04651e-007
5.04649e-007
5.04646e-007
5.04643e-007
5.04639e-007
5.04636e-007
5.04631e-007
5.04627e-007
5.04621e-007
5.04616e-007
5.04608e-007
5.046e-007
5.0459e-007
5.04577e-007
5.04562e-007
5.04544e-007
5.04521e-007
5.04494e-007
5.04462e-007
5.04429e-007
5.04395e-007
5.04361e-007
5.04327e-007
5.04286e-007
5.0425e-007
5.04213e-007
5.04177e-007
5.04128e-007
5.04091e-007
5.04017e-007
5.03992e-007
5.03887e-007
5.03846e-007
5.03819e-007
5.03637e-007
5.04637e-007
5.58472e-007
7.87984e-006
0.00126862
0.0468205
5.16176e-007
5.16091e-007
5.16003e-007
5.15912e-007
5.1581e-007
5.15705e-007
5.15587e-007
5.15469e-007
5.15339e-007
5.15206e-007
5.15063e-007
5.14916e-007
5.14762e-007
5.14605e-007
5.1444e-007
5.1427e-007
5.14095e-007
5.13917e-007
5.13734e-007
5.13545e-007
5.13355e-007
5.13163e-007
5.12965e-007
5.12766e-007
5.12563e-007
5.12362e-007
5.12156e-007
5.11949e-007
5.11742e-007
5.11532e-007
5.11321e-007
5.11111e-007
5.10897e-007
5.10682e-007
5.1047e-007
5.10255e-007
5.10042e-007
5.09822e-007
5.09611e-007
5.09396e-007
5.09181e-007
5.08972e-007
5.08761e-007
5.0855e-007
5.08344e-007
5.08137e-007
5.0793e-007
5.07726e-007
5.07521e-007
5.07322e-007
5.07123e-007
5.06926e-007
5.06732e-007
5.06539e-007
5.06349e-007
5.06161e-007
5.05975e-007
5.05791e-007
5.0561e-007
5.05433e-007
5.05256e-007
5.05081e-007
5.04916e-007
5.04746e-007
5.04577e-007
5.04414e-007
5.04251e-007
5.0409e-007
5.03932e-007
5.03778e-007
5.03624e-007
5.03467e-007
5.03318e-007
5.03173e-007
5.0303e-007
5.02888e-007
5.02749e-007
5.02615e-007
5.02483e-007
5.0235e-007
5.02222e-007
5.02096e-007
5.01972e-007
5.01838e-007
5.01717e-007
5.01602e-007
5.01489e-007
5.01376e-007
5.01266e-007
5.01159e-007
5.01052e-007
5.00951e-007
5.00849e-007
5.00749e-007
5.00655e-007
5.00561e-007
5.00469e-007
5.00378e-007
5.00291e-007
5.00208e-007
5.00126e-007
5.00045e-007
4.99968e-007
4.99892e-007
4.99818e-007
4.99746e-007
4.99674e-007
4.99607e-007
4.99542e-007
4.99479e-007
4.99418e-007
4.99359e-007
4.99301e-007
4.99244e-007
4.99187e-007
4.99127e-007
4.99067e-007
4.99003e-007
4.98938e-007
4.98874e-007
4.98813e-007
4.98755e-007
4.98685e-007
4.98632e-007
4.9858e-007
4.98538e-007
4.98472e-007
4.98469e-007
4.98347e-007
4.98437e-007
4.98179e-007
4.98426e-007
4.97984e-007
4.98719e-007
5.47873e-007
8.12698e-006
0.000796728
0.0276058
0.234035
2.12906e-006
2.12793e-006
2.12681e-006
2.12563e-006
2.12435e-006
2.12296e-006
2.12149e-006
2.11994e-006
2.11828e-006
2.11651e-006
2.11466e-006
2.11273e-006
2.11069e-006
2.10861e-006
2.10641e-006
2.10416e-006
2.1018e-006
2.09943e-006
2.09696e-006
2.09442e-006
2.09187e-006
2.08929e-006
2.08662e-006
2.08391e-006
2.08119e-006
2.07845e-006
2.07567e-006
2.07288e-006
2.07006e-006
2.06721e-006
2.06433e-006
2.0615e-006
2.05861e-006
2.05571e-006
2.05282e-006
2.04989e-006
2.04699e-006