/*--------------------------------*- C++ -*----------------------------------*\
| =========                 |                                                 |
| \\      /  F ield         | OpenFOAM: The Open Source CFD Toolbox           |
|  \\    /   O peration     | Version:  5.x                                   |
|   \\  /    A nd           | Web:      www.OpenFOAM.org                      |
|    \\/     M anipulation  |                                                 |
\*---------------------------------------------------------------------------*/
/*   Windows 32 and 64 bit porting by blueCAPE: http://www.bluecape.com.pt   *\
|  Based on Windows porting (2.0.x v4) by Symscape: http://www.symscape.com   |
\*---------------------------------------------------------------------------*/
FoamFile
{
    version     2.0;
    format      ascii;
    class       volScalarField;
    location    "80";
    object      nut;
}
// * * * * * * * * * * * * * * * * * * * * * * * * * * * * * * * * * * * * * //

dimensions      [0 2 -1 0 0 0 0];

internalField   nonuniform List<scalar> 
43900
(
5.98943e-005
5.80585e-005
5.80661e-005
5.80587e-005
5.80586e-005
5.8059e-005
5.80586e-005
5.80592e-005
5.80592e-005
5.80594e-005
5.80595e-005
5.80596e-005
5.80597e-005
5.80597e-005
5.80598e-005
5.80598e-005
5.80599e-005
5.80599e-005
5.80599e-005
5.806e-005
5.806e-005
5.806e-005
5.806e-005
5.80601e-005
5.80601e-005
5.80601e-005
5.80602e-005
5.80602e-005
5.80602e-005
4.39507e-005
4.59613e-006
4.28004e-006
4.52879e-006
4.60689e-006
4.60582e-006
4.60367e-006
4.60453e-006
4.60473e-006
4.6051e-006
4.6054e-006
4.60563e-006
4.60584e-006
4.60602e-006
4.60618e-006
4.60632e-006
4.60644e-006
4.60655e-006
4.60666e-006
4.60675e-006
4.60685e-006
4.60693e-006
4.60702e-006
4.6071e-006
4.60718e-006
4.60725e-006
4.60733e-006
4.60739e-006
4.60743e-006
0.104259
0.019194
0.000616534
3.50067e-006
6.52482e-007
6.57573e-007
7.15423e-007
7.17282e-007
7.17623e-007
7.17805e-007
7.17969e-007
7.1812e-007
7.18261e-007
7.18389e-007
7.18507e-007
7.18615e-007
7.18715e-007
7.18808e-007
7.18894e-007
7.18974e-007
7.19048e-007
7.19116e-007
7.1918e-007
7.19238e-007
7.19295e-007
7.19348e-007
7.19397e-007
7.19445e-007
7.19486e-007
0.360292
0.179996
0.0547523
0.00580729
0.000137322
1.82196e-006
2.28207e-007
1.95872e-007
1.95054e-007
1.95053e-007
1.9509e-007
1.95126e-007
1.95164e-007
1.95199e-007
1.9523e-007
1.9526e-007
1.95286e-007
1.95311e-007
1.95332e-007
1.95351e-007
1.95368e-007
1.95385e-007
1.95398e-007
1.95409e-007
1.95418e-007
1.95424e-007
1.95437e-007
1.95439e-007
1.95447e-007
0.635603
0.456956
0.280256
0.115014
0.0211182
0.000872777
1.26437e-005
7.06955e-007
5.93262e-007
5.92213e-007
5.92257e-007
5.92387e-007
5.92509e-007
5.92627e-007
5.92729e-007
5.92822e-007
5.92901e-007
5.9309e-007
5.93132e-007
5.93262e-007
5.93185e-007
5.93097e-007
5.93082e-007
5.93124e-007
5.93006e-007
5.93239e-007
5.92944e-007
5.92828e-007
5.92747e-007
0.802331
0.630737
0.469084
0.311015
0.144611
0.0256322
0.000837028
1.57586e-005
6.36389e-006
6.27716e-006
6.27785e-006
6.28221e-006
6.28612e-006
6.28983e-006
6.29282e-006
6.29559e-006
6.29732e-006
6.29741e-006
6.29833e-006
6.29997e-006
6.30449e-006
6.30133e-006
6.30533e-006
6.29856e-006
6.29773e-006
6.302e-006
6.29491e-006
6.29005e-006
6.28725e-006
0.895397
0.727612
0.571544
0.419916
0.266703
0.104124
0.00996008
0.000183316
5.99089e-005
5.92708e-005
5.92921e-005
5.93499e-005
5.93916e-005
5.94114e-005
5.94381e-005
5.94575e-005
5.94585e-005
5.94557e-005
5.9473e-005
5.95244e-005
5.95046e-005
5.94676e-005
5.95599e-005
5.94943e-005
5.94679e-005
5.9483e-005
5.94483e-005
5.94037e-005
5.93711e-005
0.933866
0.768334
0.614894
0.466933
0.318631
0.163226
0.0302134
0.000949184
0.0002874
0.000285031
0.000285086
0.000285276
0.000285349
0.000285411
0.000285498
0.000285696
0.00028547
0.000285566
0.000285697
0.000285586
0.00028557
0.000285473
0.000285898
0.000285736
0.00028564
0.000285508
0.000285432
0.000285264
0.000284939
0.938604
0.775179
0.625455
0.481499
0.336918
0.186473
0.043471
0.00195126
0.000588216
0.0005823
0.000582312
0.000582332
0.000582397
0.000582595
0.000582573
0.00058251
0.000582658
0.000582797
0.000582581
0.000582492
0.000582437
0.000582411
0.000582831
0.000582466
0.000582256
0.000582036
0.00058196
0.000581562
0.000581842
0.940585
0.77868
0.628444
0.484466
0.341113
0.192534
0.0478828
0.0024016
0.000763879
0.000756142
0.000756108
0.00075609
0.000756256
0.000756172
0.000756168
0.000756113
0.000756354
0.000756156
0.000756173
0.000756064
0.000756013
0.000755918
0.000756181
0.000755861
0.000755783
0.00075559
0.000755321
0.00075556
0.000755556
0.935366
0.77532
0.627583
0.484546
0.341281
0.192929
0.048197
0.00251675
0.000852117
0.000843981
0.000843881
0.000843878
0.00084398
0.000843819
0.000843787
0.000843777
0.000843936
0.000843943
0.000843748
0.000843673
0.000843593
0.000843791
0.000843622
0.000843481
0.000843482
0.000843348
0.000843422
0.000843354
0.000843244
0.925439
0.766669
0.620199
0.479554
0.338305
0.191344
0.0476542
0.00252554
0.000892719
0.000884217
0.00088411
0.000884079
0.000884057
0.000883992
0.000884009
0.000883979
0.000883938
0.000883892
0.000883904
0.000883903
0.000884039
0.000884066
0.000883844
0.000883807
0.000883887
0.000883725
0.000883884
0.000883725
0.000883713
0.914195
0.75703
0.611861
0.472042
0.331854
0.186157
0.0453453
0.00244371
0.000909886
0.00090138
0.000901261
0.000901223
0.00090121
0.000901145
0.000901338
0.000901307
0.00090138
0.000901199
0.000901192
0.000901129
0.000901332
0.000901208
0.000901107
0.000901085
0.000901039
0.000901014
0.000901135
0.000900997
0.000900958
0.902086
0.746698
0.603043
0.464513
0.325467
0.180447
0.0424788
0.00231138
0.000916698
0.000908343
0.000908291
0.000908268
0.000908267
0.000908262
0.000908292
0.000908166
0.000908153
0.000908109
0.000908146
0.000908151
0.000908378
0.000908159
0.000908088
0.000907976
0.000908052
0.000908057
0.000908261
0.000908074
0.000908044
0.889132
0.735672
0.593683
0.456613
0.318877
0.174807
0.039878
0.00220597
0.000919512
0.000911262
0.000911229
0.00091123
0.000911169
0.000911166
0.000910999
0.000910937
0.000911025
0.00091103
0.000911057
0.000910934
0.000911003
0.000910995
0.000911092
0.000910984
0.000910981
0.000910913
0.00091105
0.000910867
0.00091106
0.875259
0.723901
0.583732
0.448272
0.311996
0.169022
0.0373901
0.0021187
0.00092087
0.000912453
0.000912221
0.000912219
0.000912286
0.000912295
0.000912381
0.000912247
0.000912386
0.000912393
0.000912453
0.000912151
0.000912175
0.000912176
0.000912292
0.000912144
0.000912164
0.000912179
0.00091215
0.000912339
0.000912365
0.860372
0.71131
0.573132
0.439435
0.304773
0.163032
0.0349794
0.00204544
0.000921602
0.000913098
0.00091305
0.000913061
0.000912938
0.000912873
0.000912978
0.000912902
0.000913015
0.000913039
0.000912878
0.000912813
0.000912923
0.000912906
0.000912994
0.000912995
0.000912905
0.000912907
0.000912842
0.000912996
0.000913103
0.844395
0.697834
0.561827
0.430057
0.297167
0.156807
0.0326344
0.00198352
0.000922313
0.000913723
0.000913463
0.000913409
0.00091346
0.000913463
0.000913508
0.000913408
0.000913515
0.000913526
0.00091368
0.000913458
0.000913341
0.000913286
0.000913362
0.000913259
0.000913557
0.000913454
0.000913409
0.000913684
0.00091341
0.827262
0.68342
0.549775
0.420104
0.289154
0.150335
0.0303575
0.00193203
0.000923099
0.000914266
0.000913929
0.000913927
0.00091396
0.000913824
0.000914165
0.000913873
0.000913864
0.000913837
0.000913796
0.000913796
0.000913995
0.00091382
0.000913895
0.000913938
0.000913936
0.000914083
0.000913807
0.00091403
0.000914176
0.808918
0.668024
0.536942
0.40955
0.280716
0.143619
0.0281577
0.00188973
0.000923919
0.000914912
0.000914798
0.000914802
0.000914714
0.000914811
0.000914584
0.000914571
0.000914737
0.000914532
0.000914605
0.000914428
0.000914196
0.000914566
0.000914183
0.000914477
0.000914782
0.000914485
0.000914362
0.000914797
0.000914421
0.789313
0.651607
0.523298
0.398375
0.27184
0.136667
0.0260444
0.00185574
0.000924831
0.000915465
0.000915073
0.000915053
0.000915101
0.000915069
0.000915064
0.000915273
0.000914936
0.000915124
0.000915092
0.000914994
0.000915553
0.000915058
0.000915048
0.000915389
0.000915204
0.000915365
0.000915215
0.000915061
0.000915578
0.768409
0.634139
0.508819
0.386561
0.262512
0.129492
0.0240256
0.00182711
0.000926103
0.000916334
0.000916148
0.000916433
0.00091616
0.000916363
0.000916374
0.000915758
0.000916496
0.000915861
0.000915815
0.000916105
0.000915888
0.000915974
0.000916365
0.000915946
0.0009162
0.000915713
0.000915716
0.000916209
0.000916052
0.746175
0.615594
0.493485
0.374092
0.25272
0.122112
0.0221066
0.00180673
0.000927364
0.000917419
0.000917301
0.000916916
0.000916948
0.000916828
0.000916683
0.000917464
0.000916896
0.000916768
0.000917162
0.00091669
0.000917347
0.000917255
0.000916906
0.000917124
0.000917203
0.000916583
0.000916897
0.000916925
0.000916874
0.722594
0.595958
0.477284
0.36096
0.242453
0.114547
0.0202904
0.00178901
0.000929688
0.00091888
0.000918175
0.000918668
0.000918249
0.000918203
0.000918641
0.000918107
0.000918159
0.000917848
0.00091796
0.000917874
0.000918433
0.000917863
0.000917872
0.000918387
0.000917919
0.000918421
0.000917957
0.000917747
0.000918292
0.697661
0.575224
0.460209
0.347156
0.231696
0.106825
0.0185779
0.00177965
0.000930871
0.000920137
0.000920574
0.000919556
0.000919639
0.000920134
0.000919367
0.000919335
0.000920118
0.000919771
0.000919321
0.00091981
0.000919292
0.000919316
0.0009196
0.000919086
0.000919428
0.0009195
0.000918918
0.000919485
0.000919227
0.671387
0.553396
0.442258
0.332678
0.220442
0.0989694
0.0169654
0.00176705
0.000934448
0.000922572
0.000921353
0.000922046
0.000921658
0.000921759
0.000921751
0.000922217
0.00092129
0.000920838
0.000921562
0.00092086
0.000920816
0.000921554
0.000920656
0.000920836
0.000920841
0.000920397
0.000921009
0.000920663
0.000920638
0.643798
0.530491
0.423439
0.317528
0.208672
0.0910271
0.0154495
0.0017571
0.000936702
0.0009233
0.000924698
0.000923713
0.000923896
0.000923736
0.000922969
0.000923148
0.000923123
0.000923658
0.000922825
0.000922716
0.000923352
0.000922705
0.000923013
0.000922691
0.000922075
0.000922803
0.000922424
0.000922241
0.000922416
0.614939
0.506536
0.403767
0.301715
0.196386
0.0830222
0.0140233
0.00174877
0.000940564
0.000926855
0.000926295
0.0009265
0.000925599
0.000924895
0.000925227
0.000925899
0.000925852
0.000925008
0.000925493
0.00092583
0.000924746
0.000925231
0.000925147
0.000924523
0.00092536
0.000924478
0.000924262
0.000924822
0.000924404
0.584874
0.481577
0.383269
0.285251
0.183562
0.0750226
0.012674
0.00173506
0.000945693
0.000928425
0.000928332
0.000928173
0.000928872
0.000928814
0.000927715
0.000927728
0.000927769
0.000928807
0.000928311
0.000927288
0.000928238
0.000928101
0.000927042
0.000927594
0.000926971
0.00092744
0.000927746
0.000926523
0.00092582
0.553686
0.455669
0.361978
0.268159
0.170224
0.0670627
0.0114104
0.00171751
0.000949985
0.000930777
0.000933093
0.000933321
0.000931432
0.000931316
0.000931135
0.00093176
0.00093198
0.00093114
0.000931054
0.000931742
0.000930853
0.000930273
0.000931125
0.000930836
0.000930666
0.000929717
0.000929532
0.000929307
0.000929632
0.521486
0.428891
0.339946
0.250467
0.156354
0.0592341
0.0101929
0.00169558
0.000955074
0.000936111
0.000935995
0.000935564
0.000935773
0.000935747
0.000935967
0.000935089
0.000934821
0.000935464
0.00093541
0.000934384
0.00093489
0.000935219
0.000934237
0.000933057
0.000932997
0.000933605
0.000932905
0.000933517
0.000933042
0.488401
0.401339
0.317236
0.232224
0.142038
0.0515867
0.00907011
0.00166565
0.000963989
0.000938786
0.000939668
0.000940817
0.000940117
0.000940347
0.000939417
0.000940237
0.000940876
0.000939296
0.000940309
0.000940007
0.000938122
0.000938546
0.000938286
0.000939129
0.000938894
0.0009367
0.000937707
0.0009366
0.000936814
0.454587
0.373128
0.29393
0.213467
0.127286
0.0442696
0.00797983
0.0016293
0.000967602
0.000943236
0.000947123
0.000944939
0.00094644
0.000945423
0.000945526
0.000945223
0.000944901
0.000946441
0.000944775
0.000944536
0.000945036
0.000942821
0.000943306
0.000943484
0.000943727
0.000943603
0.000941337
0.00094157
0.00094172
0.420221
0.344397
0.270134
0.194282
0.112297
0.0372939
0.00697977
0.00158482
0.000975166
0.000951308
0.000951109
0.000952654
0.000951647
0.000952045
0.000951857
0.00095198
0.000952176
0.000950894
0.000951408
0.000951697
0.000949852
0.000950579
0.00094907
0.000949043
0.000949417
0.000948428
0.000948743
0.000947161
0.000946451
0.385502
0.315308
0.245977
0.174728
0.0971737
0.0309072
0.00604089
0.00153341
0.000983865
0.000955145
0.000958764
0.000959993
0.00095837
0.000958219
0.000959181
0.000958695
0.000958529
0.000959084
0.000958137
0.000958275
0.000959302
0.000956554
0.000956336
0.000955678
0.000955155
0.000955394
0.000953683
0.000954076
0.000952549
0.350655
0.286045
0.221613
0.154925
0.0822772
0.0250562
0.00518418
0.00147863
0.00098708
0.000964365
0.000965148
0.000965228
0.000967916
0.000967639
0.000965337
0.000966773
0.000967513
0.000965475
0.000967409
0.000966525
0.000964587
0.000966816
0.000965123
0.000963871
0.00096267
0.000962719
0.000964171
0.00096145
0.000961227
0.315928
0.256817
0.19723
0.134996
0.0678311
0.019969
0.00441477
0.00141886
0.000998677
0.000969731
0.000975451
0.00097834
0.000976589
0.000976179
0.000977246
0.000975494
0.00097441
0.000977394
0.000975796
0.000975174
0.000975839
0.000973739
0.000975684
0.000974533
0.000974302
0.000972955
0.000970274
0.000971566
0.000969079
0.281593
0.22786
0.173044
0.115138
0.0543926
0.0155973
0.00374016
0.00136312
0.00100079
0.000983251
0.000985658
0.000985165
0.000987242
0.000988142
0.000985689
0.000986226
0.000988348
0.000985704
0.000986246
0.000987824
0.000987307
0.00098732
0.000984282
0.00098546
0.000984139
0.000984312
0.000982946
0.000979151
0.000979745
0.247941
0.199437
0.149289
0.095718
0.0422261
0.0120083
0.00316522
0.00130405
0.00101285
0.000989868
0.000994851
0.000998677
0.000999496
0.000997803
0.00100018
0.00100011
0.00099732
0.00100134
0.000999296
0.000997894
0.000997407
0.000997383
0.00099954
0.000996955
0.000997744
0.000995675
0.000996133
0.000995054
0.000990172
0.215284
0.171845
0.126249
0.0770696
0.0318394
0.00915217
0.00268372
0.0012605
0.00101504
0.00100477
0.00100867
0.00100731
0.00101015
0.00101297
0.00101241
0.00101116
0.00101248
0.00101054
0.00101398
0.00101363
0.00101402
0.00101407
0.00101147
0.00101231
0.00101035
0.00101232
0.00100878
0.00100791
0.00100633
0.183952
0.145415
0.104171
0.0599719
0.0233338
0.00693867
0.00230239
0.00121437
0.00102716
0.00101162
0.00102137
0.00102495
0.00102468
0.00102394
0.00102447
0.00102705
0.00102934
0.00103035
0.00102716
0.00102895
0.00102826
0.00102877
0.00103032
0.00102932
0.00102878
0.00102474
0.00102752
0.00102551
0.00102529
0.154285
0.12049
0.0835125
0.0448545
0.0167737
0.00530501
0.00199696
0.00119006
0.00103251
0.0010295
0.00103274
0.00103422
0.00103693
0.00104173
0.00104363
0.0010452
0.00104458
0.00104249
0.00104725
0.00104613
0.00104806
0.00104708
0.00104786
0.00104931
0.00104906
0.00104955
0.00104453
0.00104509
0.00104135
0.126637
0.0974478
0.0646238
0.0324474
0.011951
0.00409745
0.0017748
0.00116559
0.00105007
0.00103725
0.00104817
0.00105408
0.00105748
0.00105744
0.0010575
0.00106
0.00106211
0.00106696
0.00106519
0.00106979
0.00106866
0.00107203
0.00107053
0.0010705
0.00107027
0.00106844
0.00107024
0.00106536
0.00106664
0.101371
0.0766005
0.0482101
0.0227735
0.00854632
0.00325677
0.00160805
0.00115735
0.00105767
0.00105978
0.00105994
0.00106517
0.00107075
0.00107731
0.00107746
0.00107813
0.00108106
0.00108381
0.00109188
0.00109134
0.00109472
0.00108971
0.00109442
0.00109379
0.00109633
0.00109626
0.00109444
0.00109416
0.00108866
0.0788397
0.0583285
0.0346134
0.0157978
0.00621663
0.00266116
0.00149601
0.00115109
0.00108261
0.00106824
0.00108092
0.00108635
0.00108705
0.00108869
0.00109657
0.00110373
0.00110727
0.00110636
0.00110683
0.00110955
0.00111228
0.00112345
0.00112134
0.00112762
0.00112651
0.00112916
0.00112826
0.00112588
0.0011244
0.0593557
0.0428848
0.0241681
0.010936
0.0046598
0.00225958
0.00141881
0.0011637
0.0010925
0.00109615
0.00109442
0.00109857
0.00110707
0.00110989
0.00111553
0.00111682
0.00112067
0.00113209
0.00113555
0.00113695
0.00114196
0.00114665
0.00116004
0.00115866
0.00116524
0.0011633
0.00116609
0.00116445
0.00116175
0.0431462
0.0305124
0.0165638
0.00773007
0.00360723
0.00198294
0.00137983
0.00117614
0.00112446
0.00110914
0.00111861
0.00112272
0.00112375
0.00112891
0.00113346
0.00114113
0.00114368
0.00114943
0.00115599
0.00117077
0.00117735
0.00118624
0.00118848
0.00119785
0.00119424
0.0012016
0.00119979
0.00120478
0.00120414
0.0302793
0.0211225
0.01136
0.00559091
0.00292029
0.00179332
0.00135469
0.00119447
0.00113916
0.00114023
0.00113345
0.00113788
0.00114535
0.00114925
0.00115141
0.00115864
0.00116562
0.00117803
0.00118304
0.00119625
0.00120253
0.0012141
0.00122474
0.00123104
0.00124989
0.0012484
0.00125549
0.00125155
0.00125523
0.0206029
0.0143997
0.00788242
0.00420432
0.00243986
0.00167229
0.00134544
0.00121354
0.00117837
0.00115583
0.0011585
0.00115972
0.00116319
0.00116627
0.00117426
0.00117977
0.00119082
0.00119652
0.0012093
0.00121874
0.0012388
0.00124663
0.00126227
0.00127401
0.00128291
0.00131069
0.00131294
0.00132235
0.00131778
0.0137147
0.00978429
0.00560375
0.00327026
0.00211757
0.00157833
0.00134268
0.00123337
0.00119189
0.0011852
0.00118006
0.00118083
0.0011824
0.001186
0.00119421
0.00120093
0.00121208
0.00122632
0.00123305
0.00124671
0.00125752
0.00128227
0.00129652
0.00132335
0.001344
0.00135588
0.00139194
0.00139364
0.00140343
0.00904848
0.00670747
0.00410586
0.00263394
0.00189054
0.00151637
0.00133691
0.00126032
0.00122656
0.00120134
0.00120009
0.00119975
0.00120543
0.00120735
0.00121835
0.00122123
0.00123474
0.00124217
0.00126403
0.00127133
0.00129245
0.00130519
0.00133582
0.0013558
0.00139644
0.00143201
0.00144735
0.00149383
0.00148545
0.00600248
0.00468413
0.00310498
0.00220324
0.00170869
0.00146739
0.00133497
0.00127044
0.00123368
0.00122599
0.00122006
0.00122096
0.00122115
0.00122762
0.00123394
0.00124836
0.00125707
0.00127101
0.00128216
0.00130669
0.00131889
0.00134742
0.00136221
0.00139903
0.0014257
0.00148992
0.00153028
0.00155217
0.00163283
0.00406451
0.00335875
0.00243775
0.00188193
0.0015889
0.00141427
0.00132761
0.0012765
0.00124527
0.00123987
0.0012345
0.00123189
0.00123508
0.0012429
0.00125063
0.00125939
0.00127491
0.00128509
0.00130563
0.00132123
0.00135323
0.00137363
0.00142516
0.001441
0.00149187
0.00152212
0.00163316
0.00165276
0.00168928
0.00284505
0.0024918
0.00197653
0.00165737
0.0014791
0.00135704
0.00132269
0.00126849
0.00125928
0.00124403
0.00124345
0.00124472
0.00125421
0.00126143
0.00127267
0.00128109
0.00129368
0.00130286
0.00132373
0.00133622
0.00136398
0.00137613
0.00140947
0.00141367
0.00144725
0.0014393
0.00147708
0.00155915
0.00161028
0.00208768
0.00192725
0.00166219
0.00147982
0.00140528
0.00130848
0.00129517
0.00126104
0.00125714
0.00124801
0.00125034
0.00125016
0.00125994
0.00126193
0.00127238
0.00126704
0.00126062
0.0011959
0.00111954
0.00107476
0.00117506
0.00150138
0.00189268
0.00257498
0.00326161
0.00383837
0.0043486
0.00382595
0.00331083
0.00161682
0.00156072
0.00144486
0.0013614
0.00132396
0.00126361
0.00126434
0.00125132
0.00125764
0.00125165
0.00124194
0.00120909
0.00113008
0.00107513
0.00119991
0.00164654
0.00290632
0.0043384
0.00751009
0.0103892
0.0150406
0.0197854
0.0249189
0.0311501
0.0354657
0.0418911
0.043115
0.0456401
0.0398252
0.00134097
0.00133324
0.00128737
0.00127595
0.00125687
0.00125536
0.00124998
0.00122302
0.00122057
0.00126653
0.00170511
0.00273332
0.00519123
0.00757147
0.0124734
0.0176252
0.0256016
0.0334725
0.0434245
0.0530861
0.0638274
0.0755625
0.0863929
0.10096
0.110188
0.128371
0.133941
0.157701
0.139927
0.00118108
0.00121188
0.00125677
0.00130503
0.00145865
0.00142883
0.00222165
0.00291605
0.00595431
0.00834402
0.0134652
0.0196489
0.0273569
0.0351753
0.0446374
0.0549297
0.0667318
0.079191
0.0923565
0.106731
0.121058
0.138217
0.153584
0.175258
0.190492
0.220347
0.232052
0.281043
0.270069
0.00115679
0.00133542
0.00172142
0.00247124
0.0047257
0.00570716
0.0104546
0.013485
0.0215978
0.0272822
0.0358599
0.0457078
0.0556284
0.0665494
0.078294
0.0916484
0.105692
0.121133
0.136987
0.154884
0.172682
0.194189
0.214175
0.241516
0.263347
0.301592
0.323899
0.384288
0.385332
5.80602e-005
5.80603e-005
5.80603e-005
5.80603e-005
5.80603e-005
5.80604e-005
5.80604e-005
5.80604e-005
5.80604e-005
5.80605e-005
5.80605e-005
5.80605e-005
5.80605e-005
5.80606e-005
5.80606e-005
5.80606e-005
5.80606e-005
5.80606e-005
5.80607e-005
5.80607e-005
5.80607e-005
5.80607e-005
5.80607e-005
5.80608e-005
5.80608e-005
5.80608e-005
5.80608e-005
5.80609e-005
5.80609e-005
5.80609e-005
5.80609e-005
5.80609e-005
5.8061e-005
5.8061e-005
5.8061e-005
5.8061e-005
5.8061e-005
5.80611e-005
5.80611e-005
5.80611e-005
5.80611e-005
5.80611e-005
5.80612e-005
5.80612e-005
5.80612e-005
5.80612e-005
5.80612e-005
5.80613e-005
5.80613e-005
5.80613e-005
5.80613e-005
5.80613e-005
5.80614e-005
5.80614e-005
5.80614e-005
5.80614e-005
5.80614e-005
5.80615e-005
5.80615e-005
5.80615e-005
5.80615e-005
5.80615e-005
5.80615e-005
5.80615e-005
5.80616e-005
5.80616e-005
5.80616e-005
5.80616e-005
5.80616e-005
5.80616e-005
5.80616e-005
5.80616e-005
5.80616e-005
5.80617e-005
5.80617e-005
5.80617e-005
5.80617e-005
5.80617e-005
5.80617e-005
5.80617e-005
5.80617e-005
5.80617e-005
5.80617e-005
5.80617e-005
5.80617e-005
5.80617e-005
5.80617e-005
5.80617e-005
5.80617e-005
5.80617e-005
5.80617e-005
5.80617e-005
5.80617e-005
5.80617e-005
5.80617e-005
5.80617e-005
5.80617e-005
5.80617e-005
5.80617e-005
5.80617e-005
5.80616e-005
5.80616e-005
5.80616e-005
5.80616e-005
5.80616e-005
5.80616e-005
5.80615e-005
5.80615e-005
5.80615e-005
5.80615e-005
5.80615e-005
5.80614e-005
5.80614e-005
5.80614e-005
5.80614e-005
5.80614e-005
5.80614e-005
5.80614e-005
5.80614e-005
5.80614e-005
5.80614e-005
5.80615e-005
5.80615e-005
5.80615e-005
5.80616e-005
5.80616e-005
5.80617e-005
5.80617e-005
5.80617e-005
5.80618e-005
5.80618e-005
5.80619e-005
5.80619e-005
5.8062e-005
5.8062e-005
5.80621e-005
5.80622e-005
5.80667e-005
5.93274e-005
4.60751e-006
4.60762e-006
4.6077e-006
4.60777e-006
4.60785e-006
4.60792e-006
4.60799e-006
4.60805e-006
4.60812e-006
4.60818e-006
4.60824e-006
4.6083e-006
4.60836e-006
4.60841e-006
4.60847e-006
4.60853e-006
4.60858e-006
4.60864e-006
4.60869e-006
4.60875e-006
4.6088e-006
4.60885e-006
4.60891e-006
4.60896e-006
4.60901e-006
4.60907e-006
4.60912e-006
4.60917e-006
4.60923e-006
4.60928e-006
4.60933e-006
4.60938e-006
4.60943e-006
4.60948e-006
4.60954e-006
4.60959e-006
4.60964e-006
4.60969e-006
4.60974e-006
4.60979e-006
4.60984e-006
4.60989e-006
4.60994e-006
4.60999e-006
4.61005e-006
4.6101e-006
4.61015e-006
4.61019e-006
4.61024e-006
4.61029e-006
4.61034e-006
4.61039e-006
4.61044e-006
4.61048e-006
4.61053e-006
4.61057e-006
4.61062e-006
4.61066e-006
4.6107e-006
4.61074e-006
4.61078e-006
4.61082e-006
4.61085e-006
4.61089e-006
4.61092e-006
4.61095e-006
4.61099e-006
4.61102e-006
4.61105e-006
4.61108e-006
4.61111e-006
4.61113e-006
4.61116e-006
4.61119e-006
4.61121e-006
4.61123e-006
4.61125e-006
4.61128e-006
4.61129e-006
4.61131e-006
4.61133e-006
4.61134e-006
4.61136e-006
4.61137e-006
4.61138e-006
4.61139e-006
4.6114e-006
4.61141e-006
4.61141e-006
4.61142e-006
4.61142e-006
4.61142e-006
4.61142e-006
4.61142e-006
4.61141e-006
4.61141e-006
4.6114e-006
4.61139e-006
4.61138e-006
4.61136e-006
4.61135e-006
4.61133e-006
4.61131e-006
4.61128e-006
4.61126e-006
4.61123e-006
4.61119e-006
4.61116e-006
4.61112e-006
4.61107e-006
4.61103e-006
4.61099e-006
4.61095e-006
4.61091e-006
4.61088e-006
4.61085e-006
4.61083e-006
4.61082e-006
4.61082e-006
4.61085e-006
4.61089e-006
4.61095e-006
4.61103e-006
4.61111e-006
4.61121e-006
4.61129e-006
4.61136e-006
4.61141e-006
4.61145e-006
4.61151e-006
4.61154e-006
4.61165e-006
4.61168e-006
4.61188e-006
4.61189e-006
4.61225e-006
4.61651e-006
4.42565e-006
4.7295e-006
7.19538e-007
7.19595e-007
7.19646e-007
7.19694e-007
7.19741e-007
7.19785e-007
7.19828e-007
7.19869e-007
7.19909e-007
7.19948e-007
7.19985e-007
7.20023e-007
7.20059e-007
7.20095e-007
7.20131e-007
7.20166e-007
7.20201e-007
7.20236e-007
7.2027e-007
7.20304e-007
7.20339e-007
7.20373e-007
7.20408e-007
7.20442e-007
7.20477e-007
7.20511e-007
7.20546e-007
7.20581e-007
7.20616e-007
7.2065e-007
7.20686e-007
7.2072e-007
7.20755e-007
7.20791e-007
7.20826e-007
7.20861e-007
7.20896e-007
7.20931e-007
7.20966e-007
7.21001e-007
7.21037e-007
7.21072e-007
7.21106e-007
7.21141e-007
7.21176e-007
7.2121e-007
7.21245e-007
7.21279e-007
7.21313e-007
7.21346e-007
7.2138e-007
7.21413e-007
7.21445e-007
7.21478e-007
7.2151e-007
7.21541e-007
7.21572e-007
7.21603e-007
7.21634e-007
7.21665e-007
7.21696e-007
7.21726e-007
7.21757e-007
7.21787e-007
7.21817e-007
7.21846e-007
7.21876e-007
7.21904e-007
7.21933e-007
7.2196e-007
7.21988e-007
7.22016e-007
7.22043e-007
7.22069e-007
7.22096e-007
7.22121e-007
7.22146e-007
7.22171e-007
7.22195e-007
7.22219e-007
7.22242e-007
7.22265e-007
7.22288e-007
7.2231e-007
7.22331e-007
7.22352e-007
7.22372e-007
7.22392e-007
7.22411e-007
7.2243e-007
7.22449e-007
7.22467e-007
7.22484e-007
7.22501e-007
7.22517e-007
7.22532e-007
7.22547e-007
7.22561e-007
7.22574e-007
7.22586e-007
7.22597e-007
7.22608e-007
7.22617e-007
7.22627e-007
7.22635e-007
7.22643e-007
7.2265e-007
7.22656e-007
7.2266e-007
7.22664e-007
7.22665e-007
7.22665e-007
7.22662e-007
7.22656e-007
7.22648e-007
7.22636e-007
7.22621e-007
7.22605e-007
7.22589e-007
7.22574e-007
7.22561e-007
7.22547e-007
7.22533e-007
7.22518e-007
7.22503e-007
7.22487e-007
7.22464e-007
7.22444e-007
7.22401e-007
7.22384e-007
7.22318e-007
7.22299e-007
7.22254e-007
7.22193e-007
7.22231e-007
7.19245e-007
6.24144e-007
7.11445e-006
0.00175111
1.95447e-007
1.95449e-007
1.95448e-007
1.95451e-007
1.95448e-007
1.9545e-007
1.95444e-007
1.95442e-007
1.95434e-007
1.95429e-007
1.95419e-007
1.95413e-007
1.95402e-007
1.95395e-007
1.95384e-007
1.95374e-007
1.95364e-007
1.95354e-007
1.95344e-007
1.95332e-007
1.95321e-007
1.9531e-007
1.95298e-007
1.95286e-007
1.95274e-007
1.95262e-007
1.95249e-007
1.95237e-007
1.95224e-007
1.95211e-007
1.95199e-007
1.95186e-007
1.95173e-007
1.9516e-007
1.95147e-007
1.95134e-007
1.95121e-007
1.95106e-007
1.95094e-007
1.95081e-007
1.95068e-007
1.95055e-007
1.95042e-007
1.95029e-007
1.95016e-007
1.95004e-007
1.94991e-007
1.94979e-007
1.94967e-007
1.94955e-007
1.94942e-007
1.94931e-007
1.94919e-007
1.94907e-007
1.94896e-007
1.94885e-007
1.94874e-007
1.94863e-007
1.94853e-007
1.94843e-007
1.94833e-007
1.94823e-007
1.94814e-007
1.94804e-007
1.94794e-007
1.94785e-007
1.94776e-007
1.94767e-007
1.94758e-007
1.9475e-007
1.9474e-007
1.9473e-007
1.94722e-007
1.94714e-007
1.94707e-007
1.94699e-007
1.94691e-007
1.94684e-007
1.94677e-007
1.9467e-007
1.94663e-007
1.94656e-007
1.94649e-007
1.94639e-007
1.94633e-007
1.94628e-007
1.94622e-007
1.94616e-007
1.94611e-007
1.94606e-007
1.94601e-007
1.94595e-007
1.9459e-007
1.94585e-007
1.94581e-007
1.94576e-007
1.94571e-007
1.94566e-007
1.94562e-007
1.94557e-007
1.94553e-007
1.94548e-007
1.94544e-007
1.94539e-007
1.94534e-007
1.9453e-007
1.94525e-007
1.9452e-007
1.94516e-007
1.94511e-007
1.94506e-007
1.94501e-007
1.94495e-007
1.94488e-007
1.9448e-007
1.9447e-007
1.94459e-007
1.94447e-007
1.94434e-007
1.9442e-007
1.94407e-007
1.94395e-007
1.94378e-007
1.94366e-007
1.94354e-007
1.94343e-007
1.94328e-007
1.94317e-007
1.94294e-007
1.94292e-007
1.94251e-007
1.94254e-007
1.94221e-007
1.94205e-007
1.94903e-007
2.33205e-007
7.41968e-006
0.00139471
0.0326688
5.9266e-007
5.92539e-007
5.9241e-007
5.92281e-007
5.92134e-007
5.91986e-007
5.91819e-007
5.91654e-007
5.91471e-007
5.91289e-007
5.91089e-007
5.90889e-007
5.90677e-007
5.90463e-007
5.90237e-007
5.90006e-007
5.89767e-007
5.89526e-007
5.89278e-007
5.89022e-007
5.88764e-007
5.88504e-007
5.88236e-007
5.87967e-007
5.87693e-007
5.8742e-007
5.87142e-007
5.86862e-007
5.86583e-007
5.863e-007
5.86015e-007
5.85731e-007
5.85443e-007
5.85153e-007
5.84867e-007
5.84576e-007
5.84288e-007
5.83992e-007
5.83707e-007
5.83417e-007
5.83127e-007
5.82843e-007
5.82557e-007
5.82272e-007
5.81993e-007
5.81713e-007
5.81433e-007
5.81156e-007
5.8088e-007
5.80609e-007
5.80339e-007
5.80071e-007
5.79807e-007
5.79545e-007
5.79287e-007
5.79032e-007
5.78779e-007
5.78529e-007
5.78283e-007
5.78043e-007
5.77802e-007
5.77566e-007
5.77342e-007
5.77111e-007
5.76882e-007
5.7666e-007
5.76439e-007
5.7622e-007
5.76005e-007
5.75795e-007
5.75584e-007
5.75373e-007
5.7517e-007
5.74973e-007
5.74779e-007
5.74586e-007
5.74398e-007
5.74215e-007
5.74035e-007
5.73855e-007
5.7368e-007
5.73509e-007
5.73341e-007
5.73147e-007
5.72981e-007
5.72824e-007
5.72669e-007
5.72514e-007
5.72364e-007
5.72216e-007
5.72071e-007
5.71931e-007
5.71792e-007
5.71655e-007
5.71526e-007
5.71397e-007
5.71273e-007
5.71149e-007
5.71031e-007
5.70917e-007
5.70806e-007
5.70696e-007
5.70593e-007
5.7049e-007
5.70392e-007
5.70296e-007
5.70202e-007
5.70114e-007
5.7003e-007
5.69949e-007
5.6987e-007
5.69797e-007
5.69726e-007
5.69658e-007
5.69591e-007
5.69521e-007
5.69454e-007
5.69383e-007
5.69313e-007
5.69245e-007
5.69183e-007
5.69126e-007
5.69044e-007
5.68996e-007
5.68952e-007
5.68926e-007
5.68859e-007
5.68896e-007
5.68745e-007
5.68957e-007
5.68551e-007
5.69088e-007
5.68302e-007
5.69689e-007
6.35527e-007
1.38303e-005
0.00128431
0.0308687
0.164405
6.28769e-006
6.28337e-006
6.27892e-006
6.27417e-006
6.26907e-006
6.26349e-006
6.2576e-006
6.25137e-006
6.24472e-006
6.23766e-006
6.23026e-006
6.22251e-006
6.21429e-006
6.20595e-006
6.19715e-006
6.1881e-006
6.17862e-006
6.16913e-006
6.15921e-006
6.14902e-006
6.13876e-006
6.12841e-006
6.1177e-006
6.10685e-006
6.09592e-006
6.08495e-006
6.07377e-006
6.06261e-006
6.05131e-006
6.0399e-006
6.02834e-006
6.01699e-006
6.00545e-006
5.99384e-006
5.98225e-006
5.97053e-006
5.95894e-006
5.94724e-006
5.93579e-006
5.92416e-006
5.91247e-006
5.9011e-006
5.88971e-006
5.87833e-006
5.86715e-006
5.85591e-006
5.84476e-006
5.83374e-006
5.82273e-006
5.81196e-006
5.80117e-006
5.79049e-006
5.78001e-006
5.76959e-006
5.75927e-006
5.74907e-006
5.73894e-006
5.72902e-006
5.71919e-006
5.70953e-006
5.69998e-006
5.69047e-006
5.68132e-006
5.67212e-006
5.66307e-006