/*--------------------------------*- C++ -*----------------------------------*\
| =========                 |                                                 |
| \\      /  F ield         | OpenFOAM: The Open Source CFD Toolbox           |
|  \\    /   O peration     | Version:  5.x                                   |
|   \\  /    A nd           | Web:      www.OpenFOAM.org                      |
|    \\/     M anipulation  |                                                 |
\*---------------------------------------------------------------------------*/
/*   Windows 32 and 64 bit porting by blueCAPE: http://www.bluecape.com.pt   *\
|  Based on Windows porting (2.0.x v4) by Symscape: http://www.symscape.com   |
\*---------------------------------------------------------------------------*/
FoamFile
{
    version     2.0;
    format      ascii;
    class       volScalarField;
    location    "80";
    object      p;
}
// * * * * * * * * * * * * * * * * * * * * * * * * * * * * * * * * * * * * * //

dimensions      [0 2 -2 0 0 0 0];

internalField   nonuniform List<scalar> 
43900
(
0.459409
0.459271
0.459172
0.459008
0.458897
0.458649
0.458505
0.45826
0.458032
0.45779
0.45753
0.45726
0.456978
0.456686
0.456384
0.456071
0.455748
0.455415
0.455071
0.454717
0.454357
0.453992
0.453622
0.453247
0.452868
0.452484
0.452096
0.451704
0.451308
0.458715
0.463976
0.460177
0.462028
0.460656
0.46094
0.460493
0.460201
0.459878
0.459486
0.459135
0.458775
0.458412
0.458046
0.457679
0.45731
0.45694
0.456569
0.456198
0.455827
0.455451
0.455072
0.454687
0.454299
0.453906
0.45351
0.453109
0.452705
0.452298
0.454424
0.471178
0.460869
0.467274
0.461986
0.464433
0.462222
0.462422
0.461603
0.461178
0.460693
0.460208
0.459733
0.459265
0.458804
0.458347
0.457895
0.457446
0.456999
0.456554
0.456111
0.455668
0.455225
0.454782
0.454338
0.453893
0.453447
0.452999
0.452549
0.446966
0.47121
0.464399
0.465506
0.464057
0.464279
0.462846
0.463002
0.462144
0.461812
0.461293
0.4608
0.460314
0.459832
0.459352
0.458874
0.458398
0.457924
0.457452
0.456982
0.456513
0.456045
0.455577
0.455109
0.454641
0.454171
0.453701
0.45323
0.452757
0.448247
0.469913
0.465422
0.464563
0.464706
0.464417
0.463883
0.463702
0.463184
0.462904
0.462523
0.462164
0.461806
0.461442
0.46107
0.460692
0.460308
0.459916
0.459516
0.45911
0.458697
0.458279
0.457854
0.457423
0.456987
0.456545
0.456098
0.455645
0.455187
0.455323
0.468375
0.465901
0.465719
0.465918
0.465428
0.465273
0.465216
0.464955
0.464866
0.464662
0.464461
0.464242
0.464003
0.463745
0.463471
0.463181
0.462875
0.462554
0.462219
0.46187
0.461507
0.461132
0.460744
0.460345
0.459934
0.459511
0.459078
0.458634
0.462255
0.469056
0.467903
0.467693
0.467668
0.467425
0.467371
0.467256
0.467104
0.466991
0.466791
0.466588
0.466369
0.466132
0.465879
0.46561
0.465324
0.465023
0.464707
0.464375
0.464028
0.463666
0.46329
0.462899
0.462494
0.462075
0.461643
0.461197
0.460739
0.469434
0.47196
0.47155
0.471255
0.471029
0.470789
0.470558
0.470298
0.470092
0.469893
0.469659
0.469418
0.46916
0.468887
0.468599
0.468297
0.467979
0.467646
0.467298
0.466934
0.466556
0.466162
0.465752
0.465328
0.464888
0.464433
0.463963
0.463479
0.462979
0.47677
0.477595
0.477346
0.477029
0.476719
0.476401
0.476115
0.475853
0.47565
0.475446
0.475212
0.474959
0.474683
0.474387
0.474069
0.473732
0.473374
0.472997
0.4726
0.472185
0.471751
0.471299
0.470828
0.47034
0.469835
0.469312
0.468773
0.468217
0.467645
0.484631
0.484939
0.48471
0.484408
0.484093
0.483763
0.483469
0.483233
0.483046
0.48285
0.482622
0.482367
0.482082
0.48177
0.48143
0.481064
0.480672
0.480254
0.479811
0.479344
0.478854
0.478339
0.477803
0.477244
0.476663
0.476061
0.475439
0.474796
0.474134
0.49323
0.493007
0.492703
0.49239
0.492051
0.491681
0.491339
0.49107
0.490848
0.490612
0.490345
0.490047
0.489718
0.489359
0.48897
0.488551
0.488103
0.487626
0.487121
0.486587
0.486026
0.485438
0.484824
0.484183
0.483517
0.482827
0.482112
0.481374
0.480612
0.502655
0.502165
0.501781
0.501415
0.501007
0.500554
0.500128
0.499788
0.499498
0.499192
0.498853
0.49848
0.498074
0.497634
0.497161
0.496655
0.496117
0.495546
0.494944
0.494311
0.493647
0.492953
0.492229
0.491476
0.490694
0.489884
0.489046
0.488182
0.487292
0.513218
0.512636
0.512195
0.511772
0.511293
0.51076
0.510258
0.509859
0.509509
0.509138
0.508728
0.508277
0.507787
0.507258
0.50669
0.506084
0.505441
0.50476
0.504042
0.503288
0.502499
0.501675
0.500817
0.499925
0.499
0.498044
0.497055
0.496037
0.494988
0.525006
0.524354
0.523854
0.523372
0.522828
0.522222
0.521651
0.521194
0.520788
0.520353
0.519871
0.519341
0.518764
0.51814
0.51747
0.516755
0.515996
0.515192
0.514346
0.513457
0.512526
0.511555
0.510544
0.509494
0.508406
0.50728
0.506119
0.504922
0.503692
0.537983
0.537256
0.536688
0.536135
0.535511
0.534816
0.53416
0.53363
0.533152
0.532639
0.53207
0.531444
0.530763
0.530028
0.529238
0.528396
0.527501
0.526555
0.525559
0.524513
0.523418
0.522276
0.521088
0.519855
0.518578
0.517258
0.515897
0.514495
0.513054
0.552162
0.551352
0.550705
0.550068
0.549347
0.548544
0.547786
0.547166
0.546599
0.54599
0.545314
0.544573
0.543768
0.542898
0.541966
0.540971
0.539916
0.538801
0.537628
0.536397
0.53511
0.533769
0.532374
0.530927
0.52943
0.527883
0.52629
0.52465
0.522966
0.567566
0.566663
0.565926
0.565194
0.564363
0.563437
0.562563
0.56184
0.561171
0.56045
0.559651
0.558775
0.557824
0.556798
0.555699
0.554527
0.553285
0.551973
0.550594
0.549147
0.547637
0.546063
0.544427
0.542732
0.540979
0.53917
0.537307
0.535391
0.533425
0.58419
0.583185
0.582347
0.581508
0.580553
0.579491
0.578485
0.577647
0.576861
0.576012
0.575072
0.574042
0.572923
0.571718
0.570427
0.569051
0.567594
0.566056
0.564439
0.562746
0.560977
0.559136
0.557225
0.555245
0.553199
0.551089
0.548918
0.546687
0.544401
0.602014
0.600895
0.599946
0.598988
0.597894
0.596678
0.595527
0.594557
0.593639
0.592643
0.591541
0.590334
0.589023
0.587613
0.586101
0.584494
0.58279
0.580993
0.579106
0.577129
0.575069
0.572922
0.570697
0.568392
0.566013
0.563562
0.561039
0.558452
0.5558
0.621005
0.619761
0.618691
0.617599
0.616351
0.614963
0.613649
0.612533
0.611463
0.610301
0.609014
0.607605
0.606078
0.60443
0.602672
0.600796
0.598814
0.596722
0.594525
0.59223
0.58983
0.587341
0.584754
0.582081
0.579325
0.576479
0.573564
0.570566
0.567499
0.641114
0.639735
0.638532
0.637295
0.635875
0.6343
0.632807
0.631525
0.630288
0.628935
0.627441
0.625805
0.624028
0.622122
0.620072
0.617905
0.615599
0.613177
0.610636
0.607966
0.605204
0.60231
0.599328
0.596242
0.593045
0.589783
0.586405
0.582959
0.579439
0.662275
0.66075
0.659404
0.658008
0.656403
0.654623
0.652932
0.651476
0.650043
0.648485
0.646754
0.644864
0.642817
0.640602
0.638253
0.63573
0.633085
0.630285
0.627343
0.624292
0.621066
0.617765
0.614318
0.610745
0.607117
0.603315
0.599462
0.595518
0.591445
0.6844
0.682719
0.681221
0.679656
0.67785
0.675846
0.673955
0.672287
0.67066
0.668856
0.666877
0.664702
0.662341
0.659817
0.657092
0.654228
0.651155
0.647943
0.644589
0.641019
0.637393
0.633549
0.629579
0.625569
0.621295
0.617016
0.612615
0.608023
0.60346
0.707382
0.705534
0.703876
0.70213
0.700109
0.697876
0.695744
0.693897
0.692013
0.689976
0.687693
0.685214
0.682531
0.679629
0.676542
0.673191
0.669723
0.666098
0.662191
0.658195
0.653936
0.649565
0.645164
0.640391
0.635672
0.630795
0.62564
0.620603
0.615337
0.731091
0.729068
0.727244
0.72531
0.723063
0.720573
0.718243
0.716116
0.714037
0.711684
0.709119
0.706301
0.703218
0.699966
0.696397
0.692652
0.688708
0.684477
0.680153
0.675471
0.670702
0.665891
0.660584
0.655404
0.650023
0.644238
0.638703
0.632836
0.626759
0.755376
0.753167
0.751173
0.749042
0.74656
0.743832
0.741208
0.738928
0.736529
0.733909
0.730984
0.727779
0.724429
0.720662
0.716635
0.71235
0.70785
0.703243
0.698122
0.692963
0.687715
0.681868
0.676216
0.670308
0.663869
0.657824
0.65131
0.644521
0.638036
0.780071
0.777669
0.775507
0.773182
0.770459
0.767452
0.764655
0.762037
0.7594
0.75649
0.753234
0.749671
0.745733
0.741566
0.737018
0.732276
0.727323
0.721785
0.716311
0.710624
0.704229
0.698107
0.691673
0.684598
0.678015
0.670828
0.663316
0.656302
0.648634
0.804989
0.802386
0.800059
0.797537
0.794576
0.791337
0.78824
0.78545
0.78257
0.779318
0.775594
0.771571
0.7673
0.762573
0.757562
0.752306
0.746442
0.740665
0.734529
0.727569
0.721046
0.714091
0.706368
0.699166
0.691287
0.683041
0.675429
0.666939
0.658215
0.82993
0.827122
0.824639
0.821932
0.818737
0.815252
0.811977
0.808918
0.805682
0.802001
0.798016
0.793715
0.788847
0.783553
0.778076
0.772036
0.765867
0.759345
0.751944
0.745017
0.737472
0.729087
0.721284
0.712702
0.703854
0.695521
0.686112
0.676595
0.667555
0.854685
0.851667
0.849039
0.846153
0.842735
0.839008
0.83551
0.832257
0.828751
0.824855
0.820362
0.815453
0.810186
0.804498
0.798253
0.791661
0.784844
0.777278
0.769826
0.761697
0.752822
0.744448
0.73516
0.725731
0.716476
0.706148
0.69606
0.68614
0.675433
0.879046
0.875818
0.873064
0.870016
0.86639
0.862497
0.85882
0.855321
0.851619
0.847172
0.842356
0.83713
0.831359
0.825082
0.818363
0.811191
0.803287
0.795288
0.786701
0.777552
0.768506
0.758688
0.748547
0.738286
0.72728
0.716421
0.705493
0.693729
0.682051
0.902805
0.899368
0.896509
0.893325
0.889531
0.885443
0.881581
0.87794
0.873775
0.869167
0.864141
0.858314
0.852051
0.845305
0.837822
0.829971
0.821613
0.81261
0.803195
0.793302
0.783134
0.772297
0.761088
0.749595
0.737773
0.725787
0.713053
0.700426
0.688058
0.925767
0.922124
0.919189
0.915882
0.911911
0.907714
0.903836
0.899843
0.895575
0.89073
0.884984
0.878959
0.872202
0.864593
0.856698
0.848094
0.83904
0.829289
0.818919
0.808238
0.796786
0.784926
0.772887
0.760113
0.747082
0.733566
0.719851
0.706284
0.691905
0.947757
0.943916
0.940932
0.937544
0.933496
0.929246
0.925184
0.921212
0.916684
0.911203
0.905531
0.898908
0.891495
0.883778
0.875012
0.865661
0.855742
0.845147
0.834028
0.822117
0.809703
0.797038
0.783421
0.769518
0.7551
0.740274
0.725526
0.710007
0.69421
0.968614
0.964588
0.961597
0.958148
0.953993
0.949703
0.945735
0.941551
0.936593
0.931396
0.924912
0.91785
0.910411
0.901662
0.892378
0.882604
0.87174
0.860332
0.848098
0.835482
0.8219
0.807682
0.79319
0.777659
0.761913
0.746022
0.729226
0.712277
0.695413
0.988209
0.984014
0.981044
0.97757
0.973421
0.969256
0.96517
0.960812
0.956066
0.949932
0.943405
0.936362
0.927838
0.918845
0.909209
0.898221
0.88673
0.874628
0.861491
0.847373
0.832902
0.817599
0.801282
0.784932
0.767699
0.749637
0.731558
0.713205
0.694381
1.00644
1.0021
0.999204
0.995741
0.991672
0.98753
0.983599
0.979286
0.973832
0.968041
0.961395
0.953124
0.944655
0.935342
0.92459
0.913302
0.901268
0.887701
0.873451
0.859039
0.842956
0.825883
0.808912
0.790549
0.771472
0.75212
0.732299
0.711995
0.691154
1.02324
1.01878
1.01599
1.01258
1.00853
1.00476
1.0008
0.996154
0.991098
0.98479
0.977401
0.969723
0.960658
0.950243
0.939296
0.927404
0.913988
0.899952
0.885396
0.868788
0.851403
0.833737
0.814688
0.794869
0.774185
0.753069
0.731288
0.708757
0.686158
1.03855
1.03402
1.03138
1.028
1.02431
1.02049
1.01663
1.01225
1.00657
1.00022
0.993111
0.984589
0.974878
0.964493
0.95299
0.939991
0.926364
0.911504
0.894887
0.877989
0.859691
0.839887
0.819262
0.797712
0.775636
0.752283
0.728022
0.703523
0.679059
1.05238
1.04781
1.04534
1.04216
1.03847
1.03514
1.03136
1.02655
1.02117
1.01459
1.00672
0.99814
0.988509
0.977498
0.965121
0.951942
0.937399
0.921257
0.90462
0.886047
0.866099
0.844965
0.822812
0.799752
0.774927
0.74939
0.72344
0.696819
0.669369
1.06472
1.06018
1.05795
1.0548
1.05168
1.04833
1.04445
1.03994
1.03418
1.0274
1.01982
1.01077
1.00048
0.989129
0.976642
0.962805
0.947271
0.930649
0.912579
0.892863
0.871494
0.849097
0.825264
0.799539
0.772984
0.745461
0.716807
0.687119
0.656975
1.0756
1.07119
1.06913
1.06637
1.06327
1.06023
1.0565
1.0517
1.04602
1.03917
1.03122
1.02209
1.01162
0.999951
0.986834
0.972272
0.956389
0.939033
0.919565
0.898543
0.876482
0.852242
0.825864
0.798418
0.769611
0.739277
0.707628
0.675432
0.642305
1.0851
1.08087
1.07912
1.07643
1.07385
1.07084
1.06702
1.06229
1.05644
1.04954
1.04153
1.03219
1.02145
1.00944
0.995986
0.980943
0.964478
0.945919
0.925761
0.904127
0.879748
0.853866
0.825904
0.796108
0.764547
0.731407
0.696979
0.661183
0.625092
1.09327
1.08934
1.08778
1.08553
1.08299
1.08013
1.07638
1.07158
1.06573
1.05867
1.05046
1.04116
1.03035
1.01779
1.00393
0.988656
0.971322
0.952266
0.931253
0.907786
0.882458
0.854763
0.824955
0.792776
0.758227
0.721872
0.683934
0.644696
0.604311
1.10022
1.09664
1.09542
1.09328
1.09109
1.08825
1.08448
1.07967
1.07371
1.0667
1.0586
1.04895
1.03769
1.02528
1.01142
0.995332
0.977383
0.957633
0.935536
0.911078
0.884539
0.85505
0.822684
0.787909
0.750579
0.710806
0.66888
0.625349
0.580677
1.10604
1.10292
1.10191
1.10012
1.09797
1.09521
1.09147
1.08662
1.0808
1.07365
1.0653
1.05567
1.04463
1.03186
1.0173
1.00113
0.982984
0.962266
0.939413
0.91388
0.885396
0.854172
0.81989
0.782206
0.741646
0.698057
0.651792
0.603342
0.553571
1.11087
1.10823
1.10751
1.10583
1.10389
1.10115
1.0974
1.09268
1.08665
1.07967
1.07131
1.06146
1.05027
1.03733
1.02279
1.00613
0.987372
0.966298
0.942569
0.915934
0.885992
0.852832
0.816209
0.776035
0.731484
0.683754
0.63235
0.57867
0.522933
1.11484
1.11271
1.11217
1.11071
1.10883
1.10614
1.10248
1.09765
1.09187
1.0847
1.07618
1.06655
1.0552
1.04208
1.02713
1.01041
0.991218
0.969621
0.945042
0.917476
0.886417
0.851499
0.812032
0.768611
0.720455
0.667937
0.611276
0.550884
0.488559
1.11807
1.11643
1.11605
1.11474
1.11295
1.11033
1.10665
1.102
1.09602
1.08898
1.08055
1.07063
1.05923
1.04606
1.03099
1.01393
0.994395
0.972198
0.947212
0.91877
0.886395
0.849739
0.807795
0.760837
0.708595
0.651188
0.588118
0.520602
0.449499
1.12069
1.11948
1.11921
1.11805
1.11635
1.11375
1.11018
1.10544
1.09966
1.09249
1.08398
1.07415
1.06266
1.04928
1.03414
1.01688
0.996937
0.974522
0.948922
0.919454
0.886154
0.847684
0.803693
0.753589
0.696536
0.63318
0.563269
0.486843
0.406392
1.12279
1.12196
1.12176
1.12074
1.11909
1.11657
1.11299
1.10838
1.1025
1.09534
1.08699
1.07689
1.06542
1.05195
1.03679
1.01912
0.999187
0.976259
0.950184
0.919924
0.885712
0.845637
0.799744
0.746407
0.684897
0.61479
0.536427
0.450199
0.357298
1.12445
1.12394
1.12379
1.12286
1.12132
1.11879
1.1153
1.11068
1.10479
1.09776
1.08923
1.07919
1.06762
1.05419
1.03888
1.02094
1.00099
0.977567
0.951104
0.920376
0.885021
0.843805
0.79587
0.739446
0.673751
0.59686
0.508715
0.41008
0.302874
1.12576
1.12549
1.12538
1.12452
1.12307
1.12052
1.11713
1.11249
1.10662
1.09959
1.09105
1.08103
1.06935
1.05595
1.04039
1.02258
1.00226
0.978623
0.951715
0.920566
0.884376
0.84198
0.792335
0.733103
0.66343
0.579295
0.480649
0.366914
0.240983
1.12677
1.12667
1.1266
1.12579
1.12443
1.12182
1.1186
1.11382
1.10809
1.10103
1.09241
1.08242
1.07079
1.05722
1.04159
1.02379
1.00313
0.979399
0.952161
0.920496
0.883707
0.840248
0.789111
0.727443
0.653711
0.562486
0.452567
0.321249
0.170618
1.12753
1.12755
1.1275
1.12674
1.12543
1.12282
1.11966
1.1148
1.10922
1.102
1.09348
1.08348
1.0718
1.05809
1.04252
1.02453
1.00378
0.979852
0.952347
0.920227
0.882876
0.838517
0.786085
0.72201
0.644555
0.546487
0.424871
0.272301
0.0914243
1.12808
1.12818
1.12812
1.12746
1.12606
1.12362
1.12032
1.11555
1.11004
1.10272
1.09424
1.0843
1.07239
1.05879
1.043
1.02493
1.00385
0.979841
0.951594
0.919331
0.880759
0.835917
0.781215
0.715665
0.633452
0.530183
0.395092
0.21779
-0.00927613
1.12844
1.1286
1.12853
1.12796
1.12642
1.12428
1.12058
1.11618
1.11031
1.10319
1.0945
1.08463
1.07242
1.05892
1.04273
1.02461
1.00294
0.978703
0.949541
0.916822
0.876876
0.83114
0.774152
0.706518
0.619836
0.510571
0.362947
0.157186
-0.138465
1.12865
1.12884
1.12875
1.12829
1.12656
1.1248
1.12066
1.11673
1.11037
1.1034
1.0944
1.08434
1.07179
1.05794
1.04134
1.02277
1.00061
0.975775
0.945991
0.912432
0.871506
0.82444
0.765722
0.695481
0.605325
0.489527
0.333299
0.106228
-0.261884
1.12876
1.12896
1.12884
1.12834
1.12651
1.12463
1.12015
1.11584
1.10906
1.10184
1.09217
1.08178
1.06889
1.05466
1.03751
1.01844
0.995744
0.97051
0.94005
0.906039
0.864029
0.816431
0.755742
0.685064
0.590629
0.474451
0.309592
0.0904647
-0.173671
0.450837
0.450288
0.449732
0.44917
0.448602
0.448028
0.447449
0.446864
0.446274
0.445679
0.445079
0.444475
0.443866
0.443253
0.442636
0.442016
0.441392
0.440764
0.440133
0.4395
0.438863
0.438224
0.437582
0.436938
0.436292
0.435644
0.434994
0.434343
0.433691
0.433037
0.432383
0.431728
0.431072
0.430417
0.429761
0.429105
0.428449
0.427794
0.42714
0.426487
0.425835
0.425184
0.424535
0.423888
0.423242
0.422599
0.421958
0.42132
0.420685
0.420052
0.419423
0.418798
0.418176
0.417558
0.416944
0.416334
0.415729
0.415128
0.414532
0.413941
0.413356
0.412775
0.4122
0.411631
0.411068
0.410511
0.40996
0.409415
0.408877
0.408346
0.407821
0.407304
0.406794
0.406291
0.405796
0.405308
0.404828
0.404357
0.403893
0.403437
0.40299
0.402551
0.402121
0.4017
0.401287
0.400884
0.400489
0.400103
0.399727
0.39936
0.399002
0.398654
0.398315
0.397986
0.397666
0.397356
0.397056
0.396765
0.396485
0.396214
0.395952
0.395701
0.395459
0.395228
0.395009
0.394802
0.394607
0.394423
0.394251
0.394089
0.393939
0.3938
0.393671
0.393553
0.393445
0.393349
0.393262
0.393186
0.39312
0.393064
0.393017
0.392979
0.392949
0.392928
0.392913
0.392906
0.392906
0.392911
0.392923
0.392941
0.392965
0.392995
0.393032
0.393074
0.393127
0.393172
0.393262
0.393275
0.393464
0.451814
0.451251
0.450681
0.450106
0.449525
0.448939
0.448348
0.447751
0.447149
0.446541
0.445929
0.445313
0.444691
0.444065
0.443435
0.442801
0.442162
0.44152
0.440874
0.440224
0.439572
0.438916
0.438257
0.437596
0.436932
0.436266
0.435597
0.434927
0.434255
0.433582
0.432907
0.432232
0.431555
0.430879
0.430201
0.429524
0.428847
0.42817
0.427494
0.426819
0.426145
0.425472
0.4248
0.424131
0.423463
0.422797
0.422134
0.421473
0.420816
0.420161
0.419509
0.418861
0.418217
0.417576
0.41694
0.416307
0.41568
0.415057
0.414439
0.413826
0.413218
0.412616
0.41202
0.41143
0.410846
0.410269
0.409698
0.409134
0.408576
0.408026
0.407483
0.406948
0.40642
0.4059
0.405388
0.404884
0.404389
0.403901
0.403423
0.402953
0.402491
0.402039
0.401596
0.401162
0.400738
0.400323
0.399918
0.399523
0.399137
0.398761
0.398396
0.398041
0.397696
0.397361
0.397037
0.396723
0.39642
0.396128
0.395847
0.395577
0.395317
0.395069
0.394832
0.394605
0.394388
0.394181
0.393984
0.393797
0.393621
0.393455
0.393301
0.393157
0.393025
0.392905
0.392797
0.392701
0.392615
0.39254
0.392475
0.39242
0.392375
0.392339
0.392312
0.392294
0.392285
0.392284
0.39229
0.392304
0.392324
0.392349
0.392378
0.392411
0.392446
0.392476
0.392518
0.392531
0.392555
0.392577
0.392498
0.452018
0.451402
0.450782
0.450159
0.449531
0.448898
0.448262
0.447621
0.446976
0.446326
0.445672
0.445014
0.444351
0.443685
0.443015
0.442341
0.441663
0.440981
0.440296
0.439608
0.438917
0.438222
0.437525
0.436825
0.436123
0.435419
0.434712
0.434004
0.433294
0.432583
0.431871
0.431158
0.430444
0.42973
0.429016
0.428301
0.427587
0.426873
0.426159
0.425447
0.424736
0.424026
0.423318
0.422612
0.421908
0.421206
0.420507
0.419811
0.419118
0.418429
0.417743
0.417062
0.416384
0.415711
0.415042
0.414379
0.413721
0.413068
0.412421
0.411779
0.411144
0.410515
0.409892
0.409275
0.408666
0.408064
0.407468
0.40688
0.4063
0.405728
0.405163
0.404607
0.404059
0.40352
0.40299
0.402468
0.401956
0.401453
0.400959
0.400475
0.400001
0.399537
0.399082
0.398638
0.398204
0.397781
0.397368
0.396966
0.396575
0.396195
0.395826
0.395468
0.395122
0.394787
0.394464
0.394153
0.393853
0.393566
0.393291
0.393027
0.392776
0.392538
0.392314
0.392105
0.391909
0.391727
0.391557
0.3914
0.391256
0.391124
0.391004
0.390897
0.390802
0.390717
0.390644
0.390581
0.39053
0.390491
0.390463
0.390447
0.390443
0.390451
0.390471
0.390503
0.390546
0.390602
0.39067
0.390749
0.390837
0.390936
0.391054
0.391159
0.39129
0.391467
0.391447
0.391962
0.391493
0.392753
0.391418
0.452198
0.45155
0.450897
0.45024
0.449578
0.448911
0.448239
0.447561
0.446878
0.446189
0.445494
0.444794
0.444088
0.443377
0.442661
0.44194
0.441213
0.440483
0.439747
0.439008
0.438264
0.437517
0.436767
0.436013
0.435256
0.434496
0.433734
0.43297
0.432204
0.431436
0.430667
0.429897
0.429126
0.428354
0.427583
0.426812
0.426041
0.425272
0.424503
0.423736
0.422971
0.422208
0.421447
0.420689
0.419933
0.41918
0.418431
0.417686
0.416944
0.416206
0.415473
0.414745
0.414021
0.413302
0.412589
0.411881
0.411178
0.410482
0.409792
0.409109
0.408432
0.407762
0.4071
0.406445
0.405797
0.405158
0.404526
0.403903
0.403288
0.402681
0.402083
0.401494
0.400914
0.400344
0.399782
0.399231
0.398689
0.398156
0.397634
0.397123
0.396621
0.396131
0.395651
0.395182
0.394724
0.394278
0.393843
0.39342
0.393008
0.392609
0.392222
0.391847
0.391485
0.391136
0.390799
0.390476
0.390166
0.38987
0.389588
0.38932
0.389067
0.388828
0.388601
0.388387
0.388186
0.387998
0.387824
0.387665
0.38752
0.38739
0.387275
0.387175
0.38709
0.387021
0.386968
0.38693
0.38691
0.386906
0.386919
0.386951
0.387
0.387069
0.387156
0.387266
0.3874
0.387534
0.387731
0.387897
0.388173
0.388388
0.388662
0.389128
0.388941
0.390271
0.388878
0.392083
0.388366
0.395111
0.386595
0.454641
0.454002
0.453354
0.452697
0.45203
0.451355
0.45067
0.449977
0.449275
0.448565
0.447847
0.447121
0.446387
0.445646
0.444897
0.444142
0.443379
0.442611
0.441836
0.441055
0.440268
0.439476
0.438679
0.437877
0.437071
0.436261
0.435447
0.434629
0.433809
0.432986
0.432161
0.431333
0.430504
0.429674
0.428843
0.428011
0.427178
0.426346
0.425514
0.424682
0.423851
0.423022
0.422194
0.421369
0.420545
0.419725
0.418907
0.418092
0.417281
0.416474
0.415671
0.414873
0.414079
0.413291
0.412508
0.41173
0.410959
0.410194
0.409436
0.408684
0.40794
0.407203
0.406474
0.405752
0.405039
0.404334
0.403637
0.40295
0.402271
0.401602
0.400942
0.400292
0.399651
0.399021
0.398401
0.397791
0.397192
0.396604
0.396027
0.395461
0.394906
0.394363
0.393831
0.393311
0.392803
0.392307
0.391823
0.391351
0.390893
0.390446
0.390013
0.389593
0.389186
0.388792
0.388412
0.388045
0.387692
0.387353
0.387028
0.386716
0.386419
0.386136
0.385867
0.385613
0.385374
0.38515
0.384942
0.38475
0.384574
0.384416
0.384274
0.384149
0.384043
0.383955
0.383886
0.383837
0.383808
0.3838
0.383814
0.383851
0.38391
0.383992
0.3841
0.384224
0.384389
0.384573
0.384765
0.385086
0.385164
0.38588
0.385461
0.387176
0.38551
0.389341
0.384971
0.392671
0.383052
0.398073
0.373461
0.4581
0.457468
0.456819
0.456153
0.455472
0.454775
0.454065
0.45334
0.452603
0.451853
0.451091
0.450318
0.449534
0.448739
0.447935
0.447121
0.446298
0.445466
0.444626
0.443779
0.442924
0.442063
0.441195
0.440321
0.439441
0.438557
0.437667
0.436774
0.435876
0.434975
0.43407
0.433163
0.432253
0.431341
0.430428
0.429513
0.428598
0.427682
0.426767
0.425852
0.424938
0.424025
0.423115
0.422206
0.421301
0.420398
0.419498
0.418602
0.417711
0.416823
0.415941
0.415064
0.414192
0.413327
0.412467
0.411613
0.410767
0.409927
0.409095
0.40827
0.407453
0.406644
0.405843
0.405051
0.404267
0.403493
0.402729
0.401974
0.401229
0.400494
0.39977
0.399056
0.398353
0.397661
0.396981
0.396312
0.395655
0.395009
0.394376
0.393755
0.393146
0.39255
0.391966
0.391396
0.390838
0.390293
0.389762
0.389244
0.388739
0.388248
0.387771
0.387307
0.386857
0.386422
0.386001
0.385594
0.385202
0.384824
0.384461
0.384113
0.38378
0.383462
0.38316
0.382873
0.382602
0.382347
0.382108
0.381886
0.381681
0.381492
0.38132
0.381166
0.38103
0.380912
0.380813
0.380732
0.380672
0.380631
0.380611
0.380611
0.380633
0.380677
0.380744
0.380848
0.380899
0.381142
0.381184
0.3816
0.381397
0.38227
0.381556
0.38318
0.381667
0.384297
0.381865
0.385631
0.38221
0.39155
0.363112
0.460186
0.459527
0.458846
0.458144
0.457422
0.456681
0.45592
0.455142
0.454345
0.453532
0.452702
0.451857
0.450996
0.450122
0.449233
0.448332
0.447419
0.446494
0.445559
0.444613
0.443658
0.442695
0.441723
0.440743
0.439757
0.438764
0.437766
0.436763
0.435755
0.434744
0.433729
0.432711
0.431692
0.430671
0.429648
0.428626
0.427605
0.426584
0.425564
0.424545
0.423529
0.422516
0.421506
0.420499
0.419496
0.418498
0.417504
0.416516
0.415533
0.414557
0.413587
0.412623
0.411667
0.410717
0.409776
0.408843
0.407918
0.407001
0.406094
0.405196
0.404307
0.403428
0.402559
0.4017
0.400851
0.400013
0.399186
0.398371
0.397566
0.396773
0.395992
0.395222
0.394464
0.393719
0.392986
0.392265
0.391558
0.390862
0.39018
0.389511
0.388855
0.388213
0.387585
0.38697
0.38637
0.385783
0.38521
0.384652
0.384107
0.383578
0.383062
0.382561
0.382075
0.381603
0.381146
0.380704
0.380277
0.379865
0.379468
0.379086
0.37872
0.378369
0.378033
0.377712
0.377408
0.377119
0.376845
0.376588
0.376346
0.376121
0.375912
0.375719
0.375542
0.375381
0.375237
0.375109
0.374997
0.3749
0.37482
0.374756
0.374709
0.374677
0.37466
0.374692
0.374568
0.374864
0.374504
0.375092
0.374746
0.375322
0.374795
0.375651
0.374985
0.375854
0.37551
0.375399
0.375924
0.379117
0.359615
0.462373
0.461648
0.460898
0.460124
0.459326
0.458506
0.457664
0.4568
0.455916
0.455011
0.454088
0.453146
0.452187
0.45121
0.450218
0.449211
0.448189
0.447153
0.446105
0.445046
0.443974
0.442893
0.441802
0.440703
0.439596
0.438481
0.43736
0.436234
0.435103
0.433969
0.432831
0.43169
0.430548
0.429405
0.428261
0.427118
0.425975
0.424833
0.423693
0.422556
0.421421
0.42029
0.419163
0.418041
0.416923
0.415812
0.414706
0.413606
0.412514
0.411429
0.410351
0.409282
0.408221
0.407169
0.406127
0.405094
0.404072
0.40306
0.402058
0.401068
0.400089
0.399121
0.398165
0.397222
0.39629
0.39537
0.394464
0.393569
0.392688
0.39182
0.390965
0.390124
0.389297
0.388483
0.387683
0.386897
0.386125
0.385368
0.384625
0.383897
0.383184
0.382485
0.381801
0.381132
0.380478
0.379839
0.379215
0.378606
0.378012
0.377433
0.37687
0.376322
0.375789
0.375272
0.37477
0.374283
0.373812
0.373356
0.372916
0.372491
0.372082
0.371688
0.371309
0.370946
0.370598
0.370266
0.369949
0.369648
0.369362
0.369091
0.368835
0.368594
0.368368
0.368157
0.36796
0.367778
0.36761
0.367456
0.367316
0.36719
0.367076
0.366976
0.366888
0.366821
0.366728
0.366778
0.366532
0.366855
0.366319
0.367041
0.366333
0.366864
0.366556
0.366787
0.366923
0.366447
0.366754
0.368773
0.358138
0.466952
0.466125
0.46527
0.464387
0.463478
0.462543
0.461582
0.460599
0.459592
0.458563
0.457513
0.456443
0.455354
0.454246
0.453121
0.45198
0.450823
0.449651
0.448466
0.447268
0.446058
0.444837
0.443606
0.442366
0.441117
0.439862
0.4386
0.437332
0.436059
0.434783
0.433503
0.432221
0.430938
0.429654
0.42837
0.427086
0.425804
0.424523
0.423246
0.421972
0.420702
0.419437
0.418178
0.416924
0.415677
0.414437
0.413205
0.41198
0.410765
0.409559
0.408362
0.407175
0.405998
0.404833
0.403678
0.402535
0.401404
0.400285
0.399178
0.398085
0.397004
0.395937
0.394884
0.393844
0.392819
0.391808
0.390812
0.38983
0.388864
0.387913
0.386977
0.386057
0.385152
0.384263
0.38339
0.382533
0.381692
0.380867
0.380058
0.379266
0.378489
0.377729
0.376985
0.376258
0.375546
0.374851
0.374172
0.37351
0.372863
0.372233
0.37162
0.371022
0.370441
0.369876
0.369328
0.368795
0.368279
0.367778
0.367294
0.366826
0.366373
0.365937
0.365516
0.365112
0.364722
0.364349
0.36399
0.363648
0.36332
0.363008
0.36271
0.362428
0.36216
0.361907
0.361668
0.361444
0.361234
0.361038
0.360855
0.360687
0.360532
0.36039
0.360261
0.360148
0.360038
0.359967
0.359847
0.359866
0.359677
0.359814
0.359601
0.359766
0.359645
0.359478
0.359744
0.359376
0.359131
0.360464
0.35499
0.473332
0.472374
0.471384
0.470362
0.469309
0.468226
0.467114
0.465975
0.46481
0.46362
0.462405
0.461168
0.45991
0.458631
0.457333
0.456017
0.454684
0.453335
0.451972
0.450595
0.449206
0.447806
0.446395
0.444976
0.443549
0.442114
0.440674
0.43923
0.437781
0.436329
0.434876
0.433422
0.431968
0.430514
0.429063
0.427614
0.426168
0.424727
0.423291
0.42186
0.420437
0.41902
0.417612
0.416212
0.414822
0.413441
0.412071
0.410711
0.409364
0.408028
0.406704
0.405394
0.404097
0.402813
0.401543
0.400288
0.399047
0.397822
0.396612
0.395417
0.394238
0.393075
0.391929
0.390799
0.389686
0.38859
0.387511
0.38645
0.385405
0.384379
0.383369
0.382378
0.381404
0.380448
0.37951
0.378589
0.377686
0.376801
0.375934
0.375084
0.374252
0.373438
0.372642
0.371863
0.371102
0.370359
0.369633
0.368925
0.368235
0.367561
0.366906
0.366267
0.365646
0.365042
0.364455
0.363885
0.363332
0.362795
0.362275
0.361772
0.361286
0.360815
0.360361
0.359923
0.359501
0.359095
0.358705
0.35833
0.357971
0.357626
0.357297
0.356983
0.356684
0.3564
0.35613
0.355874
0.355632
0.355404
0.35519
0.35499
0.354802
0.354628
0.354466
0.354317
0.354177
0.354056
0.35393
0.353843
0.353716
0.353676
0.353535
0.353525
0.353413
0.353337
0.353435
0.353082
0.353003
0.353384
0.350845
0.479688
0.478585
0.477443
0.476264
0.475048
0.473798
0.472515
0.4712
0.469855
0.468481
0.46708
0.465653
0.464202
0.462727
0.461232
0.459716
0.458182
0.456631
0.455064
0.453483
0.451889
0.450284
0.44867
0.447046
0.445416
0.443779
0.442138
0.440493
0.438846
0.437198
0.435551
0.433904
0.43226
0.430619
0.428983
0.427352
0.425727
0.42411
0.4225
0.4209
0.419309
0.417729
0.416161
0.414604
0.413059
0.411528
0.410011
0.408508
0.40702
0.405547
0.404091
0.40265
0.401226
0.39982
0.39843
0.397059
0.395706
0.394371
0.393055
0.391757
0.390479
0.38922
0.38798
0.38676
0.385559
0.384378
0.383217
0.382076
0.380954
0.379853
0.378771
0.377709
0.376667
0.375644
0.374642
0.373659
0.372696
0.371752
0.370828
0.369924
0.369039
0.368174
0.367328
0.366501
0.365693
0.364904
0.364135
0.363384
0.362652
0.361939
0.361244
0.360567
0.359909
0.359269
0.358647
0.358043
0.357457
0.356888
0.356337
0.355803
0.355286
0.354786
0.354302
0.353836
0.353385
0.352952
0.352534
0.352132
0.351746
0.351375
0.35102
0.35068
0.350355
0.350045
0.34975
0.349469
0.349202
0.348949
0.34871
0.348484
0.348272
0.348072
0.347885
0.347711
0.347548
0.347398
0.347256
0.347134
0.347007
0.346914
0.346798
0.346734
0.346637
0.346571
0.346546
0.346326
0.346127
0.346076
0.344821
0.486213
0.484925
0.483593
0.482219
0.480805
0.479351
0.477861
0.476336
0.474777
0.473186
0.471565
0.469916
0.46824
0.46654
0.464816
0.463072
0.461308
0.459527
0.45773
0.455919
0.454096
0.452262
0.450419
0.448569
0.446713
0.444853
0.44299
0.441126
0.439263
0.437401
0.435542
0.433687
0.431837
0.429994
0.428159
0.426333
0.424516
0.42271
0.420916
0.419135
0.417367
0.415614
0.413875
0.412152
0.410446
0.408757