/*--------------------------------*- C++ -*----------------------------------*\
| =========                 |                                                 |
| \\      /  F ield         | OpenFOAM: The Open Source CFD Toolbox           |
|  \\    /   O peration     | Version:  5.x                                   |
|   \\  /    A nd           | Web:      www.OpenFOAM.org                      |
|    \\/     M anipulation  |                                                 |
\*---------------------------------------------------------------------------*/
/*   Windows 32 and 64 bit porting by blueCAPE: http://www.bluecape.com.pt   *\
|  Based on Windows porting (2.0.x v4) by Symscape: http://www.symscape.com   |
\*---------------------------------------------------------------------------*/
FoamFile
{
    version     2.0;
    format      ascii;
    class       surfaceScalarField;
    location    "80";
    object      phi;
}
// * * * * * * * * * * * * * * * * * * * * * * * * * * * * * * * * * * * * * //

dimensions      [0 3 -1 0 0 0 0];

internalField   nonuniform List<scalar> 
87341
(
0.321496
39.6015
0.414874
39.8297
0.451747
39.8862
0.518966
39.8558
0.561731
39.8803
0.597603
39.8872
0.641638
39.879
0.674533
39.8901
0.7069
39.8907
0.736042
39.8939
0.762908
39.8962
0.788037
39.8979
0.811653
39.8994
0.833951
39.9007
0.855124
39.9019
0.875345
39.9028
0.894763
39.9036
0.913507
39.9043
0.931674
39.9049
0.949322
39.9054
0.966456
39.9059
0.983122
39.9064
0.999303
39.9069
1.01501
39.9073
1.03024
39.9078
1.04502
39.9083
1.05937
39.9087
1.07329
39.9091
39.9092
1.08708
0.769931
38.8316
1.09061
39.509
1.10562
39.8712
1.28447
39.677
1.33837
39.8264
1.49349
39.732
1.57443
39.7981
1.68693
39.7777
1.78249
39.7951
1.87331
39.8031
1.95862
39.8109
2.03822
39.8183
2.1127
39.8249
2.18261
39.8308
2.24831
39.8362
2.31008
39.841
2.36821
39.8455
2.42291
39.8496
2.47437
39.8534
2.52281
39.8569
2.56853
39.8602
2.61177
39.8631
2.65279
39.8658
2.69183
39.8683
2.72902
39.8706
2.76449
39.8728
2.79836
39.8748
2.83073
39.8767
39.8785
2.86153
1.81628
37.0153
2.78934
38.5359
3.20307
39.4574
3.14369
39.7363
3.23864
39.7314
3.21377
39.7569
3.24867
39.7632
3.27509
39.7512
3.30702
39.7632
3.34562
39.7645
3.38903
39.7674
3.43667
39.7707
3.48557
39.776
3.53505
39.7813
3.58467
39.7865
3.6341
39.7916
3.68311
39.7965
3.7316
39.8011
3.77956
39.8054
3.82703
39.8095
3.87396
39.8132
3.92029
39.8168
3.96605
39.8201
4.01121
39.8231
4.05584
39.826
4.09998
39.8286
4.1437
39.8311
4.18706
39.8334
39.8364
4.22915
1.78663
35.2287
3.49242
36.8301
4.64053
38.3093
5.07549
39.3014
5.13671
39.6702
5.14125
39.7524
5.16824
39.7362
5.16649
39.753
5.17433
39.7553
5.18058
39.7582
5.18777
39.7603
5.19738
39.7611
5.21188
39.7615
5.23138
39.7618
5.25572
39.7622
5.28476
39.7626
5.31846
39.7628
5.35687
39.7627
5.39943
39.7629
5.44562
39.7633
5.49498
39.7639
5.54696
39.7648
5.60112
39.7659
5.65709
39.7672
5.71452
39.7686
5.77283
39.7703
5.83158
39.7724
5.8905
39.7745
39.7766
5.95026
1.06759
34.1611
2.44296
35.4548
3.93142
36.8208
5.04888
38.1839
5.5178
39.2013
5.60508
39.6651
5.61596
39.7253
5.64348
39.7255
5.67533
39.7235
5.70896
39.7246
5.74253
39.7267
5.7752
39.7284
5.81018
39.7266
5.84761
39.7244
5.88784
39.722
5.93106
39.7193
5.9773
39.7165
6.02626
39.7137
6.07787
39.7113
6.13199
39.7092
6.1885
39.7074
6.24701
39.7063
6.30753
39.7054
6.36997
39.7047
6.43414
39.7044
6.50009
39.7044
6.56777
39.7047
6.63701
39.7052
39.7047
6.70893
0.674316
33.4868
1.51131
34.6178
2.50948
35.8227
3.60987
37.0835
4.45997
38.3512
4.80368
39.3214
4.88061
39.6483
4.93843
39.6677
5.0028
39.6591
5.07269
39.6547
5.14975
39.6496
5.23351
39.6446
5.3216
39.6385
5.41323
39.6328
5.50763
39.6276
5.604
39.623
5.70149
39.6191
5.79933
39.6159
5.89741
39.6132
5.99573
39.6109
6.09424
39.6089
6.1932
39.6074
6.2925
39.6061
6.39215
39.6051
6.49215
39.6044
6.59258
39.604
6.69344
39.6038
6.7946
39.6041
39.6039
6.8954
0.422371
33.0644
0.919918
34.1202
1.49387
35.2487
2.14165
36.4357
2.85064
37.6422
3.37543
38.7966
3.60037
39.4234
3.7644
39.5036
3.93106
39.4924
4.10251
39.4833
4.27565
39.4765
4.4505
39.4698
4.6244
39.4646
4.79698
39.4602
4.96796
39.4566
5.1372
39.4537
5.30474
39.4515
5.47084
39.4498
5.6355
39.4485
5.79868
39.4477
5.96027
39.4473
6.12057
39.4471
6.27934
39.4473
6.43647
39.4479
6.5919
39.449
6.74552
39.4503
6.89726
39.4521
7.04715
39.4542
39.4575
7.19354
0.339783
32.7246
0.718194
33.7418
1.13195
34.835
1.58251
35.9852
2.06405
37.1607
2.55293
38.3077
2.8639
39.1124
3.10295
39.2646
3.335
39.2604
3.56335
39.2549
3.78933
39.2505
4.01233
39.2468
4.23301
39.2439
4.45148
39.2417
4.66786
39.2402
4.88223
39.2394
5.09467
39.2391
5.30515
39.2393
5.51357
39.2401
5.71987
39.2414
5.92379
39.2433
6.12571
39.2451
6.32531
39.2477
6.52238
39.2509
6.71681
39.2545
6.90855
39.2586
7.09758
39.263
7.28392
39.2678
39.2735
7.46792
0.322524
32.4021
0.665536
33.3988
1.02867
34.4718
1.41105
35.6028
1.80853
36.7632
2.20711
37.9091
2.5248
38.7947
2.79075
38.9986
3.04985
39.0013
3.30543
38.9993
3.55807
38.9978
3.80758
38.9973
4.05414
38.9973
4.29786
38.998
4.53884
38.9992
4.77715
39.001
5.01283
39.0034
5.24587
39.0063
5.47626
39.0097
5.70399
39.0137
5.92889
39.0184
6.15143
39.0226
6.37136
39.0278
6.58852
39.0337
6.80286
39.0402
7.01433
39.0471
7.22292
39.0545
7.4286
39.0622
39.0692
7.63284
0.287515
32.1146
0.587092
33.0992
0.899278
34.1597
1.22333
35.2788
1.55643
36.4301
1.89292
37.5727
2.20775
38.4799
2.50311
38.7033
2.79234
38.7121
3.07776
38.7139
3.35948
38.7161
3.63778
38.719
3.91271
38.7224
4.18432
38.7264
4.45262
38.731
4.7176
38.7361
4.97926
38.7417
5.2376
38.7479
5.49261
38.7547
5.74427
38.762
5.99258
38.7701
6.23753
38.7776
6.4791
38.7862
6.71726
38.7956
6.95196
38.8055
7.18315
38.8159
7.41077
38.8268
7.63475
38.8382
38.8487
7.85528
0.274282
31.8403
0.556447
32.8171
0.845484
33.8706
1.14119
34.983
1.44326
36.128
1.75206
37.2639
2.06625
38.1657
2.3797
38.3898
2.68981
38.402
2.99676
38.407
3.30045
38.4124
3.60093
38.4185
3.89816
38.4252
4.19212
38.4324
4.48277
38.4403
4.77005
38.4488
5.05392
38.4579
5.33433
38.4675
5.61123
38.4778
5.88456
38.4887
6.15435
38.5004
6.42023
38.5118
6.68231
38.5241
6.94059
38.5373
7.19503
38.551
7.44557
38.5654
7.69212
38.5803
7.93458
38.5957
38.6107
8.17256
0.293386
31.5469
0.592656
32.5178
0.896527
33.5667
1.20369
34.6759
1.5134
35.8183
1.825
36.9523
2.14595
37.8448
2.47199
38.0638
2.79624
38.0777
3.11845
38.0848
3.43839
38.0925
3.75588
38.101
4.07076
38.1103
4.38286
38.1203
4.69202
38.1311
4.9981
38.1427
5.30096
38.155
5.60046
38.168
5.89648
38.1818
6.18888
38.1963
6.47763
38.2116
6.7623
38.2271
7.04293
38.2435
7.31949
38.2607
7.59192
38.2786
7.8601
38.2972
8.12395
38.3164
8.38335
38.3363
38.3559
8.63819
0.319984
31.227
0.645545
32.1922
0.97546
33.2368
1.30818
34.3432
1.64195
35.4845
1.97349
36.6207
2.31336
37.5049
2.65984
37.7173
3.00466
37.7329
3.34754
37.7419
3.68826
37.7518
4.02661
37.7627
4.36239
37.7745
4.6954
37.7873
5.02544
37.8011
5.35233
37.8158
5.67588
37.8314
5.99592
37.848
6.31228
37.8654
6.62478
37.8838
6.93334
37.903
7.23755
37.9229
7.53739
37.9437
7.83278
37.9653
8.12359
37.9878
8.40972
38.0111
8.69103
38.0351
8.96742
38.0599
38.0842
9.23911
0.346274
30.8807
0.698397
31.8401
1.05468
32.8805
1.41346
33.9844
1.77297
35.125
2.13008
36.2636
2.49714
37.1378
2.87109
37.3434
3.24314
37.3608
3.61291
37.3721
3.98018
37.3845
4.34473
37.3981
4.70633
37.4129
5.06475
37.4289
5.4198
37.4461
5.77124
37.4644
6.1189
37.4838
6.46255
37.5043
6.80201
37.526
7.13709
37.5487
7.46763
37.5725
7.79336
37.5972
8.11411
37.6229
8.42978
37.6497
8.74026
37.6773
9.04533
37.706
9.34492
37.7355
9.6389
37.7659
37.7957
9.9274
0.375029
30.5056
0.756215
31.4589
1.14166
32.4951
1.52947
33.5966
1.91782
34.7367
2.30389
35.8775
2.70144
36.7403
3.10567
36.9391
3.50774
36.9588
3.90721
36.9726
4.30381
36.9879
4.69728
37.0046
5.08735
37.0228
5.47378
37.0425
5.85628
37.0635
6.23468
37.086
6.60864
37.1098
6.97805
37.1349
7.3426
37.1614
7.70207
37.1892
8.05642
37.2181
8.40514
37.2484
8.74826
37.2798
9.08564
37.3123
9.41685
37.3461
9.74211
37.3807
10.061
37.4166
10.3734
37.4536
37.4894
10.6797
0.407476
30.0982
0.821578
31.0448
1.2402
32.0765
1.6612
33.1756
2.08254
34.3153
2.50123
35.4589
2.93187
36.3096
3.36847
36.5025
3.80251
36.5247
4.2336
36.5416
4.66139
36.5601
5.0856
36.5804
5.5059
36.6025
5.92199
36.6264
6.33362
36.6519
6.74036
36.6792
7.14221
36.708
7.53856
36.7386
7.92936
36.7706
8.31451
36.8041
8.69318
36.8395
9.06593
36.8757
9.43201
36.9137
9.79097
36.9533
10.1437
36.9934
10.4887
37.0357
10.8263
37.079
11.1571
37.1228
37.1669
11.4796
0.44283
29.6553
0.892863
30.5948
1.34772
31.6216
1.80499
32.7183
2.26233
33.858
2.71649
35.0047
3.18288
35.8432
3.65438
36.031
4.12285
36.0562
4.58785
36.0766
5.04908
36.0989
5.50609
36.1234
5.95861
36.15
6.40631
36.1787
6.84859
36.2096
7.28577
36.2421
7.71649
36.2773
8.14155
36.3135
8.56019
36.352
8.97127
36.393
9.37674
36.434
9.77381
36.4786
10.1633
36.5242
10.5467
36.57
10.9199
36.6202
11.2862
36.6694
11.6451
36.7201
11.9933
36.7746
36.8251
12.3351
0.480479
29.1749
0.968762
30.1065
1.46218
31.1282
1.958
32.2225
2.45357
33.3624
2.94543
34.5128
3.45
35.3387
3.95888
35.5222
4.46413
35.551
4.96543
35.5753
5.46218
35.6021
5.95424
35.6314
6.44095
35.6633
6.92181
35.6978
7.39742
35.734
7.86511
35.7744
8.32786
35.8145
8.7823
35.8591
9.22859
35.9057
9.67003
35.9515
10.0994
36.0046
10.5227
36.0553
10.9389
36.108
11.3411
36.1678
11.7393
36.2219
12.1267
36.282
12.5006
36.3462
12.8708
36.4044
36.4688
13.227
0.52023
28.6546
1.04888
29.5779
1.58297
30.5941
2.11941
31.686
2.65522
32.8266
3.18685
33.9812
3.73175
34.7938
4.28008
34.9738
4.8243
35.0068
5.36361
35.0359
5.89822
35.0675
6.4267
35.1029
6.94932
35.1407
7.4662
35.181
7.97348
35.2267
8.47776
35.2701
8.96949
35.3228
9.45493
35.3736
9.93521
35.4254
10.398
35.4887
10.8603
35.5423
11.3103
35.6054
11.7433
35.675
12.1789
35.7323
12.5943
35.8064
12.9977
35.8787
13.4016
35.9423
13.7815
36.0246
36.0957
14.1546
0.561907
28.0927
1.13287
29.0069
1.70956
30.0174
2.28855
31.107
2.86645
32.2487
3.43971
33.408
4.02682
34.2067
4.61661
34.384
5.20115
34.4222
5.78111
34.456
6.35388
34.4948
6.92164
34.5351
7.4821
34.5802
8.03217
34.6309
8.58172
34.6772
9.1117
34.7401
9.64232
34.7922
10.1625
34.8534
10.6613
34.9266
11.169
34.9811
11.6516
35.0597
12.1211
35.1358
12.5987
35.1974
13.0412
35.2897
13.4814
35.3663
13.9217
35.4384
14.325
35.5389
14.7338
35.6159
35.6988
15.1306
0.605193
27.4875
1.22008
28.392
1.84101
29.3965
2.46412
30.4839
3.0856
31.6272
3.70212
32.7914
4.33314
33.5756
4.96547
33.7517
5.59322
33.7945
6.21263
33.8366
6.8288
33.8786
7.43417
33.9297
8.0313
33.9831
8.62835
34.0338
9.1981
34.1074
9.78038
34.1578
10.3382
34.2343
10.8786
34.3131
11.4352
34.3701
11.9489
34.4674
12.4622
34.5464
12.9812
34.6168
13.4512
34.7274
13.9327
34.8082
14.4066
34.8924
14.8341
35.011
15.2795
35.0935
15.7019
35.1934
35.3113
16.0894
0.649681
26.8379
1.30971
27.732
1.97606
28.7301
2.64446
29.8155
3.31065
30.961
3.97156
32.1305
4.64758
32.8996
5.32505
33.0742
5.99346
33.1261
6.66056
33.1695
7.31185
33.2273
7.96149
33.2801
8.60554
33.3391
9.21886
33.4205
9.8568
33.4695
10.4506
33.564
11.0419
33.643
11.6473
33.7076
12.1953
33.8221
12.7566
33.9061
13.3173
33.9857
13.8202
34.114
14.3446
34.203
14.8588
34.294
15.3152
34.436
15.7997
34.5264
16.2581
34.6352
16.6735
34.778
34.8722
17.1126
0.694871
26.143
1.40073
27.0261
2.11319
28.0177
2.82748
29.1013
3.53882
30.2497
4.24513
31.4242
4.96743
32.1773
5.68752
32.3541
6.40686
32.4068
7.10592
32.4704
7.81283
32.5204
8.50035
32.5926
9.16482
32.6746
9.85925
32.7261
10.4931
32.8356
11.1398
32.9174
11.7922
32.9906
12.3792
33.1206
12.9888
33.2125
13.6019
33.293
14.1382
33.4493
14.7081
33.5441
15.2681
33.643
15.7504
33.8117
16.2823
33.9041
16.7773
34.0314
17.2163
34.1962
17.6986
34.2958
34.4487
18.1221
0.740236
25.4027
1.49209
26.2743
2.25079
27.259
3.01115
28.3409
3.76788
29.493
4.51935
30.6727
5.28752
31.4091
6.05878
31.5829
6.80852
31.657
7.57371
31.7052
8.30207
31.792
9.02938
31.8653
9.77638
31.9276
10.4525
32.05
11.1533
32.1348
11.8629
32.2078
12.488
32.3655
13.1495
32.4591
13.8169
32.5451
14.3795
32.7305
15.0062
32.8226
15.6101
32.9402
16.1215
33.1316
16.7044
33.2287
17.231
33.3776
17.6956
33.5667
18.2153
33.6765
18.6647
33.8463
34.0337
19.0797
0.7851
24.6176
1.5824
25.477
2.38676
26.4546
3.19245
27.5352
3.99345
28.692
4.79096
29.8752
5.60705
30.593
6.41201
30.7779
7.23382
30.8352
8.00687
30.9322
8.80403
30.9949
9.5915
31.0778
10.3161
31.203
11.0796
31.2865
11.8447
31.3696
12.4967
31.5557
13.2292
31.633
13.9543
31.7341
14.548
31.9514
15.2353
32.0432
15.8811
32.1768
16.4314
32.3899
17.0626
32.5004
17.6257
32.6657
18.1323
32.8709
18.6987
33.0003
19.1853
33.1899
19.6378
33.3938
33.5332
20.1384
0.828798
23.7888
1.67036
24.6354
2.5192
25.6058
3.3692
26.6852
4.21393
27.8472
5.05485
29.0343
5.91281
29.7351
6.78615
29.9046
7.60827
30.0131
8.47093
30.0695
9.29826
30.1675
10.0825
30.2935
10.9126
30.3729
11.7107
30.4884
12.412
30.6683
13.2358
30.732
13.996
30.8727
14.6145
31.1156
15.3627
31.2031
16.0709
31.335
16.6688
31.5789
17.3433
31.7155
17.9432
31.9004
18.4956
32.1133
19.1056
32.2609
19.6281
32.4779
20.114
32.704
20.6452
32.8626
33.1181
21.0602
0.870564
22.9183
1.75435
23.7516
2.64555
24.7146
3.53749
25.7933
4.42253
26.9622
5.30777
28.1491
6.22082
28.822
7.09825
29.0272
8.02301
29.0883
8.88814
29.2044
9.73686
29.3188
10.6354
29.395
11.4684
29.5399
12.2482
29.7086
13.1349
29.7816
13.8918
29.9751
14.5775
30.187
15.4138
30.2793
16.1749
30.442
16.7909
30.719
17.5045
30.8652
18.1691
31.0509
18.785
31.2845
19.4359
31.4624
19.9729
31.7239
20.5029
31.9479
21.0692
32.1377
21.5236
32.4082
32.651
21.9908
0.90944
22.0088
1.83253
22.8285
2.76312
23.784
3.69427
24.8621
4.61844
26.038
5.54569
27.2218
6.48031
27.8874
7.46161
28.0459
8.36052
28.1894
9.2844
28.2805
10.2427
28.3605
11.1035
28.5342
11.956
28.6873
12.8879
28.7768
13.6799
28.9896
14.4719
29.1831
15.3687
29.2902
16.1238
29.5242
16.7969
29.769
17.5877
29.9281
18.3181
30.1349
18.9792
30.3899
19.656
30.6076
20.221
30.8975
20.8358
31.1091
21.4463
31.3374
21.932
31.652
22.451
31.8891
32.1775
22.9245
0.944879
21.064
1.90368
21.8697
2.87005
22.8176
3.8366
23.8956
4.79405
25.0806
5.75392
26.262
6.7684
26.873
7.71586
27.0984
8.71365
27.1916
9.70726
27.2869
10.5975
27.4703
11.5445
27.5873
12.5307
27.7011
13.3576
27.9499
14.2336
28.1135
15.1664
28.2503
15.9579
28.4986
16.7299
28.7523
17.585
28.9138
18.3175
29.1957
19.038
29.4144
19.7531
29.6747
20.3963
29.9644
21.0923
30.2015
21.6844
30.517
22.2276
30.7942
22.8058
31.0739
23.2852
31.4097
31.7056
23.7571
0.97576
20.0882
1.9656
20.8799
2.96286
21.8204
3.95983
22.8986
4.94759
24.0928
5.95918
25.2504
6.95653
25.8756
8.0137
26.0412
9.02525
26.1801
9.97803
26.3341
11.0196
26.4287
12.0243
26.5825
12.8946
26.8309
13.8816
26.9629
14.8423
27.1528
15.6541
27.4385
16.5194
27.6333
17.4265
27.8452
18.2061
28.1342
19.0021
28.3997
19.736
28.6805
20.4598
28.9509
21.1991
29.2251
21.8205
29.5801
22.46
29.8775
23.0336
30.2206
23.5688
30.5387
24.0926
30.8859
31.2461
24.552
1.00155
19.0867
2.01722
19.8642
3.04017
20.7974
4.06279
21.876
5.07707
23.0785
6.09283
24.2346
7.18871
24.7797
8.23025
24.9997
9.26438
25.1459
10.3574
25.2411
11.3652
25.421
12.2992
25.6485
13.3736
25.7565
14.3255
26.011
15.2179
26.2604
16.2076
26.4488
17.1219
26.719
17.9613
27.0058
18.8193
27.2762
19.5918
27.6272
20.4092
27.8631
21.1692
28.1909
21.83
28.5643
22.5526
28.8575
23.1571
29.2729
23.7648
29.6128
24.3274
29.9762
24.8557
30.3576
30.7761
25.3257
1.02176
18.0649
2.05746
18.8285
3.10007
19.7548
4.14122
20.8348
5.16846
22.0513
6.25134
23.1517
7.32614
23.7049
8.41876
23.9071
9.53375
24.0309
10.5629
24.2119
11.5849
24.3991
12.728
24.5053
13.6858
24.7987
14.6882
25.0086
15.7236
25.225
16.6417
25.5306
17.5679
25.7929
18.4612
26.1125
19.3423
26.3951
20.2494
26.7202
20.9891
27.1233
21.7259
27.4541
22.5191
27.7711
23.1819
28.1947
23.8423
28.6125
24.4474
29.0077
25.0031
29.4205
25.5247
29.8359
30.3146
25.9862
1.03559
17.0293
2.08479
17.7793
3.1403
18.6993
4.19409
19.781
5.24869
20.9967
6.31643
22.084
7.44955
22.5718
8.57551
22.7811
9.65888
22.9476
10.7737
23.097
11.9237
23.2491
12.894
23.535
13.9854
23.7073
15.0511
23.9429
16.0168
24.2593
17.0201
24.5273
17.9632
24.8498
18.9367
25.1389
19.8487
25.4831
20.664
25.9049
21.5252
26.2621
22.3167
26.6626
23.029
27.0589
23.7776
27.446
24.4373
27.9528
25.0641
28.381
25.6136
28.871
26.1162
29.3333
29.8229
26.6079
1.04301
15.9863
2.09912
16.7232
3.16123
17.6372
4.22063
18.7216
5.26136
19.956
6.38287
20.9625
7.53175
21.4229
8.66583
21.647
9.82078
21.7926
10.9435
21.9743
12.0018
22.1908
13.1533
22.3836
14.2224
22.6383
15.2581
22.9072
16.3346
23.1828
17.3567
23.5051
18.3472
23.8593
19.3117
24.1744
20.1719
24.623
21.1303
24.9466
21.9494
25.443
22.7879
25.8241
23.5774
26.2694
24.2353
26.7881
24.9574
27.2307
25.5756
27.7627
26.1724
28.2742
26.6912
28.8146
29.3727
27.1414
1.0437
14.9426
2.09969
15.6672
3.16038
16.5765
4.21418
17.6678
5.2867
18.8834
6.40006
19.8491
7.55186
20.2711
8.73232
20.4666
9.86636
20.6586
11.0166
20.824
12.1564
21.051
13.2943
21.2457
14.3736
21.559
15.4645
21.8163
16.5256
22.1218
17.5688
22.4619
18.5971
22.831
19.5514
23.2201
20.5295
23.6449
21.4048
24.0713
22.3823
24.4655
23.2003
25.0061
23.9336
25.5361
24.7112
26.0105
25.3614
26.5805
26.0395
27.0847
26.6202
27.6935
27.1633
28.2715
28.9142
27.6217
1.03756
13.905
2.08658
14.6182
3.14024
15.5228
4.18981
16.6183
5.23307
17.8402
6.36992
18.7123
7.56343
19.0776
8.71123
19.3188
9.89906
19.4708
11.0528
19.6703
12.2198
19.884
13.2966
20.1689
14.4659
20.3897
15.5637
20.7184
16.6518
21.0337
17.7084
21.4052
18.784
21.7554
19.7549
22.2492
20.7672
22.6326
21.7671
23.0714
22.565
23.6675
23.4817
24.0894
24.3083
24.7094
25.0364
25.2825
25.7935
25.8233
26.3966
26.4816
27.0179
27.0722
27.5309
27.7585
28.4324
28.0127
1.02455
12.8805
2.05935
13.5834
3.09702
14.4852
4.12047
15.5948
5.18184
16.7788
6.33603
17.5581
7.47542
17.9382
8.6962
18.098
9.87037
18.2966
11.0009
18.5398
12.1642
18.7206
13.3626
18.9705
14.459
19.2933
15.6028
19.5746
16.6849
19.9517
17.8028
20.2873
18.819
20.7392
19.8973
21.1709
20.936
21.5938
21.822
22.1854
22.8388
22.6508
23.6295
23.2987
24.5177
23.8212
25.3575
24.4427
26.0691
25.1118
26.7545
25.7961
27.2924
26.5343
27.8842
27.1667
28.028
28.2886
1.00501
11.8755
2.01884
12.5696
3.03471
13.4693
4.0406
14.5889
5.09954
15.7199
6.20892
16.4487
7.43264
16.7145
8.59501
16.9356
9.73096
17.1606
10.9623
17.3085
12.0981
17.5847
13.2297
17.839
14.4146
18.1085
15.5349
18.4542
16.6872
18.7994
17.7553
19.2192
18.882
19.6125
19.93
20.1229
20.9015
20.6224
21.9704
21.1165
22.8711
21.75
23.8593
22.3106
24.6741
23.0064
25.5017
23.6151
26.2603
24.3532
26.932
25.1244
27.5719
25.8945
28.0425
26.6961
27.4635
28.6069
0.979452
10.896
1.96691
11.5821
2.9529
12.4833
3.93611
13.6057
4.95759
14.6984
6.14742
15.2589
7.27733
15.5846
8.43276
15.7802
9.66973
15.9237
10.7812
16.197
11.9488
16.4171
13.1367
16.6511
14.2636
16.9816
15.4039
17.314
16.5263
17.6769
17.6742
18.0713
18.7098
18.5769
19.8803
18.9525
20.9375
19.5651
21.8952
20.1589
22.9299
20.7154
23.8175
21.423
24.7944
22.0295
25.5738
22.8356
26.3638
23.5633
27.0792
24.4089
27.726
25.2477
28.3197
26.1024
27.0993
28.6839
0.948647
9.94736
1.90326
10.6275
2.85853
11.528
3.79466
12.6696
4.8838
13.6093
5.95878
14.1839
7.12492
14.4185
8.31603
14.5891
9.40662
14.8331
10.6195
14.9842
11.7697
15.2669
12.8685
15.5523
14.0418
15.8082
15.1964
16.1594
16.3656
16.5078
17.4688
16.968
18.6366
17.4091
19.6389
17.9501
20.7463
18.4578
21.8272
19.0779
22.8134
19.7291
23.8619
20.3745
24.7104
21.181
25.6253
21.9207
26.3634
22.8252
27.1486
23.6238
27.7983
24.598
28.3341
25.5666
26.5519
28.8815
0.912781
9.03458
1.83288
9.7074
2.73872
10.6222
3.69669
11.7116
4.67593
12.63
5.82573
13.0341
6.96723
13.277
8.0555
13.5008
9.25308
13.6355
10.3187
13.9185
11.4689
14.1167
12.677
14.3443
13.7805
14.7047
14.9284
15.0115
16.0149
15.4213
17.1847
15.7983
18.2992
16.2946
19.4968
16.7525
20.5211
17.4334
21.5898
18.0092
22.677
18.642
23.6453
19.4061
24.6571
20.1693
25.5112
21.0666
26.3875
21.9488
27.068
22.9433
27.8121
23.854
28.4191
24.9596
26.1163
28.8547
0.874114
8.16047
1.75129
8.83022
2.63483
9.73865
3.50739
10.8391
4.58808
11.5493
5.64913
11.973
6.71305
12.213
7.86128
12.3526
8.90634
12.5904
10.0954
12.7295
11.219
12.993
12.2773
13.286
13.4072
13.5747
14.5412
13.8775
15.7291
14.2334
16.8204
14.707
17.9967
15.1183
19.0502
15.699
20.2594
16.2242
21.3513
16.9173
22.3668
17.6265
23.4307
18.3423
24.3709
19.2291
25.3457
20.0917
26.2102
21.0843
27.0999
22.0536
27.7128
23.2411
28.3464
24.3259
25.6033
28.8594
0.831933
7.32854
1.6733
7.98885
2.48663
8.92533
3.42621
9.89948
4.37137
10.6042
5.42969
10.9147
6.52613
11.1166
7.56414
11.3146
8.69921
11.4554
9.70117
11.7276
10.7923
11.9019
11.9261
12.1522
13.0675
12.4333
14.1756
12.7694
15.2434
13.1656
16.4217
13.5287
17.5316
14.0084
18.7042
14.5264
19.7374
15.191
20.9545
15.7002
22.0449
16.5361
23.1003
17.2869
24.1696
18.1598
25.0992
19.1622
26.0349
20.1486
26.8016
21.287
27.6427
22.3999
28.173
23.7957
25.0367
28.7396
0.789853
6.53868
1.57987
7.19883
2.39118
8.11401
3.22128
9.06938
4.24416
9.58128
5.24545
9.91342
6.2425
10.1195
7.29545
10.2616
8.26562
10.4852
9.42887
10.5643
10.4606
10.8701
11.4787
11.1341
12.5769
11.3352
13.6778
11.6685
14.8169
12.0265
15.8979
12.4477
17.0289
12.8773
18.1169
13.4384
19.3673
13.9406
20.4242
14.6433
21.6686
15.2917
22.6611
16.2944
23.7395
17.0814
24.7899
18.1117
25.7337
19.2048
26.6409
20.3798
27.3334
21.7075
28.0909
23.0381
24.632
28.4957
0.745044
5.79364
1.50178
6.4421
2.23541
7.38037
3.13733
8.16746
4.02434
8.69428
4.99643
8.94133
6.00174
9.11423
6.95003
9.3133
8.04161
9.39362
8.92243
9.6835
9.98248
9.81007
11.0997
10.0168
12.1148
10.3201
13.1572
10.6261
14.2274
10.9563
15.3735
11.3017
16.4793
11.7715
17.6385
12.2792
18.7683
12.8109
19.9277
13.4839
20.9978
14.2216
22.2362
15.056
23.254
16.0636
24.3678
16.9979
25.3679
18.2048
26.2966
19.4511
27.1304
20.8736
27.7697
22.3988
24.0289
28.3727
0.702033
5.09161
1.4024
5.74174
2.1451
6.63767
2.93046
7.38211
3.87081
7.75393
4.78263
8.02951
5.68026
8.2166
6.6793
8.31427
7.55161
8.52131
8.6218
8.6133
9.58229
8.84959
10.5331
9.06598
11.5733
9.27989
12.63
9.56943
13.7164
9.8699
14.7494
10.2686
15.8668
10.6541
16.9806
11.1654
18.1277
11.6637
19.2675
12.3441
20.4352
13.0539
21.5656
13.9256
22.7976
14.8316
23.8606
15.9349
24.9562
17.1091
25.9276
18.4797
26.7848
20.0164
27.5595
21.6241
23.5322
28.0563
0.654853
4.43675
1.31919
5.07741
1.99519
5.96167
2.82518
6.55211
3.63188
6.94723
4.52397
7.13742
5.44082
7.29975
6.28941
7.46568
7.26342
7.54729
8.11508
7.76165
9.10104
7.86363
10.0941
8.07296
11.0458
8.32816
12.0394
8.57579
13.0597
8.84965
14.1386
9.1897
15.1937
9.59908
16.3251
10.0339
17.4015
10.5873
18.5992
11.1465
19.7344
11.9187
20.981
12.679
22.1052
13.7074
23.3464
14.6937
24.3795
16.076
25.4878
17.3714
26.3832
19.121
27.1781
20.8291
22.8838
27.8265
0.607966
3.82879
1.21661
4.46876
1.89415
5.28413
2.626
5.82026
3.46571
6.10752
4.2699
6.33324
5.10872
6.46092
6.0039
6.5705
6.80842
6.74277
7.76365
6.80642
8.62304
7.00424
9.52976
7.16624
10.4818
7.37614
11.4776
7.58
12.4483
7.87891
13.4582
8.17985
14.4927
8.56458
15.5735
8.95307
16.6972
9.46362
17.8267
10.017
19.0211
10.7243
20.2148
11.4853
21.4736
12.4485
22.6371
13.5302
23.8614
14.8517
24.9063
16.3265
25.9769
18.0504
26.7911
20.015
22.2138
27.4611
0.556546
3.27224
1.12491
3.9004
1.75878
4.65025
2.49086
5.08818
3.22602
5.37236
4.0358
5.52345
4.82551
5.67121
5.6091
5.78692
6.49181
5.86006
7.27471
6.02352
8.15473
6.12423
9.03249
6.28848
9.93852
6.47011
10.8414
6.67715
11.8015
6.91875
12.7772
7.20416
13.7925
7.5493
14.8369
7.90866
15.9062
8.39433
17.0343
8.88897
18.2188
9.53978
19.4279
10.2761
20.6841
11.1924
21.9496
12.2648
23.1489
13.6524
24.3599
15.1155
25.418
16.9924
26.3994
19.0336
21.5201
27.0931
0.505031
2.76721
1.02933
3.3761
1.64169
4.03789
2.31561
4.41426
3.04349
4.64448
3.761
4.80594
4.52525
4.90696
5.31218
4.99999
6.05406
5.11817
6.87617
5.20142
7.68905
5.31134
8.50305
5.47449
9.37623
5.59692
10.2346
5.81876
11.1525
6.00089
12.0773
6.27934
13.0595
6.56711
14.0562
6.91193
15.1344
7.31612
16.1923
7.83112
17.383
8.34907
18.5418
9.11728
19.8376
9.89656
21.1169
10.9855
22.4592
12.3101
23.6771
13.8976
24.9203
15.7491
25.9027
18.0512
20.6842
26.7386
0.45438
2.31283
0.941065
2.88942
1.52453
3.45443
2.15664
3.78215
2.83402
3.9671
3.53395
4.10602
4.22671
4.2142
4.94842
4.27828
5.71478
4.35182
6.43768
4.47852
7.21764
4.53138
7.98673
4.7054
8.82026
4.76338
9.62725
5.01176
10.5203
5.1078
11.3734
5.42633
12.3364
5.60406
13.2723
5.97603
14.3256
6.26283
15.3578
6.79889
16.4915
7.21543
17.6719
7.93689
18.9118
8.65659
20.2407
9.65661
21.6271
10.9236
23.0119
12.5128
24.2821
14.479
25.4813
16.852
19.8352
26.3303
0.406581
1.90625
0.862251
2.43375
1.40766
2.90902
2.01009
3.17972
2.64105
3.33613
3.28053
3.46654
3.95814
3.53659
4.64522
3.5912
5.3038
3.69324
6.0381
3.74422
6.75326
3.81622
7.50947
3.94919
8.24871
4.02414
9.04476
4.21572
9.85622
4.29633
10.7022
4.58032
11.6063
4.70004
12.5011
5.0812
13.486
5.27797
14.5072
5.7776
15.5949
6.1278
16.7271
6.80463
17.9887
7.39505
19.2684
8.37688
20.7398
9.45224
22.2138
11.0388
23.6471
13.0457
24.9291
15.57
18.7694
25.9949
0.36216
1.54409
0.787202
2.00871
1.30875
2.38746
1.84894
2.63954
2.47584
2.70923
3.03948
2.90291
3.70869
2.86737
4.30992
2.98998
4.97267
3.03049
5.63171
3.08517
6.32069
3.12724
6.99491
3.27497
7.72638
3.29266
8.463
3.4791
9.22901
3.53033
10.0236
3.7857
10.872
3.8517
11.7373
4.21591
12.6713
4.34396
13.6389
4.80994
14.7004
5.06629
15.8027
5.70233
17.0174
6.18044
18.302
7.09227
19.7589
7.99534
21.2679
9.52977
22.9369
11.3767
24.4085
14.0984
17.5167
25.6612
0.322935
1.22115
0.723078
1.60856
1.20623
1.90431
1.71559
2.13017
2.30042
2.1244
2.81475
2.38857
3.45606
2.22607
3.99734
2.44869
4.65306
2.37477
5.24222
2.49601
5.89704
2.47242
6.52065
2.65137
7.21887
2.59444
7.9006
2.79737
8.63713
2.7938
9.37383
3.049
10.1588
3.06675
10.9765
3.39816
11.8616
3.45888
12.7875
3.88409
13.803
4.05071
14.8592
4.64619
16.0629
4.97671
17.2842
5.87097
18.7904
6.48918
20.2654
8.05472
22.1885
9.45355
23.7591
12.5278
15.8889
25.387
0.291245
0.929908
0.663361
1.23645
1.11435
1.45333
1.58251
1.662
2.1337
1.57322
2.60439
1.91788
3.21207
1.61839
3.7023
1.95847
4.32814
1.74894
4.85385
1.9703
5.48646
1.8398
6.06107
2.07676
6.73543
1.92009
7.33898
2.19382
8.04629
2.08648
8.7086
2.38669
9.47443
2.30092
10.2147
2.65784
11.0903
2.58334
11.9217
3.05269
12.9336
3.03883
13.8917
3.68802
15.1145
3.75395
16.2789
4.70657
17.8056
4.96252
19.3315
6.52879
21.3309
7.45417
23.2086
10.65
13.9318
25.1657
0.263957
0.665951
0.611393
0.889013
1.02272
1.042
1.46888
1.21584
1.96788
1.07422
2.4165
1.46926
2.97058
1.0643
3.44363
1.48542
4.0084
1.18417
4.51948
1.45922
5.09345
1.26583
5.64024
1.52997
6.22516
1.33517
6.83973
1.57925
7.45012
1.47609
8.14068
1.69614
8.81049
1.63111
9.58909
1.87925
10.3322
1.84022
11.216
2.16892
12.0734
2.18139
13.1206
2.64085
14.1601
2.71447
15.4617
3.40495
16.7912
3.63302
18.5371
4.78289
20.3984
5.59291
22.9591
8.08925
11.3442
25.5467
0.240951
0.425001
0.564023
0.565941
0.935261
0.670765
1.37576
0.775335
1.78117
0.668813
2.2853
0.965129
2.70332
0.646285
3.23388
0.954854
3.68241
0.73564
4.21544
0.926186
4.6918
0.78947
5.27634
0.945434
5.76268
0.848829
6.36961
0.972318
6.90409
0.941604
7.54944
1.05079
8.14065
1.0399
8.84497
1.17493
9.50858
1.1766
10.3114
1.36609
11.0977
1.3951
12.0662
1.67232
13.0421
1.73863
14.2757
2.17132
15.5675
2.34123
17.2688
3.08155
19.2174
3.64435
22.2502
5.05644
7.89969
25.6947
0.221522
0.203479
0.519187
0.268275
0.868125
0.321828
1.27967
0.36379
1.62682
0.321662
2.12765
0.4643
2.47565
0.29829
2.98821
0.442293
3.38537
0.338478
3.87178
0.439771
4.29832
0.362929
4.79835
0.445412
5.24748
0.399698
5.75786
0.461936
6.25611
0.44335
6.80832
0.498582
7.35804
0.490177
7.97309
0.559886
8.59453
0.555158
9.3073
0.653318
10.0449
0.657486
10.9151
0.802136
11.836
0.817776
12.9602
1.04708
14.2009
1.10056
15.7852
1.4972
17.6795
1.75011
20.77
1.96594
4.29289
24.3768
0.203479
0.471754
0.793581
1.15737
1.47903
1.94333
2.24162
2.68392
3.02239
3.46217
3.82509
4.27051
4.6702
5.13214
5.57549
6.07407
6.56425
7.12414
7.67929
8.33261
8.9901
9.79223
10.61
11.6571
12.7576
14.2548
16.005
17.9709
22.2638
1.105
54.1223
1.12191
54.1233
1.13813
54.124
1.15367
54.1247
1.16856
54.1253
1.18281
54.126
1.19643
54.1266
1.20944
54.1272
1.22184
54.1278
1.23364
54.1284
1.24486
54.129
1.2555
54.1296
1.26556
54.1302
1.27507
54.1307
1.28401
54.1313
1.29239
54.1319
1.30022
54.1324
1.3075
54.133
1.31424
54.1335
1.32042
54.134
1.32607
54.1346
1.33116
54.1351
1.33571
54.1357
1.33972
54.1362
1.34318
54.1368
1.3461
54.1373
1.34848
54.1379
1.35032
54.1384
1.35162
54.1389
1.35237
54.1395
1.35259
54.14
1.35228
54.1406
1.35143
54.1411
1.35006
54.1416
1.34814
54.1421
1.34569
54.1427
1.34271
54.1432
1.33919
54.1438
1.33514
54.1443
1.33055
54.1448
1.32543
54.1454
1.31978
54.1459
1.31361
54.1464
1.3069
54.1469
1.29967
54.1475
1.29192
54.148
1.28365
54.1485
1.27485
54.149
1.26555
54.1495
1.25573
54.1501
1.24539
54.1506
1.23455
54.1511
1.2232
54.1516
1.21135
54.1521
1.19901
54.1526
1.1862
54.1531
1.1729
54.1535
1.15916
54.154
1.14497
54.1544
1.13039
54.1548
1.11544
54.1552
1.10015
54.1555
1.0845
54.1559
1.06853
54.1562
1.05222
54.1565
1.0356
54.1569
1.01866
54.1572
1.00144
54.1575
0.983921
54.1578
0.966134
54.158
0.948084
54.1583
0.92979
54.1585
0.911261
54.1588
0.892517
54.159
0.873569
54.1592
0.854428
54.1594
0.835118
54.1595
0.815647
54.1597
0.796036
54.1598
0.776296
54.16
0.756444
54.1601
0.73649
54.1602
0.716456
54.1603
0.696356
54.1603
0.676209
54.1604
0.656028
54.1604
0.635837
54.1604
0.61565
54.1604
0.595486
54.1604
0.575366
54.1604
0.555313
54.1603
0.535344
54.1602
0.515486
54.1601
0.495755
54.16
0.476182
54.1598
0.456782
54.1596
0.437588
54.1594
0.418619
54.1592
0.399905
54.1589
0.381473
54.1587
0.363347
54.1584
0.345566
54.158
0.328157
54.1576
0.311175
54.1572
0.294659
54.1568
0.278652
54.1562
0.263186
54.1557
0.2483
54.1551
0.234013
54.1545
0.220337
54.1539
0.207239
54.1533
0.194639
54.1528
0.182457
54.1524
0.170637
54.1521
0.15908
54.1518
0.147681
54.1516
0.136331
54.1516
0.124988
54.1516
0.113444
54.1518
0.101435
54.1522
0.0887267
54.1529
0.075139
54.1538
0.0605031
54.1549
0.0446674