/*--------------------------------*- C++ -*----------------------------------*\
| =========                 |                                                 |
| \\      /  F ield         | OpenFOAM: The Open Source CFD Toolbox           |
|  \\    /   O peration     | Version:  5.x                                   |
|   \\  /    A nd           | Web:      www.OpenFOAM.org                      |
|    \\/     M anipulation  |                                                 |
\*---------------------------------------------------------------------------*/
/*   Windows 32 and 64 bit porting by blueCAPE: http://www.bluecape.com.pt   *\
|  Based on Windows porting (2.0.x v4) by Symscape: http://www.symscape.com   |
\*---------------------------------------------------------------------------*/
FoamFile
{
    version     2.0;
    format      ascii;
    class       volVectorField;
    location    "80";
    object      U;
}
// * * * * * * * * * * * * * * * * * * * * * * * * * * * * * * * * * * * * * //

dimensions      [0 1 -1 0 0 0 0];

internalField   nonuniform List<vector> 
43900
(
(1.16074 -0.00028959 -2.18625e-027)
(1.16821 0.00163089 -5.86877e-027)
(1.16956 0.000311509 2.24631e-030)
(1.1695 0.00161178 2.34441e-030)
(1.16994 0.00083176 3.06699e-030)
(1.17004 0.00153429 3.34712e-030)
(1.17006 0.00127163 7.83128e-027)
(1.17018 0.0014915 -1.56521e-026)
(1.1702 0.00157381 8.03057e-030)
(1.17027 0.00159545 -1.56295e-026)
(1.17032 0.00167559 1.56482e-026)
(1.17036 0.00173181 9.41732e-030)
(1.17039 0.00178577 -1.5603e-026)
(1.17042 0.00183694 2.03169e-029)
(1.17045 0.00188547 2.10276e-029)
(1.17047 0.00193155 2.17313e-029)
(1.17049 0.00197566 -3.1127e-026)
(1.1705 0.00201791 4.63419e-029)
(1.1705 0.00205897 3.11565e-026)
(1.1705 0.0021004 2.4405e-029)
(1.1705 0.00213978 2.47968e-029)
(1.1705 0.0021772 2.51381e-029)
(1.1705 0.00221417 2.54663e-029)
(1.1705 0.00224989 2.57823e-029)
(1.1705 0.00228438 2.6088e-029)
(1.1705 0.00231796 -3.09057e-026)
(1.1705 0.0023505 5.33405e-029)
(1.1705 0.00238197 5.3893e-029)
(1.1705 0.00241316 1.23458e-025)
(1.16052 0.00679249 0)
(1.16563 -0.00180216 0)
(1.1681 0.00529992 0)
(1.16549 0.00119369 0)
(1.16722 0.00383867 0)
(1.16662 0.00319636 0)
(1.1669 0.00338297 0)
(1.1669 0.0042206 0)
(1.16704 0.00383803 0)
(1.16707 0.00439642 0)
(1.16711 0.00451953 0)
(1.16715 0.0047091 0)
(1.16718 0.00489162 0)
(1.16721 0.00506254 0)
(1.16723 0.00522223 0)
(1.16725 0.00537266 0)
(1.16727 0.00551395 0)
(1.1673 0.00564737 0)
(1.16732 0.00577255 0)
(1.16735 0.00588872 0)
(1.16738 0.00599874 0)
(1.1674 0.00610462 0)
(1.16742 0.00620329 0)
(1.16745 0.00629758 0)
(1.16747 0.0063872 0)
(1.16749 0.00647296 0)
(1.16751 0.00655483 0)
(1.16753 0.00663259 0)
(1.16755 0.0067067 0)
(1.11644 0.0268658 0)
(1.15422 -0.0140828 0)
(1.16685 0.023308 0)
(1.16383 -0.00337947 0)
(1.16634 0.0157225 0)
(1.16454 0.00304078 0)
(1.16609 0.0109405 0)
(1.16538 0.00661356 0)
(1.16574 0.00876483 0)
(1.1659 0.00818507 0)
(1.16607 0.00833301 0)
(1.16624 0.00848668 0)
(1.1664 0.00861196 0)
(1.16655 0.00873329 0)
(1.16669 0.00885584 0)
(1.16682 0.00897846 0)
(1.16694 0.00910044 0)
(1.16705 0.00922094 0)
(1.16716 0.00934018 0)
(1.16726 0.00945873 0)
(1.16735 0.00957555 0)
(1.16744 0.00969087 0)
(1.16752 0.00980487 0)
(1.16759 0.00991722 0)
(1.16766 0.0100288 0)
(1.16773 0.010139 0)
(1.16779 0.0102478 0)
(1.16785 0.0103555 0)
(1.1679 0.010462 2.15964e-027)
(1.05169 0.023883 0)
(1.10488 -0.0102667 0)
(1.14828 0.0236638 0)
(1.16346 0.00359098 0)
(1.16435 0.0210818 0)
(1.16523 0.00761885 0)
(1.16522 0.017595 0)
(1.16579 0.0111028 0)
(1.16614 0.0147831 0)
(1.16621 0.0131667 0)
(1.16635 0.013595 0)
(1.16649 0.013627 0)
(1.1666 0.0136526 0)
(1.16671 0.0136941 0)
(1.16683 0.0137515 0)
(1.16695 0.0138215 0)
(1.16707 0.013904 0)
(1.16719 0.0139986 0)
(1.1673 0.0141049 0)
(1.1674 0.0142211 0)
(1.1675 0.0143468 0)
(1.16759 0.0144796 0)
(1.16768 0.0146192 0)
(1.16777 0.0147633 0)
(1.16786 0.0149119 0)
(1.16794 0.0150626 0)
(1.16802 0.0152173 0)
(1.1681 0.0153743 0)
(1.16818 0.0155294 2.29199e-027)
(1.01452 0.0110998 4.65775e-027)
(1.05507 -0.00210641 0)
(1.09835 0.0120784 0)
(1.14022 0.010866 0)
(1.1606 0.0180958 0)
(1.16434 0.0122549 0)
(1.16401 0.0180092 0)
(1.16407 0.0138844 0)
(1.16412 0.0166037 0)
(1.1643 0.01538 0)
(1.16448 0.0158887 0)
(1.16463 0.0159625 0)
(1.16476 0.016032 0)
(1.16486 0.0161278 0)
(1.16494 0.0162343 0)
(1.165 0.0163489 0)
(1.16503 0.0164714 0)
(1.16503 0.0166032 0)
(1.16503 0.0167429 0)
(1.16504 0.0168896 0)
(1.16505 0.0170435 0)
(1.16508 0.0172029 0)
(1.16511 0.0173685 0)
(1.16514 0.0175406 0)
(1.16518 0.0177181 0)
(1.16522 0.0178987 0)
(1.16526 0.0180794 0)
(1.16531 0.0182661 0)
(1.16536 0.0184589 -9.67646e-027)
(0.989003 0.00569065 -4.87162e-027)
(1.02371 0.000163249 0)
(1.06061 0.00653107 0)
(1.09903 0.00886145 0)
(1.13727 0.012916 0)
(1.1596 0.0123042 0)
(1.16328 0.0160927 0)
(1.16318 0.0129259 0)
(1.16287 0.0153644 0)
(1.16265 0.0143406 0)
(1.16235 0.0149785 0)
(1.16205 0.0151698 0)
(1.16179 0.0153986 0)
(1.16156 0.0156651 0)
(1.16134 0.015939 0)
(1.16115 0.0162193 0)
(1.16099 0.0165037 0)
(1.16088 0.0167899 0)
(1.16079 0.0170761 0)
(1.16071 0.0173627 0)
(1.16064 0.0176508 0)
(1.16059 0.0179379 0)
(1.16055 0.0182271 0)
(1.16051 0.0185171 0)
(1.16049 0.0188081 0)
(1.16047 0.0191031 0)
(1.16047 0.0193974 0)
(1.16048 0.0196911 0)
(1.1605 0.0199875 5.12257e-027)
(0.974125 0.00304991 0)
(1.00581 0.000655076 0)
(1.03961 0.00385442 0)
(1.0751 0.00566326 0)
(1.11101 0.00781523 0)
(1.14493 0.00937823 0)
(1.1593 0.0117798 0)
(1.16028 0.0105545 0)
(1.15975 0.0123874 0)
(1.15938 0.0121346 0)
(1.15909 0.0129538 0)
(1.15882 0.0134565 0)
(1.15859 0.0139825 0)
(1.1584 0.0145199 0)
(1.15823 0.0150495 0)
(1.15808 0.015574 0)
(1.15796 0.016093 0)
(1.15786 0.016607 0)
(1.15777 0.0171168 0)
(1.1577 0.0176214 0)
(1.15764 0.018123 0)
(1.15759 0.0186175 0)
(1.15756 0.01911 0)
(1.15753 0.0195962 0)
(1.15752 0.0200761 0)
(1.15752 0.0205525 0)
(1.15753 0.0210255 0)
(1.15755 0.0214901 0)
(1.15758 0.0219488 0)
(0.964117 0.00164636 0)
(0.994336 0.00115701 0)
(1.02671 0.00295794 0)
(1.06078 0.00443247 0)
(1.09557 0.00593336 0)
(1.12949 0.00742266 0)
(1.15193 0.00929334 0)
(1.15567 0.00940665 0)
(1.15548 0.0107271 0)
(1.1553 0.0111164 0)
(1.15511 0.0119921 0)
(1.15494 0.0126928 0)
(1.15479 0.0134144 0)
(1.15466 0.0141304 0)
(1.15456 0.0148375 0)
(1.15448 0.0155383 0)
(1.15442 0.0162327 0)
(1.15437 0.0169205 0)
(1.15434 0.0176023 0)
(1.15433 0.0182766 0)
(1.15434 0.0189448 0)
(1.15435 0.0196039 0)
(1.15438 0.0202583 0)
(1.15442 0.0209038 0)
(1.15448 0.0215405 0)
(1.15455 0.022168 0)
(1.15464 0.0227889 0)
(1.15473 0.0234001 0)
(1.15484 0.0240028 0)
(0.954191 0.00107552 0)
(0.983694 0.00146348 0)
(1.0154 0.00284341 0)
(1.04878 0.00418654 0)
(1.08296 0.00551693 0)
(1.11656 0.00684349 0)
(1.14184 0.00838319 0)
(1.14736 0.00906179 0)
(1.14738 0.0101564 0)
(1.14733 0.0108728 0)
(1.14728 0.0118031 0)
(1.14727 0.0126514 0)
(1.14727 0.0135049 0)
(1.14729 0.0143474 0)
(1.14731 0.0151799 0)
(1.14735 0.0160032 0)
(1.14741 0.0168176 0)
(1.14747 0.0176227 0)
(1.14755 0.0184189 0)
(1.14764 0.0192059 0)
(1.14775 0.0199834 0)
(1.14785 0.0207515 0)
(1.14797 0.0215124 0)
(1.14811 0.0222631 0)
(1.14826 0.0230047 0)
(1.14843 0.0237354 0)
(1.1486 0.0244572 0)
(1.14879 0.025169 0)
(1.14898 0.0258734 0)
(0.945212 0.000809171 0)
(0.974199 0.00146578 0)
(1.00541 0.00265093 0)
(1.03835 0.00384529 0)
(1.0722 0.00502664 0)
(1.10557 0.00619991 0)
(1.1316 0.00756855 0)
(1.13775 0.0085787 0)
(1.13789 0.00966863 0)
(1.13788 0.0106325 0)
(1.13789 0.0116834 0)
(1.13792 0.0126933 0)
(1.13798 0.0136978 0)
(1.13805 0.0146891 0)
(1.13814 0.0156685 0)
(1.13825 0.0166358 0)
(1.13837 0.0175912 0)
(1.13851 0.0185345 0)
(1.13867 0.0194656 0)
(1.13885 0.020385 0)
(1.13905 0.0212917 0)
(1.13923 0.0221865 0)
(1.13944 0.0230692 0)
(1.13968 0.0239394 0)
(1.13993 0.0247974 0)
(1.1402 0.0256423 0)
(1.14048 0.0264746 0)
(1.14077 0.0272935 0)
(1.14108 0.0281001 -1.33005e-026)
(0.937297 0.000473973 0)
(0.96603 0.00155924 0)
(0.996968 0.00268721 0)
(1.02961 0.00380993 0)
(1.06319 0.00493211 0)
(1.09638 0.00605565 0)
(1.12258 0.00738548 0)
(1.12895 0.00859432 0)
(1.12922 0.00974994 0)
(1.12931 0.0108916 0)
(1.12941 0.0120695 0)
(1.12954 0.0132247 0)
(1.12968 0.0143702 0)
(1.12984 0.0155027 0)
(1.13001 0.0166228 0)
(1.13021 0.01773 0)
(1.13042 0.0188243 0)
(1.13065 0.0199054 0)
(1.1309 0.0209731 0)
(1.13117 0.0220274 0)
(1.13146 0.0230681 0)
(1.13174 0.0240946 0)
(1.13205 0.025106 0)
(1.13238 0.026103 0)
(1.13273 0.0270855 0)
(1.1331 0.0280532 0)
(1.13348 0.0290055 0)
(1.13388 0.0299428 0)
(1.1343 0.0308631 1.40487e-026)
(0.929118 0.000402949 0)
(0.95767 0.00180678 0)
(0.988479 0.00303869 0)
(1.02103 0.00425796 0)
(1.05451 0.00547894 0)
(1.0876 0.00668837 0)
(1.11364 0.0080967 0)
(1.12003 0.00944505 0)
(1.1204 0.0106899 0)
(1.12059 0.0119712 0)
(1.12079 0.0132738 0)
(1.12101 0.0145633 0)
(1.12125 0.0158434 0)
(1.12151 0.0171125 0)
(1.12179 0.01837 0)
(1.12209 0.0196153 0)
(1.12241 0.0208479 0)
(1.12275 0.0220672 0)
(1.12311 0.0232727 0)
(1.12349 0.0244636 0)
(1.12389 0.0256402 0)
(1.12429 0.0268011 0)
(1.12472 0.0279451 0)
(1.12517 0.029073 0)
(1.12565 0.0301842 0)
(1.12614 0.0312787 0)
(1.12665 0.0323554 0)
(1.12717 0.0334153 0)
(1.12772 0.034456 1.52703e-026)
(0.920146 0.000455046 0)
(0.948526 0.00208595 0)
(0.979202 0.00349749 0)
(1.01166 0.00489281 0)
(1.04511 0.0062867 0)
(1.07823 0.00765906 0)
(1.10399 0.00923813 0)
(1.11017 0.0107504 0)
(1.1106 0.0121377 0)
(1.11085 0.0135853 0)
(1.11112 0.0150484 0)
(1.11141 0.0165006 0)
(1.11174 0.0179426 0)
(1.11209 0.019373 0)
(1.11246 0.0207912 0)
(1.11286 0.0221963 0)
(1.11328 0.0235876 0)
(1.11372 0.0249641 0)
(1.1142 0.0263254 0)
(1.11469 0.0276703 0)
(1.11521 0.0289989 0)
(1.11574 0.0303097 0)
(1.1163 0.0316015 0)
(1.11688 0.0328748 0)
(1.11749 0.0341285 0)
(1.11812 0.0353627 0)
(1.11877 0.0365762 0)
(1.11944 0.0377694 0)
(1.12013 0.038942 -1.61355e-026)
(0.910394 0.000524858 0)
(0.938609 0.00238454 0)
(0.969161 0.0039974 0)
(1.00154 0.00558933 0)
(1.03495 0.00717589 0)
(1.06811 0.00874095 0)
(1.09352 0.0105414 0)
(1.09946 0.0122627 0)
(1.09993 0.0138428 0)
(1.10023 0.0154965 0)
(1.10056 0.017163 0)
(1.10093 0.0188172 0)
(1.10133 0.0204586 0)
(1.10176 0.0220862 0)
(1.10223 0.023699 0)
(1.10272 0.0252959 0)
(1.10325 0.0268763 0)
(1.1038 0.0284389 0)
(1.10439 0.0299831 0)
(1.105 0.0315079 0)
(1.10565 0.0330127 0)
(1.10632 0.0344963 0)
(1.10701 0.0359577 0)
(1.10774 0.0373962 0)
(1.10849 0.0388118 0)
(1.10927 0.0402035 0)
(1.11007 0.0415699 0)
(1.1109 0.0429119 0)
(1.11175 0.0442293 -1.76521e-026)
(0.899862 0.000608896 0)
(0.927904 0.00272745 0)
(0.958333 0.00457394 0)
(0.990642 0.00639443 0)
(1.02403 0.00820505 0)
(1.05722 0.00999627 0)
(1.08228 0.0120581 0)
(1.088 0.0140189 0)
(1.08853 0.0158251 0)
(1.0889 0.0177161 0)
(1.08931 0.0196185 0)
(1.08976 0.0215064 0)
(1.09025 0.0233785 0)
(1.09078 0.0252339 0)
(1.09135 0.0270711 0)
(1.09196 0.0288893 0)
(1.0926 0.030687 0)
(1.09328 0.0324631 0)
(1.094 0.0342173 0)
(1.09475 0.0359469 0)
(1.09554 0.0376528 0)
(1.09636 0.0393332 0)
(1.09721 0.0409856 0)
(1.0981 0.0426125 0)
(1.09901 0.04421 0)
(1.09996 0.0457781 0)
(1.10094 0.0473187 0)
(1.10194 0.0488257 0)
(1.10298 0.0503056 1.86596e-026)
(0.888434 0.000710068 0)
(0.91629 0.00313 0)
(0.946591 0.00525254 0)
(0.978831 0.00734368 0)
(1.0122 0.00941963 0)
(1.04544 0.0114789 0)
(1.07014 0.0138454 0)
(1.07569 0.016076 0)
(1.07628 0.0181398 0)
(1.07673 0.0202996 0)
(1.07724 0.0224698 0)
(1.07779 0.0246222 0)
(1.07839 0.0267558 0)
(1.07903 0.0288683 0)
(1.07973 0.0309599 0)
(1.08047 0.0330269 0)
(1.08125 0.0350697 0)
(1.08208 0.0370868 0)
(1.08295 0.0390742 0)
(1.08387 0.0410357 0)
(1.08482 0.0429655 0)
(1.08582 0.0448622 0)
(1.08685 0.0467318 0)
(1.08792 0.0485612 0)
(1.08904 0.0503592 0)
(1.09017 0.0521253 0)
(1.09136 0.0538454 0)
(1.09258 0.0555364 0)
(1.09381 0.0571898 0)
(0.876007 0.000827181 0)
(0.903661 0.00359414 0)
(0.933825 0.00603525 0)
(0.965995 0.00843881 0)
(0.999352 0.0108206 0)
(1.03266 0.0131903 0)
(1.05699 0.0159067 0)
(1.06237 0.0184429 0)
(1.06305 0.0208023 0)
(1.0636 0.0232685 0)
(1.06421 0.0257436 0)
(1.06487 0.028197 0)
(1.0656 0.0306262 0)
(1.06638 0.0330324 0)
(1.06721 0.0354083 0)
(1.06811 0.0377591 0)
(1.06905 0.0400782 0)
(1.07006 0.0423618 0)
(1.07111 0.04462 0)
(1.0722 0.0468339 0)
(1.07337 0.0490138 0)
(1.07455 0.0511654 0)
(1.0758 0.0532572 0)
(1.07711 0.0553276 0)
(1.0784 0.0573534 0)
(1.07981 0.0593161 0)
(1.08122 0.0612687 0)
(1.08264 0.0631499 0)
(1.08417 0.064991 0)
(0.862508 0.00096041 0)
(0.889943 0.00412214 0)
(0.919961 0.00692514 0)
(0.952059 0.00968347 0)
(0.985412 0.012412 0)
(1.01879 0.0151357 0)
(1.04274 0.0182489 0)
(1.04799 0.0211313 0)
(1.04876 0.0238272 0)
(1.04942 0.0266432 0)
(1.05015 0.0294639 0)
(1.05095 0.0322576 0)
(1.05182 0.0350257 0)
(1.05275 0.0377555 0)
(1.05377 0.0404634 0)
(1.05481 0.0431259 0)
(1.05599 0.0457529 0)
(1.05715 0.0483533 0)
(1.05841 0.0508882 0)
(1.05977 0.0534005 0)
(1.06106 0.0558725 0)
(1.06257 0.0582581 0)
(1.06405 0.0606546 0)
(1.06549 0.0629627 0)
(1.06721 0.0652003 0)
(1.06877 0.0674645 0)
(1.07041 0.0695794 0)
(1.07227 0.0716875 0)
(1.07391 0.0737714 0)
(0.847876 0.00111141 5.38058e-026)
(0.875074 0.00471952 0)
(0.904937 0.00793139 0)
(0.936964 0.0110904 0)
(0.970322 0.0142097 0)
(1.0038 0.0173354 0)
(1.02735 0.0208966 0)
(1.03248 0.0241654 0)
(1.03338 0.0272467 0)
(1.03416 0.0304527 0)
(1.03504 0.0336666 0)
(1.03598 0.0368459 0)
(1.03702 0.0399819 0)
(1.03815 0.0431013 0)
(1.0393 0.0461504 0)
(1.04067 0.0491803 0)
(1.0419 0.0521666 0)
(1.0434 0.0550673 0)
(1.04494 0.0579721 0)
(1.04632 0.0607996 0)
(1.0482 0.0635219 0)
(1.04975 0.0663119 0)
(1.05143 0.0689133 0)
(1.05356 0.0714856 0)
(1.0551 0.0741222 0)
(1.05716 0.0764573 0)
(1.05936 0.0789394 0)
(1.06103 0.081298 0)
(1.06337 0.0834705 0)
(0.83205 0.00128183 1.82221e-027)
(0.858993 0.00539235 0)
(0.888692 0.00906413 0)
(0.92065 0.0126737 0)
(0.954025 0.0162316 0)
(0.987605 0.019813 0)
(1.01075 0.0238728 0)
(1.01581 0.0275811 0)
(1.01683 0.0310828 0)
(1.01778 0.0347454 0)
(1.01878 0.0383855 0)
(1.01995 0.0419941 0)
(1.02116 0.0455766 0)
(1.02243 0.049065 0)
(1.02402 0.0525683 0)
(1.02525 0.0559776 0)
(1.02715 0.059312 0)
(1.0287 0.062668 0)
(1.03027 0.0658922 0)
(1.03265 0.0690086 0)
(1.03399 0.0722676 0)
(1.03623 0.0751679 0)
(1.03869 0.0781678 0)
(1.04004 0.0812314 0)
(1.04291 0.0837719 0)
(1.0452 0.0867772 0)
(1.04686 0.089385 0)
(1.05009 0.0918324 0)
(1.05219 0.0946013 0)
(0.814978 0.00147272 -6.22746e-026)
(0.841646 0.00614591 0)
(0.871173 0.0103319 0)
(0.903065 0.0144451 0)
(0.93647 0.0184926 0)
(0.970171 0.0225844 0)
(0.99291 0.0272107 0)
(0.997897 0.0313807 0)
(0.999107 0.0354008 0)
(1.00016 0.039512 0)
(1.00146 0.0436813 0)
(1.0027 0.0477603 0)
(1.00417 0.0517718 0)
(1.00592 0.0558045 0)
(1.0071 0.0596864 0)
(1.00961 0.0635377 0)
(1.01083 0.0673836 0)
(1.01294 0.0710735 0)
(1.01572 0.0746201 0)
(1.01663 0.0784537 0)
(1.01997 0.0816342 0)
(1.02227 0.0851735 0)
(1.02359 0.0887144 0)
(1.02768 0.0914111 0)
(1.02944 0.0951311 0)
(1.03156 0.0978737 0)
(1.03582 0.100704 0)
(1.03733 0.103975 0)
(1.04035 0.106298 0)
(0.796618 0.00168469 0)
(0.822992 0.0069847 0)
(0.852338 0.0117417 0)
(0.884167 0.016414 0)
(0.917619 0.0210036 0)
(0.951454 0.0256756 0)
(0.973754 0.0308938 0)
(0.978765 0.035653 0)
(0.980045 0.0401141 0)
(0.981495 0.0449086 0)
(0.98269 0.0494935 0)
(0.984478 0.0541695 0)
(0.986197 0.0587312 0)
(0.987463 0.0632024 0)
(0.990646 0.0676034 0)
(0.991163 0.0720166 0)
(0.994495 0.0762564 0)
(0.997043 0.0802387 0)
(0.997749 0.0848566 0)
(1.00258 0.0881781 0)
(1.00395 0.092487 0)
(1.00599 0.0965296 0)
(1.01112 0.0992926 0)
(1.01198 0.104075 0)
(1.01533 0.106759 0)
(1.02014 0.110151 0)
(1.02106 0.11408 0)
(1.02548 0.116363 0)
(1.02957 0.119979 0)
(0.776941 0.0019178 -7.71088e-026)
(0.803002 0.00791216 0)
(0.832159 0.0132984 0)
(0.86393 0.018587 0)
(0.897447 0.023775 0)
(0.931421 0.0290707 0)
(0.953316 0.0350273 0)
(0.958213 0.040228 0)
(0.959983 0.0455436 0)
(0.961092 0.0506045 0)
(0.963327 0.0561362 0)
(0.964683 0.0611446 0)
(0.966455 0.0664347 0)
(0.97001 0.0712918 0)
(0.969784 0.07655 0)
(0.974862 0.0812466 0)
(0.976192 0.0857904 0)
(0.977605 0.0913822 0)
(0.983585 0.0945547 0)
(0.983801 0.100195 0)
(0.98737 0.104482 0)
(0.992689 0.107399 0)
(0.993152 0.11365 0)
(0.997772 0.1158 0)
(1.00263 0.120216 0)
(1.00368 0.124814 0)
(1.00909 0.126864 0)
(1.01324 0.131572 0)
(1.0151 0.134475 7.0266e-026)
(0.755935 0.00217168 -2.74246e-027)
(0.781664 0.00893112 0)
(0.810623 0.0150059 0)
(0.842342 0.0209684 0)
(0.875949 0.026807 0)
(0.910074 0.0328477 0)
(0.931428 0.0393948 0)
(0.936664 0.045567 0)
(0.937932 0.0509781 0)
(0.940613 0.057481 0)
(0.941332 0.0628426 0)
(0.944244 0.0692588 0)
(0.947326 0.0744031 0)
(0.946885 0.0809304 0)
(0.953527 0.0856226 0)
(0.953275 0.0913905 0)
(0.956487 0.0976863 0)
(0.9626 0.100797 0)
(0.962249 0.108206 0)
(0.967003 0.112119 0)
(0.972246 0.115866 0)
(0.973106 0.123451 0)
(0.978465 0.124901 0)
(0.983584 0.130881 0)
(0.984946 0.135777 0)
(0.991108 0.137751 0)
(0.995667 0.143762 0)
(0.997903 0.146475 0)
(1.00478 0.149925 1.42136e-027)
(0.733602 0.00244488 8.95954e-026)
(0.75898 0.0100419 0)
(0.787736 0.0168631 0)
(0.81941 0.0235573 0)
(0.853125 0.03011 0)
(0.887372 0.0368526 0)
(0.90844 0.044481 0)
(0.913044 0.0507063 0)
(0.916188 0.0579528 0)
(0.916313 0.0637151 0)
(0.920739 0.071468 0)
(0.922156 0.076799 0)
(0.922786 0.0847568 0)
(0.930386 0.0893635 0)
(0.928902 0.0970481 0)
(0.93369 0.103157 0)
(0.939364 0.106955 0)
(0.939131 0.116215 0)
(0.944703 0.119484 0)
(0.950391 0.124782 0)
(0.95148 0.133039 0)
(0.957254 0.134413 0)
(0.963016 0.141919 0)
(0.964603 0.147006 0)
(0.971383 0.149197 0)
(0.976799 0.156598 0)
(0.979302 0.159368 0)
(0.9867 0.163206 0)
(0.991097 0.168201 -8.04228e-026)
(0.709967 0.0027352 0)
(0.734978 0.0112443 0)
(0.763524 0.0188682 0)
(0.795162 0.0263481 0)
(0.829025 0.0336546 0)
(0.863423 0.0413865 0)
(0.883572 0.0493561 0)
(0.889738 0.057433 0)
(0.889848 0.0637307 0)
(0.895469 0.072609 0)
(0.894707 0.0784042 0)
(0.898235 0.0877663 0)
(0.905014 0.0925948 0)
(0.902529 0.10208 0)
(0.908933 0.107653 0)
(0.914553 0.113341 0)
(0.914175 0.123783 0)
(0.920386 0.126579 0)
(0.927077 0.133538 0)
(0.927865 0.142214 0)
(0.933939 0.144335 0)
(0.940817 0.153045 0)
(0.942693 0.158482 0)
(0.949938 0.160906 0)
(0.955961 0.169792 0)
(0.958844 0.172756 0)
(0.966895 0.176714 0)
(0.972205 0.183337 0)
(0.976021 0.185908 0)
(0.685075 0.00303971 0)
(0.709701 0.0125345 0)
(0.738033 0.0210121 0)
(0.76964 0.0293306 0)
(0.803662 0.0374686 0)
(0.838061 0.0459125 0)
(0.858508 0.0555005 0)
(0.861887 0.0629435 0)
(0.868206 0.0722608 0)
(0.865946 0.079405 0)
(0.872581 0.0893601 0)
(0.876326 0.0949187 0)
(0.874257 0.106185 0)
(0.883685 0.111819 0)
(0.88765 0.119484 0)
(0.886598 0.130053 0)
(0.894615 0.132977 0)
(0.902331 0.142452 0)
(0.902181 0.151206 0)
(0.908234 0.15429 0)
(0.916817 0.163476 0)
(0.918968 0.169992 0)
(0.926914 0.172832 0)
(0.933188 0.183374 0)
(0.936501 0.186339 0)
(0.945516 0.190384 0)
(0.951808 0.199098 0)
(0.956121 0.200557 0)
(0.966278 0.206048 9.49247e-026)
(0.658995 0.00335232 0)
(0.683224 0.0139058 0)
(0.711339 0.0232808 0)
(0.74293 0.0324781 0)
(0.777181 0.0414605 0)
(0.811764 0.0511632 0)
(0.829979 0.060861 0)
(0.838657 0.070631 0)
(0.835974 0.0792525 0)
(0.845009 0.0892707 0)
(0.844827 0.096759 0)
(0.845808 0.108976 0)
(0.856691 0.114985 0)
(0.856958 0.124512 0)
(0.857689 0.134898 0)
(0.869322 0.139733 0)
(0.874193 0.15075 0)
(0.873061 0.159561 0)
(0.881477 0.163477 0)
(0.89209 0.173698 0)
(0.893146 0.181732 0)
(0.90098 0.184882 0)
(0.907751 0.196904 0)
(0.912449 0.199648 0)
(0.92346 0.204762 0)
(0.929083 0.215336 0)
(0.934067 0.216142 0)
(0.944936 0.22324 0)
(0.949523 0.228989 1.45919e-027)
(0.63182 0.00366976 0)
(0.655642 0.0153522 0)
(0.683536 0.0256606 0)
(0.715114 0.0357771 0)
(0.749567 0.0456857 0)
(0.783696 0.0561959 0)
(0.804249 0.0675165 0)
(0.804622 0.0774856 0)
(0.815503 0.0876344 0)
(0.811891 0.0977811 0)
(0.817339 0.109735 0)
(0.82616 0.116139 0)
(0.823989 0.129314 0)
(0.829621 0.138674 0)
(0.840867 0.145784 0)
(0.84114 0.15737 0)
(0.842813 0.166793 0)
(0.856663 0.172806 0)
(0.863536 0.183757 0)
(0.863305 0.192957 0)
(0.873156 0.196136 0)
(0.881044 0.210127 0)
(0.887836 0.212755 0)
(0.899125 0.220012 0)
(0.902348 0.231323 0)
(0.910004 0.231489 0)
(0.922652 0.240836 0)
(0.927225 0.246966 0)
(0.938694 0.249652 -2.18425e-025)
(0.603665 0.00398225 0)
(0.627072 0.0168595 0)
(0.654746 0.028122 0)
(0.686329 0.0391756 0)
(0.721118 0.0500265 0)
(0.755811 0.0617858 0)
(0.770584 0.0740115 0)
(0.783248 0.0845668 0)
(0.778241 0.0968964 0)
(0.787686 0.108214 0)
(0.791901 0.116537 0)
(0.790457 0.133045 0)
(0.799904 0.139934 0)
(0.808038 0.151209 0)
(0.806933 0.16281 0)
(0.814762 0.173514 0)
(0.827297 0.180349 0)
(0.828986 0.193216 0)
(0.832267 0.202645 0)
(0.847516 0.207662 0)
(0.851883 0.223104 0)
(0.860214 0.225233 0)
(0.868988 0.235445 0)
(0.873907 0.246389 0)
(0.888148 0.247122 0)
(0.896074 0.259447 0)
(0.902341 0.264451 0)
(0.91651 0.268089 0)
(0.921242 0.27591 -1.25542e-027)
(0.574676 0.00428354 0)
(0.597666 0.0184167 0)
(0.62513 0.0306435 0)
(0.656731 0.0426518 0)
(0.691769 0.054463 0)
(0.724586 0.0674722 0)
(0.746269 0.0800479 0)
(0.743504 0.0935747 0)
(0.756332 0.105086 0)
(0.755188 0.116388 0)
(0.757941 0.133514 0)
(0.767779 0.139443 0)
(0.772324 0.155521 0)
(0.772943 0.166281 0)
(0.784741 0.177886 0)
(0.793349 0.187359 0)
(0.792737 0.201703 0)
(0.804078 0.210908 0)
(0.816336 0.218984 0)
(0.81885 0.234357 0)
(0.830635 0.23691 0)
(0.837086 0.25186 0)
(0.847078 0.259216 0)
(0.860854 0.263674 0)
(0.865036 0.277897 0)
(0.879203 0.280949 0)
(0.889452 0.288206 0)
(0.896588 0.296439 0)
(0.913005 0.301694 1.25168e-025)
(0.545005 0.00456667 0)
(0.567577 0.0200115 0)
(0.594827 0.0331929 0)
(0.626441 0.0461396 0)
(0.661834 0.0590279 0)
(0.696515 0.0729116 0)
(0.706672 0.0877189 0)
(0.722076 0.100691 0)
(0.717812 0.113709 0)
(0.725673 0.130652 0)
(0.731938 0.138197 0)
(0.735821 0.157803 0)
(0.738134 0.167239 0)
(0.75155 0.181786 0)
(0.754751 0.192983 0)
(0.757703 0.208153 0)
(0.773997 0.216834 0)
(0.778643 0.230255 0)
(0.784534 0.242318 0)
(0.800823 0.250129 0)
(0.803825 0.266901 0)
(0.817737 0.269608 0)
(0.827576 0.283051 0)
(0.834177 0.293341 0)
(0.853696 0.297948 0)
(0.858237 0.30948 0)
(0.871089 0.314856 0)
(0.886649 0.323443 0)
(0.893604 0.327942 1.34943e-025)
(0.514831 0.00481904 0)
(0.536997 0.0216229 0)
(0.564065 0.0357353 0)
(0.595781 0.0496241 0)
(0.63161 0.0634293 0)
(0.661608 0.0791334 0)
(0.683903 0.0937001 0)
(0.680184 0.108579 0)
(0.69207 0.125272 0)
(0.693519 0.135726 0)
(0.699216 0.156709 0)
(0.70152 0.167183 0)
(0.715749 0.1822 0)
(0.715098 0.196694 0)
(0.724707 0.212014 0)
(0.739113 0.22163 0)
(0.738607 0.239608 0)
(0.753615 0.248096 0)
(0.762503 0.263924 0)
(0.767801 0.275947 0)
(0.786849 0.282471 0)
(0.79308 0.30178 0)
(0.804086 0.304437 0)
(0.819566 0.317816 0)
(0.826513 0.328446 0)
(0.845381 0.333265 0)
(0.856607 0.346182 0)
(0.866014 0.348427 0)
(0.885428 0.358164 -1.43294e-025)
(0.48434 0.00503519 0)
(0.506109 0.0232404 0)
(0.532989 0.0382313 0)
(0.564726 0.0529798 0)
(0.600479 0.0680594 0)
(0.634261 0.0841065 0)
(0.640463 0.100866 0)
(0.656833 0.11803 0)
(0.653917 0.131223 0)
(0.66182 0.15185 0)
(0.665018 0.164395 0)
(0.678739 0.180832 0)
(0.675046 0.198638 0)
(0.689731 0.212123 0)
(0.697541 0.22605 0)
(0.699739 0.245683 0)
(0.718849 0.254105 0)
(0.720651 0.274176 0)
(0.733627 0.283152 0)
(0.750695 0.296416 0)
(0.755668 0.314152 0)
(0.771839 0.317372 0)
(0.783164 0.338327 0)
(0.793506 0.342839 0)
(0.814217 0.353535 0)
(0.821972 0.36678 0)
(0.83967 0.369906 0)
(0.856689 0.382638 0)
(0.865953 0.38711 1.53437e-025)
(0.453727 0.00520344 0)
(0.475118 0.0248438 0)
(0.501855 0.0406492 0)
(0.53383 0.0562769 0)
(0.570496 0.0721255 0)
(0.596293 0.090526 0)
(0.617495 0.10748 0)
(0.613466 0.123912 0)
(0.625299 0.144227 0)
(0.628509 0.159389 0)
(0.636164 0.176444 0)
(0.634899 0.197346 0)
(0.653614 0.21103 0)
(0.653304 0.227879 0)
(0.663413 0.247651 0)
(0.678863 0.257738 0)
(0.680802 0.280642 0)
(0.697719 0.289477 0)
(0.710109 0.308442 0)
(0.715147 0.322237 0)
(0.736114 0.331702 0)
(0.74458 0.354671 0)
(0.760254 0.356389 0)
(0.778111 0.374755 0)
(0.78662 0.384338 0)
(0.808796 0.391424 0)
(0.821081 0.405422 0)
(0.837407 0.410666 0)
(0.85878 0.420597 -3.26614e-025)
(0.423191 0.00531335 0)
(0.444231 0.0264188 0)
(0.470843 0.0429384 0)
(0.502964 0.0593076 0)
(0.538266 0.0766994 0)
(0.569445 0.0950218 0)
(0.57277 0.113732 0)
(0.588795 0.134213 0)
(0.58822 0.150614 0)
(0.592522 0.170096 0)
(0.601138 0.192822 0)
(0.612414 0.204911 0)
(0.610494 0.227463 0)
(0.627992 0.246546 0)
(0.633958 0.259561 0)
(0.639366 0.283526 0)
(0.658889 0.294071 0)
(0.664939 0.317608 0)
(0.678226 0.326837 0)
(0.695559 0.348179 0)
(0.701981 0.363619 0)
(0.722896 0.369848 0)
(0.738733 0.394876 0)
(0.751563 0.39899 0)
(0.77357 0.414203 0)
(0.782648 0.426901 0)
(0.807168 0.433396 0)
(0.82408 0.445854 0)
(0.839072 0.450677 5.40833e-028)
(0.392932 0.0053524 0)
(0.413646 0.0279441 0)
(0.440143 0.0450486 0)
(0.472556 0.0621351 0)
(0.509265 0.0804052 0)
(0.529776 0.10043 0)
(0.548418 0.121287 0)
(0.546104 0.13859 0)
(0.554474 0.162111 0)
(0.564828 0.183134 0)
(0.564948 0.196923 0)
(0.570861 0.225084 0)
(0.588133 0.240907 0)
(0.587604 0.25944 0)
(0.601025 0.282459 0)
(0.616986 0.29683 0)
(0.618482 0.321019 0)
(0.639975 0.330644 0)
(0.649772 0.359805 0)
(0.661086 0.367875 0)
(0.684981 0.385946 0)
(0.692602 0.408124 0)
(0.713395 0.411284 0)
(0.731984 0.436516 0)
(0.745087 0.444535 0)
(0.773565 0.457825 0)
(0.783826 0.469653 0)
(0.808115 0.475855 0)
(0.831066 0.489711 1.10115e-027)
(0.363151 0.00530857 0)
(0.383587 0.029415 0)
(0.410052 0.0469185 0)
(0.443 0.0647871 0)
(0.476281 0.0839551 0)
(0.502324 0.106279 0)
(0.505725 0.124279 0)
(0.517138 0.150651 0)
(0.522138 0.168952 0)
(0.521962 0.188454 0)
(0.535372 0.217962 0)
(0.544827 0.230737 0)
(0.543325 0.256228 0)
(0.56164 0.277376 0)
(0.570297 0.297387 0)
(0.574067 0.318995 0)
(0.597547 0.335888 0)
(0.604387 0.363561 0)
(0.61825 0.371854 0)
(0.638817 0.398128 0)
(0.647338 0.415688 0)
(0.674501 0.427064 0)
(0.685432 0.453634 0)
(0.705733 0.458176 0)
(0.729752 0.480953 0)
(0.743857 0.489607 0)
(0.77624 0.502806 0)
(0.789163 0.514056 0)
(0.815587 0.521053 1.9497e-025)
(0.334032 0.00517109 0)
(0.35422 0.030823 0)
(0.380663 0.0485838 0)
(0.413623 0.0667641 0)
(0.447803 0.0887321 0)
(0.464142 0.107494 0)
(0.476896 0.136069 0)
(0.479286 0.151752 0)
(0.484555 0.178441 0)
(0.496933 0.204552 0)
(0.497401 0.219348 0)
(0.501443 0.250525 0)
(0.520789 0.268013 0)
(0.522482 0.293321 0)
(0.533867 0.313412 0)
(0.553707 0.33697 0)
(0.555482 0.360162 0)
(0.575008 0.374699 0)
(0.59137 0.407552 0)
(0.603442 0.418295 0)
(0.628071 0.440617 0)
(0.63668 0.461941 0)
(0.665657 0.473912 0)
(0.681066 0.500344 0)
(0.703482 0.506386 0)
(0.732042 0.526927 0)
(0.746924 0.538132 0)
(0.781514 0.550675 0)
(0.798554 0.561536 -2.03275e-025)
(0.305741 0.00491992 0)
(0.325724 0.0321943 0)
(0.352215 0.0497869 0)
(0.385898 0.0695105 0)
(0.415349 0.0892936 0)
(0.433697 0.117886 0)
(0.439778 0.133087 0)
(0.447223 0.165147 0)
(0.453572 0.186328 0)
(0.453134 0.206502 0)
(0.46676 0.240065 0)
(0.477877 0.255126 0)
(0.476897 0.284526 0)
(0.494023 0.305102 0)
(0.503295 0.332194 0)
(0.508736 0.356575 0)
(0.533617 0.375023 0)
(0.538927 0.407734 0)
(0.558454 0.417081 0)
(0.577609 0.450731 0)
(0.589531 0.466278 0)
(0.620436 0.487906 0)
(0.629783 0.512959 0)
(0.66158 0.522053 0)
(0.679814 0.548956 0)
(0.705171 0.557403 0)
(0.738308 0.577289 0)
(0.754938 0.587148 0)
(0.792918 0.597322 2.16352e-025)
(0.278431 0.00455749 0)
(0.298235 0.033479 0)
(0.324948 0.0509386 0)
(0.357915 0.0701092 0)
(0.385873 0.0967149 0)
(0.399747 0.113537 0)
(0.407617 0.148013 0)
(0.412231 0.165613 0)
(0.416272 0.193092 0)
(0.4288 0.22277 0)
(0.43095 0.239042 0)
(0.434975 0.274047 0)
(0.45133 0.294217 0)
(0.455847 0.322876 0)
(0.467803 0.346419 0)
(0.48618 0.369671 0)
(0.489507 0.400596 0)
(0.513644 0.417992 0)
(0.524395 0.45442 0)
(0.544183 0.464815 0)
(0.567112 0.498001 0)
(0.578048 0.517849 0)
(0.6135 0.53655 0)
(0.626591 0.564757 0)
(0.664034 0.575042 0)
(0.683321 0.601133 0)
(0.70975 0.607945 0)
(0.748558 0.631023 0)
(0.768832 0.63804 0)
(0.252218 0.00405771 0)
(0.271874 0.034809 0)
(0.298728 0.0512186 0)
(0.331283 0.0737673 0)
(0.355372 0.0937984 0)
(0.367468 0.127315 0)
(0.374153 0.14338 0)
(0.380218 0.176318 0)
(0.387206 0.201017 0)
(0.387917 0.222946 0)
(0.398404 0.260263 0)
(0.408589 0.276409 0)
(0.412973 0.309964 0)
(0.425937 0.331229 0)
(0.437061 0.363517 0)
(0.442963 0.388769 0)
(0.467103 0.415412 0)
(0.47098 0.444754 0)
(0.497717 0.463668 0)
(0.511992 0.504417 0)
(0.53021 0.515865 0)
(0.559754 0.548146 0)
(0.572486 0.569939 0)
(0.611526 0.590724 0)
(0.626036 0.616007 0)
(0.667053 0.632142 0)
(0.693286 0.655896 0)
(0.723092 0.664422 0)
(0.765787 0.682527 2.31469e-025)
(0.22719 0.00349837 0)
(0.246687 0.035983 0)
(0.273899 0.0519979 0)
(0.304765 0.0729756 0)
(0.325299 0.103426 0)
(0.336336 0.120183 0)
(0.343311 0.157172 0)
(0.347479 0.176927 0)
(0.351578 0.207636 0)
(0.361712 0.237617 0)
(0.364832 0.256023 0)
(0.371981 0.295465 0)
(0.384802 0.313614 0)
(0.389694 0.352649 0)
(0.40028 0.371777 0)
(0.419919 0.405771 0)
(0.42082 0.432869 0)
(0.449787 0.461621 0)
(0.456734 0.493505 0)
(0.480997 0.511989 0)
(0.50125 0.554735 0)
(0.519665 0.570248 0)
(0.556146 0.602798 0)
(0.570553 0.62756 0)
(0.613976 0.647368 0)
(0.630809 0.674976 0)
(0.676387 0.687213 0)
(0.708214 0.714112 0)
(0.742067 0.71877 -7.43309e-027)
(0.203399 0.00288463 0)
(0.222784 0.0372288 0)
(0.250151 0.0514134 0)
(0.27854 0.0776684 0)
(0.296742 0.0983216 0)
(0.306056 0.134445 0)
(0.31144 0.151899 0)
(0.317176 0.188051 0)
(0.323113 0.210505 0)
(0.325978 0.238868 0)
(0.33543 0.276118 0)
(0.342276 0.293752 0)
(0.346458 0.332637 0)
(0.360241 0.352739 0)
(0.372482 0.393116 0)
(0.376463 0.416003 0)
(0.401379 0.450222 0)
(0.403987 0.479033 0)
(0.433407 0.508744 0)
(0.440378 0.546176 0)
(0.471134 0.567371 0)
(0.492578 0.60941 0)
(0.513336 0.625916 0)
(0.554043 0.660952 0)
(0.571838 0.686079 0)