/*--------------------------------*- C++ -*----------------------------------*\
| =========                 |                                                 |
| \\      /  F ield         | OpenFOAM: The Open Source CFD Toolbox           |
|  \\    /   O peration     | Version:  5.x                                   |
|   \\  /    A nd           | Web:      www.OpenFOAM.org                      |
|    \\/     M anipulation  |                                                 |
\*---------------------------------------------------------------------------*/
/*   Windows 32 and 64 bit porting by blueCAPE: http://www.bluecape.com.pt   *\
|  Based on Windows porting (2.0.x v4) by Symscape: http://www.symscape.com   |
\*---------------------------------------------------------------------------*/
FoamFile
{
    version     2.0;
    format      ascii;
    class       volScalarField;
    location    "190";
    object      epsilon;
}
// * * * * * * * * * * * * * * * * * * * * * * * * * * * * * * * * * * * * * //

dimensions      [0 2 -3 0 0 0 0];

internalField   nonuniform List<scalar> 
43900
(
0.00152925
0.00151911
0.00151979
0.00151971
0.00151968
0.00151967
0.00151967
0.00151967
0.00151967
0.00151967
0.00151967
0.00151967
0.00151967
0.00151968
0.00151968
0.00151968
0.00151968
0.00151968
0.00151969
0.00151969
0.00151969
0.00151969
0.00151969
0.00151969
0.00151969
0.00151969
0.00151969
0.00151969
0.00151969
0.00041043
3.80816e-005
3.16664e-005
3.15245e-005
3.27375e-005
3.28009e-005
3.28078e-005
3.27879e-005
3.27855e-005
3.27873e-005
3.27893e-005
3.27934e-005
3.27969e-005
3.27999e-005
3.28024e-005
3.28046e-005
3.28065e-005
3.28082e-005
3.28094e-005
3.28103e-005
3.28112e-005
3.28119e-005
3.28126e-005
3.28133e-005
3.28138e-005
3.28144e-005
3.28149e-005
3.28153e-005
3.28156e-005
0.0506799
0.00570745
0.000284395
1.12009e-005
1.69347e-006
1.32797e-006
1.32716e-006
1.41058e-006
1.41896e-006
1.41683e-006
1.41618e-006
1.41671e-006
1.41733e-006
1.41773e-006
1.41806e-006
1.41837e-006
1.41865e-006
1.4189e-006
1.41911e-006
1.41931e-006
1.41948e-006
1.41965e-006
1.4198e-006
1.41993e-006
1.42005e-006
1.42017e-006
1.42027e-006
1.42037e-006
1.42044e-006
0.146343
0.0436383
0.00961313
0.0013011
8.08415e-005
3.2367e-006
3.2708e-007
1.2085e-007
1.08378e-007
1.17112e-007
1.20262e-007
1.19877e-007
1.1945e-007
1.19571e-007
1.19691e-007
1.19729e-007
1.19761e-007
1.19792e-007
1.19822e-007
1.19851e-007
1.19878e-007
1.19901e-007
1.19923e-007
1.19943e-007
1.19961e-007
1.19978e-007
1.19993e-007
1.20007e-007
1.20017e-007
0.19787
0.0844405
0.0337537
0.0111649
0.00259813
0.000340062
2.01442e-005
8.16193e-007
6.97211e-008
2.03805e-008
1.63831e-008
1.79205e-008
1.87647e-008
1.85727e-008
1.84286e-008
1.84452e-008
1.84622e-008
1.84682e-008
1.84735e-008
1.84784e-008
1.84828e-008
1.8487e-008
1.84908e-008
1.84941e-008
1.84975e-008
1.85006e-008
1.85034e-008
1.85064e-008
1.85085e-008
0.222886
0.108906
0.0530107
0.0248425
0.0103021
0.00319209
0.000648103
6.48676e-005
3.22001e-006
1.41234e-007
1.41984e-008
4.7979e-009
4.17973e-009
4.62818e-009
4.76767e-009
4.71862e-009
4.69865e-009
4.69922e-009
4.70051e-009
4.70154e-009
4.70253e-009
4.70337e-009
4.70421e-009
4.70505e-009
4.70581e-009
4.7067e-009
4.70751e-009
4.70816e-009
4.70877e-009
0.235604
0.124195
0.0662917
0.0353195
0.0183221
0.00883193
0.00348666
0.000917362
0.000132086
8.71521e-006
3.89375e-007
1.963e-008
2.91554e-009
1.55083e-009
1.60987e-009
1.73254e-009
1.74184e-009
1.7386e-009
1.73816e-009
1.73849e-009
1.73879e-009
1.73912e-009
1.73941e-009
1.73965e-009
1.73997e-009
1.74026e-009
1.74052e-009
1.74088e-009
1.74111e-009
0.238048
0.131016
0.0734144
0.0415242
0.0233983
0.0128641
0.00663959
0.00295653
0.000904227
0.000160202
1.29749e-005
6.37697e-007
3.04699e-008
2.51063e-009
8.4561e-010
7.12514e-010
7.70635e-010
7.83152e-010
7.83428e-010
7.83616e-010
7.83828e-010
7.84053e-010
7.84187e-010
7.84361e-010
7.84499e-010
7.84547e-010
7.84732e-010
7.84978e-010
7.85102e-010
0.238225
0.13577
0.0789469
0.0465624
0.0276238
0.0162917
0.00937751
0.00509947
0.00244575
0.000843747
0.000174314
1.72084e-005
9.61913e-007
4.84745e-008
2.98258e-009
6.15797e-010
3.91498e-010
4.05161e-010
4.11931e-010
4.12209e-010
4.12256e-010
4.12361e-010
4.12469e-010
4.12571e-010
4.12654e-010
4.12746e-010
4.12842e-010
4.12974e-010
4.1308e-010
0.234699
0.13671
0.0814707
0.0494202
0.0303297
0.0186841
0.0114263
0.00681964
0.00385703
0.00194519
0.000735423
0.000164051
1.78527e-005
1.08727e-006
5.80488e-008
3.3932e-009
4.83461e-010
2.71723e-010
2.62175e-010
2.64857e-010
2.65368e-010
2.65458e-010
2.65515e-010
2.65573e-010
2.65653e-010
2.65746e-010
2.65844e-010
2.65928e-010
2.65994e-010
0.228178
0.135232
0.0819618
0.0506811
0.0318111
0.0201518
0.0127867
0.00803995
0.00492722
0.00286008
0.00148342
0.000588828
0.00013424
1.49868e-005
9.62256e-007
5.42294e-008
3.234e-009
3.98226e-010
2.22823e-010
2.07187e-010
2.07144e-010
2.07182e-010
2.07199e-010
2.07225e-010
2.07274e-010
2.07393e-010
2.07466e-010
2.07498e-010
2.07554e-010
0.220564
0.132525
0.0814787
0.0511167
0.0326175
0.0210656
0.013693
0.00889153
0.00570605
0.00355885
0.00209553
0.00109844
0.000439006
9.6538e-005
1.03014e-005
6.70467e-007
3.92327e-008
2.43249e-009
3.28197e-010
2.06721e-010
1.97304e-010
1.96751e-010
1.9675e-010
1.96751e-010
1.96771e-010
1.96906e-010
1.96923e-010
1.96932e-010
1.96951e-010
0.211888
0.128783
0.0800999
0.0508359
0.0328305
0.0215107
0.0142255
0.00944137
0.00624013
0.00406127
0.00255712
0.00150991
0.000784053
0.00029969
5.91366e-005
5.6224e-006
3.5901e-007
2.14488e-008
1.43826e-009
2.75127e-010
2.08414e-010
2.04683e-010
2.04518e-010
2.04505e-010
2.04508e-010
2.04637e-010
2.04541e-010
2.04542e-010
2.04552e-010
0.202448
0.124171
0.0779582
0.0499807
0.032605
0.0215801
0.0144564
0.00974692
0.00657372
0.00439795
0.00288289
0.00181532
0.00105957
0.00053082
0.000179614
2.90893e-005
2.36643e-006
1.48306e-007
9.11979e-009
7.70821e-010
2.76953e-010
2.48107e-010
2.46565e-010
2.46209e-010
2.46111e-010
2.46168e-010
2.45653e-010
2.45649e-010
2.45649e-010
0.192554
0.118969
0.0752513
0.0486343
0.0320196
0.0213957
0.0144579
0.00986111
0.00674853
0.00460158
0.00309694
0.00202822
0.00126243
0.00071419
0.000330985
8.83064e-005
1.08406e-005
7.78768e-007
4.95773e-008
3.42039e-009
5.64949e-010
3.91138e-010
3.80546e-010
3.79147e-010
3.78194e-010
3.77568e-010
3.76138e-010
3.76135e-010
3.76135e-010
0.182416
0.113407
0.0721803
0.0469498
0.0311294
0.0209775
0.0143135
0.00984416
0.00680891
0.00470827
0.00322814
0.00217022
0.00140584
0.000851293
0.000453161
0.000179465
3.37432e-005
3.15478e-006
2.19341e-007
1.5074e-008
1.66279e-009
7.96529e-010
7.40114e-010
7.35024e-010
7.30808e-010
7.27476e-010
7.23627e-010
7.23142e-010
7.23157e-010
0.172155
0.107619
0.0688785
0.0450595
0.0300547
0.0203853
0.0140181
0.00973534
0.00679241
0.00474654
0.00330012
0.00226064
0.00150463
0.000950973
0.000546786
0.000259165
7.67013e-005
9.9385e-006
7.90967e-007
5.74709e-008
5.49897e-009
1.89576e-009
1.64314e-009
1.62312e-009
1.61085e-009
1.59868e-009
1.58812e-009
1.58205e-009
1.58198e-009
0.161857
0.101704
0.0654324
0.0430359
0.0288659
0.0196941
0.0136289
0.00953561
0.00671786
0.004737
0.00332979
0.00231361
0.00157016
0.00102164
0.00061664
0.000322449
0.000121215
2.35197e-005
2.29789e-006
1.83276e-007
1.72946e-008
4.80426e-009
3.87473e-009
3.79695e-009
3.75218e-009
3.71906e-009
3.68509e-009
3.65969e-009
3.65955e-009
0.1516
0.0957399
0.0619108
0.0409354
0.0276083
0.0189446
0.0131897
0.00928826
0.00659201
0.00469335
0.00332946
0.00234164
0.00161431
0.00107366
0.000670559
0.000373068
0.000161533
4.09526e-005
5.32816e-006
4.83194e-007
4.83669e-008
1.23651e-008
9.42236e-009
9.15494e-009
9.06159e-009
8.96464e-009
8.84469e-009
8.74192e-009
8.70825e-009
0.141418
0.0897704
0.0583549
0.0387939
0.0263118
0.0181611
0.0127219
0.00901702
0.00644411
0.00462441
0.00331465
0.00235523
0.00164489
0.00111351
0.000714056
0.000415515
0.00019827
6.08139e-005
9.91651e-006
1.0618e-006
1.19038e-007
3.15143e-008
2.43391e-008
2.3443e-008
2.26116e-008
2.22292e-008
2.20387e-008
2.20657e-008
2.20355e-008
0.131335
0.0838236
0.0547902
0.036633
0.0249939
0.0173579
0.0122372
0.00873153
0.0062841
0.00454358
0.00328403
0.00235712
0.00166685
0.00114642
0.000751692
0.000453126
0.00023175
8.22763e-005
1.65087e-005
2.16668e-006
2.88736e-007
8.5501e-008
6.12488e-008
6.03028e-008
6.08715e-008
6.03376e-008
5.85587e-008
5.60201e-008
5.60183e-008
0.121389
0.0779266
0.0512367
0.0344671
0.0236655
0.0165432
0.0117421
0.00843727
0.006117
0.00445731
0.00324923
0.00235553
0.00168481
0.00117568
0.000786357
0.000488768
0.000264772
0.000106124
2.53304e-005
3.79102e-006
5.42177e-007
1.55854e-007
1.20316e-007
1.1193e-007
1.07712e-007
1.07585e-007
1.09424e-007
1.10705e-007
1.09221e-007
0.111627
0.0721092
0.0477138
0.032309
0.0223352
0.0157235
0.0112414
0.00813825
0.00594632
0.00436859
0.00321272
0.00235202
0.0017016
0.00120416
0.000820522
0.000524145
0.000297784
0.000132016
3.72359e-005
6.6813e-006
1.04547e-006
2.68911e-007
1.6658e-007
1.59568e-007
1.5958e-007
1.58153e-007
1.52889e-007
1.49868e-007
1.51415e-007
0.102093
0.0663976
0.044237
0.0301683
0.0210089
0.014902
0.0107374
0.00783595
0.00577322
0.00427848
0.00317579
0.00234877
0.00171923
0.00123395
0.000856452
0.000561818
0.000333647
0.000161659
5.2598e-005
1.06878e-005
1.80218e-006
4.11319e-007
2.2694e-007
1.96313e-007
1.90554e-007
1.92101e-007
1.95263e-007
1.95119e-007
1.90714e-007
0.0928371
0.0608207
0.0408224
0.0280531
0.0196904
0.0140803
0.0102301
0.00752978
0.00559681
0.00418606
0.00313762
0.00234524
0.00173727
0.0012647
0.000893732
0.000601151
0.000371457
0.000194735
7.36872e-005
1.82206e-005
3.3818e-006
7.03273e-007
2.92507e-007
2.40075e-007
2.32103e-007
2.24359e-007
2.19806e-007
2.20523e-007
2.25396e-007
0.083918
0.0554109
0.037488
0.0259734
0.0183845
0.0132604
0.0097198
0.00721927
0.00541624
0.00409039
0.00309734
0.00234077
0.00175541
0.00129641
0.000932676
0.000642681
0.000411827
0.000230466
9.7967e-005
2.76307e-005
5.74681e-006
1.19699e-006
4.01737e-007
2.7015e-007
2.55697e-007
2.55673e-007
2.54507e-007
2.4984e-007
2.4499e-007
0.0753917
0.0502013
0.0342529
0.0239397
0.0170971
0.012445
0.00920766
0.00690447
0.00523108
0.00399086
0.00305438
0.00233489
0.00177337
0.00132904
0.000973504
0.000686972
0.00045588
0.000271319
0.000129681
4.34352e-005
1.02363e-005
2.15952e-006
6.01174e-007
3.29707e-007
2.78352e-007
2.68804e-007
2.69998e-007
2.72985e-007
2.72638e-007
0.0673085
0.0452221
0.0311353
0.0219627
0.0158339
0.011637
0.00869477
0.00658548
0.00504084
0.0038867
0.00300785
0.00232676
0.0017904
0.00136196
0.00101567
0.000733436
0.000502759
0.000315462
0.000166966
6.50968e-005
1.80144e-005
4.06509e-006
1.00981e-006
4.19518e-007
3.15988e-007
2.9239e-007
2.85611e-007
2.85638e-007
2.85406e-007
0.0597105
0.0405001
0.0281516
0.0200524
0.0146008
0.0108395
0.00818234
0.00626236
0.0048449
0.00377689
0.00295661
0.00231523
0.00180545
0.00139431
0.00105858
0.000781884
0.000552749
0.000363588
0.000209455
9.44191e-005
3.00565e-005
7.50967e-006
1.8425e-006
6.09203e-007
3.60769e-007
3.17657e-007
3.03124e-007
3.01194e-007
3.00755e-007
0.0526308
0.0360576
0.0253168
0.0182182
0.0134034
0.0100556
0.00767176
0.00593529
0.00464264
0.00366036
0.00289927
0.00229868
0.00181684
0.00142445
0.00110073
0.000830937
0.000604709
0.000415072
0.000257246
0.000131408
4.99507e-005
1.39941e-005
3.52584e-006
1.01862e-006
4.59463e-007
3.43414e-007
3.22357e-007
3.14058e-007
3.12132e-007
0.0460923
0.0319123
0.0226433
0.0164688
0.0122475
0.00928881
0.00716493
0.00560502
0.00443398
0.00353639
0.00283471
0.00227592
0.00182329
0.00145106
0.00114074
0.000879242
0.000657253
0.000468418
0.000308616
0.000175556
7.76804e-005
2.58824e-005
6.97053e-006
1.89982e-006
6.81203e-007
4.0119e-007
3.39175e-007
3.30971e-007
3.23292e-007
0.040107
0.0280758
0.020141
0.0148118
0.0111386
0.0085429
0.00666421
0.00527281
0.00421936
0.00340485
0.00276237
0.00224588
0.00182291
0.00147288
0.00117773
0.000926109
0.000709844
0.00052323
0.000362604
0.000225475
0.000114861
4.4209e-005
1.35212e-005
3.7689e-006
1.17226e-006
5.32378e-007
3.76843e-007
3.42762e-007
3.38383e-007
0.0346754
0.0245538
0.0178166
0.0132532
0.0100815
0.00782146
0.00617206
0.00494018
0.00399955
0.00326593
0.00268209
0.00220852
0.00181761
0.00148975
0.00121088
0.000970635
0.000761679
0.000578905
0.000419086
0.000279749
0.000161202
7.29325e-005
2.52275e-005
7.57479e-006
2.26486e-006
8.29445e-007
4.62509e-007
3.69271e-007
3.48807e-007
0.0297883
0.0213463
0.0156733
0.0117973
0.00908019
0.00712781
0.00569096
0.00460882
0.00377552
0.00312003
0.00259383
0.00216329
0.0018048
0.00150053
0.00123916
0.00101168
0.000811575
0.000634256
0.000476773
0.000337473
0.000214729
0.000113281
4.62359e-005
1.51611e-005
4.64572e-006
1.52208e-006
6.58941e-007
4.302e-007
3.69469e-007
0.0254278
0.0184483
0.0137117
0.0104466
0.00813792
0.00646491
0.00522334
0.00428048
0.00354838
0.00296765
0.00249747
0.0021093
0.00178278
0.0015028
0.00126096
0.00104787
0.000858154
0.000687876
0.000534378
0.000396202
0.000272898
0.000163844
7.90685e-005
2.97908e-005
9.66163e-006
3.09259e-006
1.12742e-006
5.70577e-007
4.16308e-007
0.0215693
0.0158501
0.0119295
0.00920228
0.00725697
0.00583531
0.0047715
0.00395701
0.00331944
0.00280955
0.00239327
0.00204662
0.00175247
0.00149826
0.00127576
0.00107801
0.000900044
0.000738362
0.000590571
0.000455291
0.000332041
0.000221404
0.000124315
5.49712e-005
1.97364e-005
6.51437e-006
2.21558e-006
9.07602e-007
5.21439e-007
0.0181826
0.0135388
0.0103221
0.00806379
0.00643874
0.00524108
0.00433756
0.00364027
0.00309015
0.00264675
0.00228188
0.00197559
0.0017136
0.00148567
0.00128271
0.00110138
0.00093635
0.000784627
0.00064411
0.000513517
0.000392397
0.00028083
0.000180273
9.40579e-005
3.86368e-005
1.37327e-005
4.66176e-006
1.70227e-006
7.71136e-007
0.015234
0.0114982
0.00888277
0.0070293
0.00568376
0.0046838
0.00392341
0.00333208
0.00286207
0.00248044
0.00216406
0.00189645
0.00166566
0.00146282
0.00128064
0.00111669
0.000965866
0.000825529
0.000693839
0.000569637
0.000452464
0.000342529
0.000240062
0.000147636
7.16469e-005
2.81026e-005
1.00464e-005
3.53892e-006
1.36534e-006
0.012687
0.00971018
0.00760317
0.00609571
0.0049917
0.0041645
0.00353065
0.00303414
0.00263675
0.00231189
0.00204075
0.00180981
0.00160919
0.00143159
0.00127151
0.00112415
0.00098821
0.000860283
0.000738731
0.000622468
0.00051097
0.000404357
0.000303142
0.000207742
0.000121967
5.53579e-005
2.1322e-005
7.72467e-006
2.76655e-006
0.0105043
0.0081551
0.00647356
0.00525885
0.00436144
0.00368367
0.00316052
0.00274797
0.00241569
0.00214243
0.001913
0.00171641
0.00154456
0.00139141
0.00125246
0.00112241
0.0010021
0.000887652
0.00077753
0.000670706
0.00056659
0.000465154
0.000366722
0.000272289
0.000182175
0.000101752
4.38948e-005
1.68573e-005
6.05129e-006
0.00864782
0.00681238
0.00548322
0.00451365
0.00379112
0.00324126
0.00281394
0.0024749
0.00220035
0.00197342
0.00178199
0.00161716
0.00147232
0.0013425
0.00122388
0.00111325
0.00100729
0.000906986
0.000809285
0.000713182
0.000618016
0.00052357
0.000429955
0.00033781
0.000248345
0.000161944
8.57033e-005
3.60737e-005
1.34689e-005
0.00708061
0.00566112
0.00462075
0.00385429
0.00327827
0.0028367
0.00249141
0.00221603
0.00199205
0.00180622
0.00164894
0.00151307
0.00139327
0.00128544
0.00118642
0.00109386
0.00100389
0.000917747
0.000833084
0.000748741
0.000663912
0.000578151
0.000491365
0.000403774
0.000316185
0.000230071
0.000145576
7.29897e-005
2.95258e-005
0.00576695
0.00468061
0.0038744
0.00327445
0.00281983
0.00246898
0.00219314
0.00197222
0.00179199
0.00164216
0.00151515
0.00140532
0.00130835
0.00122091
0.00114037
0.00106468
0.000991994
0.000918499
0.00084779
0.000776213
0.000702984
0.000627491
0.000549417
0.00046865
0.000385502
0.000300931
0.000216272
0.000132433
6.15189e-005
0.00467314
0.00385074
0.00323236
0.00276748
0.0024124
0.00213668
0.00191895
0.00174409
0.00160124
0.00148248
0.00138193
0.00129513
0.00121865
0.00114979
0.00108638
0.00102667
0.000969213
0.000911786
0.000853184
0.000794847
0.000734159
0.000670312
0.000602711
0.000530893
0.000454792
0.000374567
0.00029122
0.000206999
0.00011853
0.00376802
0.0031524
0.00268307
0.00232658
0.00205223
0.00183806
0.00166841
0.001532
0.00142067
0.00132838
0.00125059
0.00118383
0.0011254
0.00107314
0.00102529
0.000980388
0.000937205
0.000894838
0.000849705
0.00080395
0.000756449
0.00070538
0.000649864
0.000589083
0.000522426
0.000449812
0.000370297
0.000288182
0.000197218
0.0030232
0.00256779
0.00221547
0.00194504
0.00173545
0.00157116
0.0014408
0.0013361
0.00125098
0.00118089
0.00112237
0.00107274
0.00102991
0.000992187
0.000958153
0.00092662
0.00089656
0.000867082
0.000837105
0.000802972
0.000768901
0.000731421
0.000689381
0.000641639
0.000586948
0.000524858
0.000453424
0.000374419
0.000288683
0.0024133
0.00208062
0.00181917
0.00161635
0.00145817
0.00133382
0.0012352
0.00115632
0.00109269
0.00104093
0.000998436
0.000963181
0.000933558
0.000908259
0.00088619
0.000866414
0.000848103
0.0008305
0.000812907
0.000793709
0.00077067
0.000747276
0.000719759
0.000686804
0.000646668
0.000598126
0.000539108
0.000467118
0.000388071
0.00191603
0.00167627
0.00148461
0.00133435
0.00121653
0.00112382
0.00105054
0.000992393
0.000946131
0.00090926
0.000879851
0.000856395
0.000837688
0.000822756
0.00081076
0.000801012
0.000792894
0.000785798
0.00077924
0.000772829
0.00076381
0.00075211
0.000739607
0.0007227
0.000699494
0.000667783
0.000625612
0.000566789
0.000496229
0.00151204
0.0013418
0.00120318
0.00109334
0.00100688
0.000938939
0.00088562
0.000843901
0.000811449
0.000786458
0.000767523
0.000753541
0.000743623
0.000737115
0.000733302
0.000731792
0.000732263
0.000734012
0.000737152
0.000741104
0.000745407
0.000747043
0.000747545
0.000747023
0.000742988
0.00073188
0.000710709
0.000672083
0.000615925
0.00118487
0.00106598
0.000967211
0.000888116
0.000825743
0.000776976
0.00073919
0.000710297
0.000688653
0.000672964
0.000662241
0.000655692
0.000652611
0.000652852
0.000655326
0.00066055
0.000667943
0.000677186
0.000688301
0.000701136
0.000715459
0.000731144
0.000745157
0.000760706
0.000775855
0.000786257
0.000787052
0.000777472
0.000748646
0.000920625
0.000839179
0.000769988
0.000714025
0.000669945
0.000635836
0.000609982
0.000590967
0.000577651
0.000569125
0.000564742
0.000563943
0.000566075
0.00057132
0.0005792
0.000589615
0.000602464
0.0006177
0.000635404
0.000655712
0.000678722
0.000704667
0.000733814
0.000763859
0.000797856
0.000830526
0.000862748
0.00088267
0.000880212
0.000707777
0.000653216
0.000605707
0.000566941
0.000536593
0.000513567
0.000496788
0.000485316
0.000478375
0.000475346
0.000475887
0.000479267
0.000485916
0.000495334
0.00050744
0.000522235
0.000539757
0.000560221
0.000583737
0.000610896
0.000641864
0.00067755
0.000718563
0.000765032
0.000817309
0.000870534
0.000935358
0.000989158
0.00103349
0.000536826
0.000501244
0.000469401
0.000443264
0.000423123
0.000408436
0.000398592
0.000392964
0.00039104
0.000392436
0.00039685
0.000404359
0.000414836
0.000428269
0.000444628
0.000464103
0.000486812
0.000513414
0.000543741
0.000579732
0.000620493
0.000669479
0.000723971
0.00078583
0.000859986
0.000938231
0.00104233
0.00112401
0.00124237
0.000400031
0.000377571
0.000356873
0.000339927
0.000327388
0.000319113
0.000314864
0.000314157
0.00031654
0.000322213
0.000330855
0.000342641
0.000357773
0.000376589
0.000399066
0.000425947
0.000457329
0.000495118
0.000538088
0.000590316
0.000646078
0.000717428
0.000792404
0.000891262
0.000999933
0.00112645
0.00129835
0.00142409
0.00168851
0.000291156
0.000277551
0.000264691
0.000254508
0.000247931
0.000245147
0.000246241
0.000250478
0.000258063
0.000269189
0.000283428
0.000301684
0.00032469
0.000353639
0.000388553
0.000431504
0.000480363
0.000542009
0.000612202
0.000707484
0.000808629
0.000957827
0.00109874
0.00133004
0.00153649
0.00185642
0.00219743
0.00251805
0.00319245
0.000205359
0.000197612
0.000190383
0.000185654
0.000184729
0.00018801
0.000195981
0.000207623
0.000222923
0.000243555
0.000268235
0.000299925
0.000339543
0.00039113
0.000455513
0.000540582
0.000645545
0.000791446
0.000965979
0.00122838
0.00151758
0.00199967
0.0024557
0.00333165
0.00404031
0.00552328
0.00662398
0.00879015
0.0110994
0.000139496
0.000135744
0.000133193
0.00013418
0.000140551
0.000153368
0.000173418
0.000199222
0.000230901
0.000273014
0.000323022
0.000390015
0.000480555
0.000610506
0.00078517
0.00103607
0.00137059
0.00186906
0.00251632
0.00351481
0.00474515
0.00671395
0.0089229
0.0127122
0.0164999
0.0237809
0.030334
0.0448109
0.057471
9.3268e-005
9.27938e-005
9.55224e-005
0.000104439
0.000123214
0.000153438
0.000198727
0.000259421
0.000338431
0.000451432
0.000594878
0.000799944
0.00109308
0.0015328
0.00215195
0.00305903
0.00431765
0.00613695
0.00860368
0.0121089
0.0167737
0.0233263
0.0319164
0.0441509
0.0601931
0.084217
0.116142
0.17098
0.237341
7.01288e-005
7.30677e-005
8.29328e-005
0.000103976
0.000142903
0.000206006
0.000308836
0.000463012
0.000688808
0.00102832
0.00149727
0.00218098
0.00316011
0.00457251
0.00654463
0.0093021
0.0131036
0.0183154
0.0254486
0.0350269
0.048215
0.0655735
0.0901011
0.122038
0.170313
0.232728
0.341309
0.478943
0.728108
0.00151969
0.00151969
0.00151969
0.00151969
0.00151969
0.00151969
0.00151969
0.00151969
0.00151969
0.00151969
0.00151969
0.00151969
0.00151969
0.00151969
0.00151969
0.0015197
0.0015197
0.0015197
0.0015197
0.0015197
0.0015197
0.0015197
0.0015197
0.0015197
0.0015197
0.0015197
0.0015197
0.0015197
0.0015197
0.0015197
0.0015197
0.0015197
0.0015197
0.0015197
0.0015197
0.0015197
0.0015197
0.0015197
0.0015197
0.0015197
0.0015197
0.0015197
0.0015197
0.0015197
0.0015197
0.0015197
0.0015197
0.0015197
0.0015197
0.0015197
0.0015197
0.0015197
0.0015197
0.0015197
0.0015197
0.0015197
0.0015197
0.0015197
0.0015197
0.0015197
0.0015197
0.0015197
0.0015197
0.0015197
0.0015197
0.00151971
0.00151971
0.00151971
0.00151971
0.00151971
0.00151971
0.00151971
0.00151971
0.00151971
0.00151971
0.00151971
0.00151971
0.00151971
0.00151971
0.00151971
0.00151971
0.00151971
0.00151971
0.00151971
0.00151971
0.00151971
0.00151971
0.00151971
0.00151971
0.00151971
0.00151971
0.00151971
0.00151971
0.00151971
0.00151971
0.00151971
0.00151971
0.00151971
0.00151971
0.00151971
0.00151971
0.00151971
0.00151971
0.00151971
0.00151971
0.00151971
0.00151971
0.00151971
0.00151971
0.00151971
0.00151971
0.00151971
0.00151971
0.00151971
0.00151971
0.00151971
0.00151971
0.0015197
0.00151971
0.00151971
0.00151971
0.00151971
0.00151971
0.00151971
0.00151971
0.00151971
0.00151971
0.00151971
0.00151971
0.00151971
0.00151971
0.00151971
0.00151971
0.00151971
0.00151971
0.00151972
0.00151972
0.00151973
0.00154205
3.2816e-005
3.28165e-005
3.2817e-005
3.28175e-005
3.28178e-005
3.28181e-005
3.28185e-005
3.28189e-005
3.28193e-005
3.28196e-005
3.28198e-005
3.28202e-005
3.28207e-005
3.28212e-005
3.28217e-005
3.28221e-005
3.28226e-005
3.2823e-005
3.28233e-005
3.28237e-005
3.2824e-005
3.28243e-005
3.28246e-005
3.2825e-005
3.28253e-005
3.28257e-005
3.28261e-005
3.28264e-005
3.28268e-005
3.28272e-005
3.28276e-005
3.2828e-005
3.28283e-005
3.28287e-005
3.2829e-005
3.28292e-005
3.28295e-005
3.28297e-005
3.283e-005
3.28302e-005
3.28304e-005
3.28306e-005
3.28309e-005
3.28311e-005
3.28313e-005
3.28315e-005
3.28317e-005
3.28319e-005
3.28321e-005
3.28322e-005
3.28324e-005
3.28326e-005
3.28328e-005
3.28329e-005
3.28331e-005
3.28333e-005
3.28334e-005
3.28336e-005
3.28338e-005
3.28339e-005
3.28341e-005
3.28342e-005
3.28344e-005
3.28345e-005
3.28347e-005
3.28348e-005
3.2835e-005
3.28351e-005
3.28353e-005
3.28354e-005
3.28355e-005
3.28357e-005
3.28358e-005
3.28359e-005
3.28361e-005
3.28362e-005
3.28363e-005
3.28364e-005
3.28365e-005
3.28365e-005
3.28366e-005
3.28367e-005
3.28367e-005
3.28368e-005
3.28368e-005
3.28368e-005
3.28368e-005
3.28367e-005
3.28368e-005
3.2837e-005
3.28371e-005
3.28373e-005
3.28374e-005
3.28376e-005
3.28377e-005
3.28378e-005
3.28378e-005
3.28379e-005
3.28379e-005
3.28379e-005
3.28379e-005
3.28379e-005
3.28379e-005
3.28378e-005
3.28378e-005
3.28377e-005
3.28377e-005
3.28376e-005
3.28375e-005
3.28374e-005
3.28371e-005
3.28369e-005
3.28367e-005
3.28365e-005
3.28361e-005
3.28357e-005
3.28353e-005
3.28352e-005
3.28353e-005
3.28356e-005
3.28359e-005
3.28362e-005
3.28365e-005
3.28369e-005
3.28369e-005
3.28375e-005
3.28372e-005
3.28382e-005
3.28381e-005
3.28386e-005
3.28401e-005
3.28403e-005
3.28418e-005
3.2845e-005
3.28436e-005
3.28482e-005
3.2863e-005
3.28597e-005
3.37097e-005
1.42054e-006
1.42067e-006
1.42076e-006
1.42084e-006
1.42092e-006
1.421e-006
1.42107e-006
1.42113e-006
1.42119e-006
1.42126e-006
1.42133e-006
1.42139e-006
1.42144e-006
1.42149e-006
1.42154e-006
1.42159e-006
1.42165e-006
1.4217e-006
1.42175e-006
1.42181e-006
1.42187e-006
1.42194e-006
1.422e-006
1.42206e-006
1.42213e-006
1.42219e-006
1.42225e-006
1.42232e-006
1.42238e-006
1.42244e-006
1.4225e-006
1.42257e-006
1.42263e-006
1.42269e-006
1.42275e-006
1.42281e-006
1.42286e-006
1.42291e-006
1.42296e-006
1.42302e-006
1.42307e-006
1.42312e-006
1.42318e-006
1.42323e-006
1.42328e-006
1.42333e-006
1.42338e-006
1.42343e-006
1.42347e-006
1.42352e-006
1.42357e-006
1.42361e-006
1.42366e-006
1.4237e-006
1.42374e-006
1.42378e-006
1.42382e-006
1.42386e-006
1.4239e-006
1.42393e-006
1.42397e-006
1.42401e-006
1.42405e-006
1.42408e-006
1.42412e-006
1.42416e-006
1.4242e-006
1.42423e-006
1.42427e-006
1.4243e-006
1.42434e-006
1.42437e-006
1.4244e-006
1.42443e-006
1.42446e-006
1.42449e-006
1.42452e-006
1.42454e-006
1.42457e-006
1.42459e-006
1.42461e-006
1.42463e-006
1.42465e-006
1.42467e-006
1.42468e-006
1.4247e-006
1.42471e-006
1.42473e-006
1.42474e-006
1.42477e-006
1.4248e-006
1.42482e-006
1.42485e-006
1.42487e-006
1.4249e-006
1.42492e-006
1.42494e-006
1.42496e-006
1.42498e-006
1.42499e-006
1.42501e-006
1.42502e-006
1.42502e-006
1.42503e-006
1.42503e-006
1.42503e-006
1.42502e-006
1.42501e-006
1.42499e-006
1.42497e-006
1.42494e-006
1.4249e-006
1.42486e-006
1.42481e-006
1.42475e-006
1.42469e-006
1.42465e-006
1.42461e-006
1.4246e-006
1.42459e-006
1.42457e-006
1.42455e-006
1.42449e-006
1.4245e-006
1.42438e-006
1.42439e-006
1.42429e-006
1.42424e-006
1.42423e-006
1.4242e-006
1.42422e-006
1.4244e-006
1.42411e-006
1.42453e-006
1.42555e-006
1.42628e-006
1.33414e-006
1.34947e-006
9.69116e-006
1.20032e-007
1.20048e-007
1.20062e-007
1.20076e-007
1.20088e-007
1.20098e-007
1.20109e-007
1.20121e-007
1.20132e-007
1.20142e-007
1.20151e-007
1.2016e-007
1.20171e-007
1.20183e-007
1.20195e-007
1.20207e-007
1.20217e-007
1.20228e-007
1.20239e-007
1.20249e-007
1.20259e-007
1.20269e-007
1.2028e-007
1.2029e-007
1.20301e-007
1.20312e-007
1.20324e-007
1.20336e-007
1.20349e-007
1.20361e-007
1.20374e-007
1.20387e-007
1.204e-007
1.20413e-007
1.20426e-007
1.20439e-007
1.20452e-007
1.20465e-007
1.20477e-007
1.2049e-007
1.20502e-007
1.20515e-007
1.20527e-007
1.20539e-007
1.20551e-007
1.20563e-007
1.20575e-007
1.20587e-007
1.20599e-007
1.2061e-007
1.20621e-007
1.20632e-007
1.20643e-007
1.20654e-007
1.20665e-007
1.20675e-007
1.20685e-007
1.20696e-007
1.20706e-007
1.20716e-007
1.20727e-007
1.20737e-007
1.20748e-007
1.20758e-007
1.20768e-007
1.20778e-007
1.20788e-007
1.20797e-007
1.20806e-007
1.20815e-007
1.20824e-007
1.20833e-007
1.20842e-007
1.2085e-007
1.20858e-007
1.20866e-007
1.20874e-007
1.20882e-007
1.20889e-007
1.20897e-007
1.20903e-007
1.2091e-007
1.20917e-007
1.20923e-007
1.20928e-007
1.20934e-007
1.20939e-007
1.20944e-007
1.20949e-007
1.20953e-007
1.20958e-007
1.20962e-007
1.20967e-007
1.20971e-007
1.20976e-007
1.2098e-007
1.20984e-007
1.20987e-007
1.20991e-007
1.20994e-007
1.20996e-007
1.20998e-007
1.21e-007
1.21001e-007
1.21001e-007
1.21001e-007
1.21e-007
1.20998e-007
1.20995e-007
1.20992e-007
1.20987e-007
1.2098e-007
1.20972e-007
1.20962e-007
1.20951e-007
1.20939e-007
1.20927e-007
1.20915e-007
1.20905e-007
1.20895e-007
1.20884e-007
1.20872e-007
1.20856e-007
1.20843e-007
1.20822e-007
1.20803e-007
1.20784e-007
1.20763e-007
1.20735e-007
1.20746e-007
1.20739e-007
1.2049e-007
1.20772e-007
1.21493e-007
1.16969e-007
1.1054e-007
4.23801e-007
4.73342e-005
0.00379279
1.85114e-008
1.8515e-008
1.85179e-008
1.85205e-008
1.85232e-008
1.85263e-008
1.8529e-008
1.85312e-008
1.85334e-008
1.8536e-008
1.85389e-008
1.85419e-008
1.85444e-008
1.85466e-008
1.8549e-008
1.85516e-008
1.85544e-008
1.85572e-008
1.85601e-008
1.85632e-008
1.85663e-008
1.85696e-008
1.8573e-008
1.85766e-008
1.85801e-008
1.85836e-008
1.85871e-008
1.85906e-008
1.85942e-008
1.85977e-008
1.86013e-008
1.86049e-008
1.86086e-008
1.86123e-008
1.8616e-008
1.86197e-008
1.86235e-008
1.86273e-008
1.86312e-008
1.86349e-008
1.86387e-008
1.86425e-008
1.86463e-008
1.865e-008
1.86537e-008
1.86574e-008
1.86611e-008
1.86647e-008
1.86683e-008
1.8672e-008
1.86755e-008
1.86791e-008
1.86826e-008
1.86861e-008
1.86896e-008
1.8693e-008
1.86965e-008
1.86999e-008
1.87032e-008
1.87066e-008
1.871e-008
1.87133e-008
1.87166e-008
1.87198e-008
1.8723e-008
1.87261e-008
1.87292e-008
1.87322e-008
1.87351e-008
1.8738e-008
1.87408e-008
1.87436e-008
1.87464e-008
1.8749e-008
1.87517e-008
1.87542e-008
1.87567e-008
1.87592e-008
1.87616e-008
1.87639e-008
1.87662e-008
1.87684e-008
1.87705e-008
1.87725e-008
1.87745e-008
1.87764e-008
1.87782e-008
1.878e-008
1.87816e-008
1.8783e-008
1.87844e-008
1.87857e-008
1.87869e-008
1.87881e-008
1.87892e-008
1.87903e-008
1.87912e-008
1.87921e-008
1.87929e-008
1.87936e-008
1.87942e-008
1.87947e-008
1.8795e-008
1.87952e-008
1.87952e-008
1.87951e-008
1.87948e-008
1.87944e-008
1.87938e-008
1.87929e-008
1.87919e-008
1.87904e-008
1.87884e-008
1.8786e-008
1.87833e-008
1.87803e-008
1.8777e-008
1.87736e-008
1.87703e-008
1.8767e-008
1.87633e-008
1.87593e-008
1.87547e-008
1.87497e-008
1.87438e-008
1.87374e-008
1.87305e-008
1.87233e-008
1.87164e-008
1.86986e-008
1.86764e-008
1.90462e-008
1.87569e-008
1.64311e-008
2.28999e-008
3.24329e-007
3.00411e-005
0.00166795
0.025565
4.70975e-009
4.71064e-009
4.71151e-009
4.71254e-009
4.71348e-009
4.71421e-009
4.71504e-009
4.71602e-009
4.71714e-009
4.71813e-009
4.71895e-009
4.71978e-009
4.72076e-009
4.72196e-009
4.72316e-009
4.7243e-009
4.72544e-009
4.72659e-009
4.72775e-009
4.72893e-009
4.73013e-009
4.73132e-009
4.7325e-009
4.73367e-009
4.73487e-009
4.7361e-009
4.73738e-009
4.73869e-009
4.74003e-009