/*--------------------------------*- C++ -*----------------------------------*\
| =========                 |                                                 |
| \\      /  F ield         | OpenFOAM: The Open Source CFD Toolbox           |
|  \\    /   O peration     | Version:  5.x                                   |
|   \\  /    A nd           | Web:      www.OpenFOAM.org                      |
|    \\/     M anipulation  |                                                 |
\*---------------------------------------------------------------------------*/
/*   Windows 32 and 64 bit porting by blueCAPE: http://www.bluecape.com.pt   *\
|  Based on Windows porting (2.0.x v4) by Symscape: http://www.symscape.com   |
\*---------------------------------------------------------------------------*/
FoamFile
{
    version     2.0;
    format      ascii;
    class       volScalarField;
    location    "190";
    object      k;
}
// * * * * * * * * * * * * * * * * * * * * * * * * * * * * * * * * * * * * * //

dimensions      [0 2 -2 0 0 0 0];

internalField   nonuniform List<scalar> 
43900
(
0.000985493
0.000989452
0.000990251
0.000990182
0.00099013
0.000990121
0.000990122
0.000990118
0.000990116
0.000990117
0.000990119
0.000990122
0.000990125
0.000990127
0.000990129
0.000990131
0.000990132
0.000990134
0.000990134
0.000990135
0.000990136
0.000990136
0.000990137
0.000990137
0.000990138
0.000990138
0.000990138
0.000990139
0.000990139
0.00163413
5.57023e-005
3.89302e-005
3.81726e-005
4.08248e-005
4.09768e-005
4.09915e-005
4.09524e-005
4.09485e-005
4.09509e-005
4.09536e-005
4.09588e-005
4.09633e-005
4.09671e-005
4.09704e-005
4.09732e-005
4.09756e-005
4.09778e-005
4.09793e-005
4.09805e-005
4.09816e-005
4.09826e-005
4.09836e-005
4.09844e-005
4.09852e-005
4.09859e-005
4.09865e-005
4.09871e-005
4.09875e-005
0.29346
0.0535771
0.00402022
0.000114158
4.90501e-006
3.08337e-006
2.97801e-006
3.34802e-006
3.38208e-006
3.37312e-006
3.36964e-006
3.3711e-006
3.37283e-006
3.37369e-006
3.37441e-006
3.37514e-006
3.37581e-006
3.37637e-006
3.37688e-006
3.37734e-006
3.37776e-006
3.37815e-006
3.37851e-006
3.37882e-006
3.37912e-006
3.37939e-006
3.37963e-006
3.37987e-006
3.38004e-006
0.879053
0.375675
0.119349
0.0235074
0.00200952
7.70469e-005
3.76487e-006
5.75979e-007
4.5273e-007
5.11143e-007
5.3671e-007
5.33584e-007
5.29882e-007
5.30731e-007
5.31573e-007
5.31731e-007
5.31848e-007
5.3198e-007
5.32109e-007
5.32233e-007
5.32349e-007
5.3245e-007
5.32544e-007
5.3263e-007
5.32705e-007
5.32777e-007
5.32842e-007
5.32902e-007
5.32947e-007
1.28903
0.737838
0.39338
0.175222
0.0551169
0.00983408
0.000736409
3.10229e-005
1.36892e-006
1.94965e-007
1.24032e-007
1.37584e-007
1.50072e-007
1.47215e-007
1.45014e-007
1.45255e-007
1.45477e-007
1.45531e-007
1.45571e-007
1.45608e-007
1.45641e-007
1.45672e-007
1.45699e-007
1.45724e-007
1.45748e-007
1.45771e-007
1.45792e-007
1.45814e-007
1.4583e-007
1.54424
0.98052
0.612928
0.366105
0.195243
0.0797991
0.021275
0.0027502
0.000157752
6.90401e-006
3.58063e-007
7.29546e-008
5.09405e-008
5.90256e-008
6.28623e-008
6.15466e-008
6.09863e-008
6.09932e-008
6.10125e-008
6.10266e-008
6.10381e-008
6.10481e-008
6.10589e-008
6.10685e-008
6.10781e-008
6.10899e-008
6.10988e-008
6.11059e-008
6.11133e-008
1.71614
1.1523
0.774053
0.513691
0.329755
0.196906
0.098346
0.0330577
0.00612043
0.000482295
2.31781e-005
1.07507e-006
8.44497e-008
3.24083e-008
2.92175e-008
3.35829e-008
3.43463e-008
3.41732e-008
3.41324e-008
3.4136e-008
3.41417e-008
3.41474e-008
3.41521e-008
3.41566e-008
3.41625e-008
3.41669e-008
3.41716e-008
3.41787e-008
3.41831e-008
1.80475
1.24994
0.871109
0.606364
0.416902
0.278179
0.174473
0.0962375
0.0376354
0.00841319
0.000816229
4.33367e-005
2.1067e-006
1.23215e-007
2.82071e-008
1.8671e-008
1.96329e-008
2.0519e-008
2.0592e-008
2.05982e-008
2.06041e-008
2.06102e-008
2.0614e-008
2.06187e-008
2.06198e-008
2.06193e-008
2.06245e-008
2.06318e-008
2.06354e-008
1.87725
1.33191
0.953429
0.685141
0.490803
0.347021
0.238472
0.155082
0.0903057
0.0397413
0.0102658
0.00122265
7.44437e-005
3.88738e-006
2.1667e-007
2.6072e-008
1.44584e-008
1.31363e-008
1.33791e-008
1.34362e-008
1.3443e-008
1.34461e-008
1.34492e-008
1.34529e-008
1.34547e-008
1.34572e-008
1.34604e-008
1.34642e-008
1.34669e-008
1.90421
1.37312
1.00124
0.735396
0.54134
0.396744
0.286813
0.201632
0.134515
0.0809705
0.038378
0.0106361
0.00139007
9.20042e-005
5.09812e-006
2.88655e-007
2.72486e-008
1.29895e-008
1.15905e-008
1.14649e-008
1.14579e-008
1.14579e-008
1.14581e-008
1.14586e-008
1.14602e-008
1.14647e-008
1.14676e-008
1.1469e-008
1.14712e-008
1.90522
1.38964
1.02608
0.764762
0.573114
0.429766
0.320423
0.235398
0.168063
0.113883
0.0698535
0.0343303
0.00965323
0.00127858
8.83209e-005
5.14437e-006
3.01928e-007
2.76488e-008
1.23114e-008
1.14635e-008
1.14145e-008
1.14135e-008
1.14135e-008
1.14136e-008
1.14146e-008
1.14191e-008
1.14219e-008
1.14229e-008
1.14252e-008
1.8952
1.395
1.0401
0.783572
0.594607
0.452787
0.344367
0.259938
0.192989
0.138993
0.0948225
0.0584282
0.0287637
0.00775156
0.000963472
6.64546e-005
3.99125e-006
2.43041e-007
2.49325e-008
1.25082e-008
1.18219e-008
1.17876e-008
1.1787e-008
1.1787e-008
1.17874e-008
1.1792e-008
1.17931e-008
1.17939e-008
1.17947e-008
1.8709
1.38785
1.04248
0.791871
0.606609
0.467163
0.36031
0.27698
0.210847
0.157463
0.113696
0.077378
0.0471088
0.0222486
0.00533847
0.000575198
3.8238e-005
2.32482e-006
1.49742e-007
2.14379e-008
1.4022e-008
1.36065e-008
1.35879e-008
1.35796e-008
1.35797e-008
1.35841e-008
1.35706e-008
1.35657e-008
1.35657e-008
1.83466
1.36964
1.03581
0.791747
0.610838
0.47444
0.369734
0.287941
0.222953
0.17045
0.127363
0.091517
0.0614157
0.0361298
0.0152524
0.00295402
0.000261962
1.68114e-005
1.04078e-006
8.08857e-008
2.34576e-008
2.00816e-008
1.99073e-008
1.98564e-008
1.98178e-008
1.98171e-008
1.97541e-008
1.97402e-008
1.97401e-008
1.78957
1.34254
1.02082
0.7853
0.609398
0.476216
0.373949
0.293987
0.230389
0.178975
0.136758
0.101596
0.0719728
0.0468683
0.0257297
0.00860172
0.00121727
9.14727e-005
5.89679e-006
4.04609e-007
6.1444e-008
4.03855e-008
3.91549e-008
3.89601e-008
3.87498e-008
3.86183e-008
3.84593e-008
3.84162e-008
3.84168e-008
1.73803
1.30923
0.999655
0.772532
0.603019
0.474029
0.374309
0.296364
0.234356
0.184189
0.14296
0.108582
0.0795643
0.054866
0.0338351
0.0161558
0.00370692
0.000377917
2.68022e-005
1.86006e-006
2.07198e-007
9.95985e-008
9.27904e-008
9.21123e-008
9.12734e-008
9.05401e-008
9.03056e-008
8.99651e-008
8.98409e-008
1.68182
1.2715
0.974469
0.756005
0.592594
0.468338
0.372135
0.296286
0.235915
0.187052
0.146851
0.11329
0.0849139
0.0606904
0.0399285
0.0222681
0.00802325
0.00118865
9.84095e-005
7.25078e-006
7.20751e-007
2.64821e-007
2.33509e-007
2.30966e-007
2.28568e-007
2.25616e-007
2.25359e-007
2.23916e-007
2.2285e-007
1.62218
1.23055
0.946349
0.736835
0.579763
0.460066
0.367374
0.294369
0.235724
0.188188
0.149036
0.116301
0.0885765
0.0648521
0.0444317
0.0269145
0.0121566
0.0027846
0.000290019
2.35202e-005
2.3142e-006
7.09722e-007
5.91841e-007
5.82225e-007
5.74969e-007
5.65363e-007
5.63021e-007
5.58681e-007
5.55536e-007
1.5601
1.18736
0.916196
0.715849
0.565309
0.450323
0.361065
0.29066
0.234237
0.188121
0.150107
0.118248
0.0911899
0.0679625
0.0478866
0.0305375
0.0156743
0.00473426
0.000676021
6.27929e-005
6.55788e-006
1.87784e-006
1.49884e-006
1.46621e-006
1.45093e-006
1.42136e-006
1.40713e-006
1.39319e-006
1.38255e-006
1.49617
1.14251
0.884602
0.693614
0.549772
0.439638
0.353937
0.286172
0.231734
0.187316
0.150393
0.119404
0.0930264
0.0703208
0.0506214
0.0334933
0.0186921
0.00683068
0.001248
0.000138703
1.63207e-005
4.87157e-006
3.92241e-006
3.81922e-006
3.71294e-006
3.61747e-006
3.58781e-006
3.58729e-006
3.57209e-006
1.43074
1.09638
0.851928
0.670473
0.533474
0.42831
0.346258
0.281199
0.228786
0.185892
0.150235
0.12017
0.0944881
0.0722985
0.0529655
0.0360583
0.0213337
0.00898496
0.00205038
0.000284475
4.04669e-005
1.35034e-005
1.02303e-005
1.00841e-005
1.01327e-005
9.9722e-006
9.66042e-006
9.32884e-006
9.32889e-006
1.36412
1.04925
0.818413
0.646637
0.516605
0.416515
0.338195
0.275909
0.225575
0.184258
0.149823
0.120681
0.0957034
0.0740449
0.0550965
0.0384406
0.023839
0.0112428
0.00307893
0.000492672
7.49184e-005
2.46278e-005
2.01368e-005
1.91298e-005
1.84918e-005
1.84409e-005
1.86605e-005
1.878e-005
1.8564e-005
1.29661
1.00134
0.784246
0.622264
0.499303
0.404375
0.329865
0.270415
0.22221
0.182501
0.149286
0.121093
0.0968368
0.0757203
0.057163
0.0407623
0.0262826
0.013586
0.00441567
0.00085822
0.000143371
4.21229e-005
2.8446e-005
2.7485e-005
2.74504e-005
2.72133e-005
2.6449e-005
2.59885e-005
2.61788e-005
1.22847
0.952833
0.749553
0.597446
0.481636
0.391949
0.321317
0.264765
0.218742
0.180688
0.148735
0.121509
0.0979942
0.077439
0.0592952
0.0431774
0.0288481
0.0161269
0.00607216
0.00134971
0.000240845
6.16924e-005
3.79647e-005
3.39406e-005
3.31354e-005
3.33316e-005
3.37313e-005
3.36828e-005
3.30784e-005
1.15995
0.903905
0.714444
0.572245
0.463636
0.379244
0.312548
0.258948
0.215158
0.178805
0.148153
0.121925
0.0991739
0.079198
0.0614818
0.0456593
0.0314965
0.018832
0.00819969
0.00224087
0.000442158
0.000101536
4.79425e-005
4.12305e-005
4.01386e-005
3.90117e-005
3.8299e-005
3.83629e-005
3.89646e-005
1.09141
0.854764
0.679042
0.54673
0.445332
0.366266
0.303546
0.252945
0.211436
0.176828
0.14752
0.122329
0.100378
0.0810117
0.063749
0.048243
0.0342619
0.0216501
0.0105749
0.00333358
0.00073517
0.000164432
6.32485e-005
4.58633e-005
4.40826e-005
4.41694e-005
4.40112e-005
4.33906e-005
4.26486e-005
1.0232
0.805641
0.643489
0.52098
0.426765
0.353028
0.294309
0.246742
0.207556
0.17474
0.146822
0.122713
0.101603
0.0828871
0.0661174
0.0509695
0.0372219
0.0247392
0.0134621
0.00506016
0.00128151
0.000285814
8.89527e-005
5.46596e-005
4.80105e-005
4.66284e-005
4.67786e-005
4.71945e-005
4.7125e-005
0.955692
0.756774
0.607935
0.495084
0.407977
0.339543
0.284829
0.24032
0.203491
0.172509
0.146026
0.123046
0.102823
0.0847995
0.0685612
0.053805
0.0403213
0.0279855
0.0166889
0.00733144
0.00219691
0.000523321
0.00014103
6.64305e-005
5.34483e-005
5.0392e-005
4.94353e-005
4.94521e-005
4.94064e-005
0.889246
0.708401
0.572529
0.469128
0.389012
0.325823
0.275094
0.233651
0.199205
0.170092
0.145088
0.123283
0.103993
0.0867107
0.0710526
0.0567375
0.0435664
0.0314164
0.020175
0.010227
0.00357764
0.000941543
0.000244902
9.06817e-005
5.93604e-005
5.40873e-005
5.22156e-005
5.18776e-005
5.18219e-005
0.824219
0.66076
0.537426
0.443207
0.369919
0.311883
0.265097
0.226707
0.194654
0.167434
0.143935
0.123319
0.105027
0.088542
0.0735174
0.0596957
0.0468936
0.0349915
0.0238935
0.0136415
0.0057222
0.00171368
0.00045197
0.000141839
7.19839e-005
5.7503e-005
5.4951e-005
5.39271e-005
5.36277e-005
0.760947
0.614084
0.502783
0.41742
0.350757
0.297751
0.254838
0.219472
0.189807
0.164495
0.142533
0.123178
0.105889
0.0902334
0.0758868
0.0626084
0.0502258
0.0386258
0.0277366
0.017463
0.00855777
0.00306513
0.000865135
0.00025009
9.96416e-005
6.48875e-005
5.71843e-005
5.62214e-005
5.53494e-005
0.699735
0.568593
0.468754
0.391873
0.33159
0.28346
0.244331
0.211941
0.184649
0.16125
0.140853
0.122796
0.106553
0.0917636
0.078134
0.0654443
0.0535334
0.0422907
0.0316523
0.021535
0.0121305
0.00508112
0.00163799
0.000476031
0.000159991
8.12264e-005
6.20007e-005
5.77933e-005
5.7305e-005
0.640845
0.524482
0.435482
0.366667
0.312488
0.269055
0.233595
0.204116
0.179165
0.157675
0.13885
0.122095
0.106954
0.0930822
0.0802195
0.0681681
0.0567816
0.0459566
0.0356317
0.0257409
0.0162661
0.00806949
0.00297509
0.000926761
0.000291729
0.000117591
7.26504e-005
6.11819e-005
5.86938e-005
0.5845
0.481925
0.4031
0.341899
0.29352
0.254577
0.222654
0.196003
0.173347
0.153743
0.136487
0.121042
0.106979
0.0940871
0.082055
0.0707055
0.0599058
0.0495609
0.0396124
0.0300274
0.0207194
0.0119557
0.00527428
0.00180622
0.000574075
0.000200807
9.66031e-005
6.87442e-005
6.13308e-005
0.530876
0.441071
0.371728
0.317664
0.274754
0.240077
0.211537
0.187613
0.16719
0.149441
0.133744
0.119628
0.106733
0.0947985
0.0836088
0.0729937
0.0628281
0.0530204
0.0435103
0.0342696
0.0252814
0.0164686
0.00862658
0.00346363
0.00116095
0.000386897
0.000152627
8.57775e-005
6.71044e-005
0.480111
0.402045
0.341472
0.294049
0.25626
0.225604
0.200277
0.178965
0.160699
0.14476
0.130603
0.117817
0.106094
0.0951258
0.0848227
0.0749842
0.0654971
0.0562766
0.0472637
0.0384253
0.0297522
0.0212421
0.0129259
0.00614687
0.00230726
0.000785441
0.000280619
0.000125748
7.97267e-005
0.432305
0.364949
0.312427
0.271136
0.238106
0.211212
0.188914
0.170083
0.153886
0.139697
0.127043
0.115562
0.104967
0.095012
0.0856191
0.0765959
0.0678346
0.0592554
0.0508009
0.0424356
0.0341471
0.0259317
0.0178116
0.0100476
0.00438979
0.00160801
0.000564064
0.000218436
0.000109019
0.387524
0.329862
0.284674
0.249003
0.22036
0.196958
0.177491
0.160998
0.146767
0.134259
0.123063
0.112864
0.103414
0.0945251
0.0860023
0.0778152
0.0698113
0.0619152
0.0540707
0.0462401
0.0384064
0.03057
0.0227159
0.0149322
0.00780498
0.00319831
0.00117424
0.000429408
0.000177611
0.345802
0.296846
0.258284
0.227718
0.203087
0.182898
0.166055
0.151748
0.139368
0.128458
0.118663
0.109711
0.101385
0.0935152
0.0858981
0.0785675
0.0713551
0.064186
0.0570039
0.0497686
0.0424566
0.035065
0.027594
0.0200275
0.0125585
0.00611041
0.00242659
0.000901267
0.000337129
0.307141
0.265936
0.233312
0.207346
0.18635
0.169092
0.154659
0.142373
0.131722
0.122316
0.113853
0.106098
0.0988626
0.091995
0.0853685
0.0788248
0.0724276
0.0660187
0.0595429
0.0529572
0.0462314
0.0393537
0.0323201
0.0251431
0.0178023
0.0106221
0.00484626
0.001908
0.000703557
0.271515
0.237153
0.209799
0.187939
0.170207
0.155597
0.143356
0.132921
0.123866
0.115861
0.108652
0.102035
0.0958476
0.0899583
0.0842607
0.0785961
0.0729876
0.0673621
0.0616278
0.0557391
0.0496595
0.0433662
0.0368454
0.0300999
0.0231461
0.0159718
0.00903308
0.00395069
0.00151363
0.238868
0.21049
0.187773
0.169544
0.154713
0.14247
0.132201
0.123445
0.115847
0.109133
0.103088
0.0975388
0.0923462
0.0873947
0.0825885
0.0778456
0.0729668
0.0681462
0.0631873
0.0580407
0.052664
0.0470239
0.0410969
0.0348676
0.0283399
0.0215456
0.0144492
0.00774735
0.00322437
0.20912
0.185923
0.167243
0.152192
0.139915
0.129767
0.121254
0.114001
0.107717
0.102177
0.0971997
0.09264
0.0883782
0.0843144
0.0803629
0.0764471
0.0724789
0.0683475
0.0641778
0.059803
0.055175
0.0502506
0.0449944
0.0393745
0.0333742
0.0269998
0.0202719
0.0132022
0.00651363
0.18216
0.163406
0.148206
0.135907
0.125853
0.117539
0.110571
0.104649
0.0995366
0.0950493
0.0910378
0.0873807
0.0839767
0.08074
0.0775961
0.0744795
0.0713403
0.0680234
0.0645569
0.0609706
0.0571262
0.0529713
0.0484577
0.0435379
0.0381746
0.0323416
0.0260226
0.0193588
0.0118505
0.157859
0.142871
0.130638
0.120698
0.112559
0.105831
0.100208
0.095449
0.0913671
0.0878117
0.0846609
0.0818143
0.0791876
0.0767081
0.0743119
0.0719419
0.0695479
0.067076
0.0643514
0.0614952
0.0584555
0.0551126
0.051406
0.0472732
0.0426527
0.0375022
0.0317185
0.0255036
0.0184265
0.136065
0.124234
0.114504
0.106564
0.100055
0.0946846
0.0902161
0.0864623
0.0832742
0.0805314
0.0781354
0.0760046
0.0740694
0.0722697
0.0705518
0.0688669
0.0671695
0.0654125
0.0635428
0.0613811
0.0591095
0.0566062
0.0537583
0.0504915
0.0467205
0.0423805
0.0373349
0.0315956
0.0252894
0.116612
0.107399
0.099755
0.0934896
0.0883541
0.0841318
0.0806441
0.0777466
0.0753228
0.0732778
0.0715328
0.0700224
0.0686905
0.0674883
0.066372
0.0653015
0.0642384
0.063144
0.0619811
0.0606756
0.059071
0.0573994
0.055437
0.0530981
0.0502784
0.0468785
0.0427601
0.037722
0.0320925
0.0993266
0.0922542
0.0863298
0.0814528
0.0774605
0.074198
0.0715326
0.0693551
0.0675757
0.0661201
0.0649267
0.0639436
0.0631266
0.0624375
0.0618417
0.0613078
0.0608058
0.0603051
0.0597771
0.0591923
0.0584455
0.0574364
0.0563679
0.0549942
0.0532089
0.0508805
0.0478719
0.0438376
0.0389442
0.0840282
0.0786856
0.0741611
0.0704214
0.0673701
0.0649004
0.0629161
0.0613357
0.0600912
0.0591253
0.0583902
0.0578458
0.0574581
0.0571982
0.0570405
0.0569627
0.0569392
0.0569524
0.0569834
0.0570012
0.0569918
0.0568603
0.0565042
0.0560897
0.0553808
0.0542276
0.0525106
0.049789
0.0459347
0.0705389
0.0665748
0.0631761
0.0603573
0.0580717
0.0562491
0.0548217
0.0537299
0.0529226
0.0523567
0.051995
0.0518073
0.0517696
0.0518564
0.0520592
0.052359
0.0527367
0.0531817
0.0536849
0.054234
0.0548206
0.0554399
0.0559469
0.0562993
0.0566496
0.0566612
0.0563895
0.0553398
0.0529943
0.0586863
0.0558046
0.0532997
0.0512179
0.0495483
0.0482481
0.047271
0.0465739
0.0461189
0.0458756
0.0458128
0.0459076
0.0461493
0.046524
0.0470137
0.0476109
0.0483069
0.049098
0.0499836
0.050963
0.0520424
0.0532213
0.0545065
0.0557429
0.0569598
0.0582268
0.0594841
0.0598636
0.0593496
0.0483072
0.046262
0.0444572
0.0429582
0.0417795
0.0408977
0.0402822
0.039902
0.0397283
0.0397463
0.039913
0.0402454
0.0407118
0.041308
0.0420229
0.0428533
0.0437962
0.0448549
0.0460344
0.0473459
0.0488051
0.0504249
0.05224
0.054242
0.0563901
0.0585592
0.0613102
0.0634493
0.0650495
0.0392514
0.0378411
0.0365769
0.0355346
0.0347456
0.0342001
0.0338781
0.0337558
0.0338145
0.0340352
0.0344073
0.0349232
0.0355691
0.0363426
0.0372353
0.0382484
0.03938
0.0406418
0.0420383
0.043596
0.0453249
0.0472665
0.0494563
0.0519301
0.0548488
0.0579235
0.0618663
0.0653469
0.0698638
0.031384
0.0304458
0.0295945
0.028911
0.0284381
0.0281739
0.0281023
0.0281999
0.0284557
0.0288635
0.0294004
0.0300692
0.030863
0.0317836
0.0328209
0.0339844
0.0352643
0.03669
0.0382529
0.0400199
0.0419614
0.0441988
0.0466645
0.0495566
0.0529331
0.0566875
0.0618677
0.0661578
0.0738754
0.0245923
0.0239984
0.0234642
0.0230756
0.0228837
0.0228861
0.0230494
0.0233633
0.0237989
0.0243706
0.0250455
0.0258422
0.0267591
0.027811
0.028981
0.0303026
0.0317528
0.0334044
0.0352054
0.037343
0.0396372
0.0425192
0.0454451
0.0494393
0.0533544
0.058281
0.0643639
0.0699259
0.0820938
0.0188032
0.0184608
0.0181888
0.018084
0.0182028
0.0185111
0.0189539
0.0194813
0.0200708
0.0207861
0.0215676
0.0224744
0.0235196
0.0247633
0.0261723
0.0278598
0.0297584
0.0321165
0.0347633
0.0381995
0.0417172
0.0468409
0.0514757
0.0594097
0.0653546
0.0769638
0.0854238
0.0996799
0.116056
0.0140351
0.0138939
0.0138936
0.014145
0.0147116
0.015457
0.0162497
0.0170237
0.0177523
0.0186411
0.0195642
0.020698
0.0221031
0.0240009
0.0263439
0.0293718
0.0330075
0.0380309
0.0439229
0.0525338
0.0619131
0.0763777
0.0900352
0.113534
0.131894
0.169286
0.194015
0.254636
0.281433
0.0105092
0.0105723
0.0109313
0.011729
0.0129812
0.0144156
0.0158138
0.0171229
0.0182643
0.0197402
0.0213075
0.023463
0.0264253
0.0308164
0.0365341
0.0445009
0.0544644
0.0679678
0.0841532
0.105893
0.130868
0.164764
0.201551
0.254489
0.307683
0.395124
0.474167
0.640022
0.73798
0.00869709
0.00899521
0.00984886
0.0114043
0.0136471
0.0162504
0.0189787
0.0218209
0.0246632
0.0283324
0.0325298
0.0382129
0.0458272
0.0563702
0.0697371
0.08716
0.108628
0.136019
0.169117
0.210951
0.260872
0.323957
0.398402
0.49558
0.610268
0.771317
0.965351
1.26435
1.56245
0.000990139
0.00099014
0.00099014
0.00099014
0.00099014
0.000990141
0.000990141
0.000990141
0.000990142
0.000990142
0.000990142
0.000990142
0.000990143
0.000990143
0.000990143
0.000990144
0.000990144
0.000990144
0.000990145
0.000990145
0.000990145
0.000990145
0.000990146
0.000990146
0.000990146
0.000990146
0.000990147
0.000990147
0.000990147
0.000990148
0.000990148
0.000990148
0.000990149
0.000990149
0.000990149
0.000990149
0.000990149
0.00099015
0.00099015
0.00099015
0.00099015
0.00099015
0.00099015
0.000990151
0.000990151
0.000990151
0.000990151
0.000990151
0.000990151
0.000990151
0.000990151
0.000990152
0.000990152
0.000990152
0.000990152
0.000990152
0.000990152
0.000990152
0.000990152
0.000990153
0.000990153
0.000990153
0.000990153
0.000990153
0.000990153
0.000990153
0.000990153
0.000990153
0.000990154
0.000990154
0.000990154
0.000990154
0.000990154
0.000990154
0.000990154
0.000990154
0.000990154
0.000990154
0.000990154
0.000990154
0.000990155
0.000990155
0.000990155
0.000990155
0.000990155
0.000990155
0.000990155
0.000990155
0.000990155
0.000990155
0.000990155
0.000990155
0.000990155
0.000990155
0.000990155
0.000990155
0.000990155
0.000990155
0.000990155
0.000990155
0.000990155
0.000990155
0.000990155
0.000990155
0.000990155
0.000990155
0.000990155
0.000990155
0.000990155
0.000990155
0.000990155
0.000990155
0.000990154
0.000990154
0.000990154
0.000990154
0.000990153
0.000990153
0.000990153
0.000990154
0.000990154
0.000990154
0.000990154
0.000990155
0.000990155
0.000990155
0.000990155
0.000990156
0.000990156
0.000990156
0.000990158
0.000990158
0.000990159
0.000990162
0.000990161
0.000990165
0.000990165
0.000990174
0.00100825
4.09881e-005
4.09888e-005
4.09894e-005
4.099e-005
4.09904e-005
4.09908e-005
4.09914e-005
4.09919e-005
4.09924e-005
4.09928e-005
4.09931e-005
4.09936e-005
4.09942e-005
4.09948e-005
4.09954e-005
4.0996e-005
4.09965e-005
4.0997e-005
4.09975e-005
4.0998e-005
4.09984e-005
4.09988e-005
4.09992e-005
4.09997e-005
4.10002e-005
4.10006e-005
4.10011e-005
4.10016e-005
4.10021e-005
4.10026e-005
4.10031e-005
4.10036e-005
4.10041e-005
4.10046e-005
4.10049e-005
4.10053e-005
4.10056e-005
4.10059e-005
4.10062e-005
4.10065e-005
4.10068e-005
4.10071e-005
4.10074e-005
4.10077e-005
4.1008e-005
4.10082e-005
4.10085e-005
4.10087e-005
4.1009e-005
4.10092e-005
4.10094e-005
4.10097e-005
4.10099e-005
4.10101e-005
4.10103e-005
4.10105e-005
4.10107e-005
4.10109e-005
4.10112e-005
4.10114e-005
4.10116e-005
4.10118e-005
4.1012e-005
4.10122e-005
4.10124e-005
4.10126e-005
4.10128e-005
4.10129e-005
4.10131e-005
4.10133e-005
4.10135e-005
4.10137e-005
4.10138e-005
4.1014e-005
4.10141e-005
4.10143e-005
4.10144e-005
4.10145e-005
4.10147e-005
4.10148e-005
4.10149e-005
4.1015e-005
4.1015e-005
4.10151e-005
4.10151e-005
4.10151e-005
4.10151e-005
4.1015e-005
4.10151e-005
4.10153e-005
4.10155e-005
4.10158e-005
4.10159e-005
4.10161e-005
4.10163e-005
4.10164e-005
4.10165e-005
4.10166e-005
4.10166e-005
4.10166e-005
4.10166e-005
4.10166e-005
4.10166e-005
4.10166e-005
4.10165e-005
4.10164e-005
4.10164e-005
4.10163e-005
4.10162e-005
4.1016e-005
4.10157e-005
4.10155e-005
4.10152e-005
4.10149e-005
4.10144e-005
4.10138e-005
4.10134e-005
4.10132e-005
4.10134e-005
4.10137e-005
4.10141e-005
4.10145e-005
4.10148e-005
4.10152e-005
4.10152e-005
4.1016e-005
4.10155e-005
4.10168e-005
4.10166e-005
4.10172e-005
4.1019e-005
4.10193e-005
4.10211e-005
4.10253e-005
4.10231e-005
4.10287e-005
4.10619e-005
4.1051e-005
4.1379e-005
3.38028e-006
3.38057e-006
3.38079e-006
3.38098e-006
3.38118e-006
3.38137e-006
3.38153e-006
3.38167e-006
3.38182e-006
3.38197e-006
3.38213e-006
3.38227e-006
3.38239e-006
3.38251e-006
3.38263e-006
3.38277e-006
3.3829e-006
3.38303e-006
3.38316e-006
3.38329e-006
3.38344e-006
3.38359e-006
3.38373e-006
3.38389e-006
3.38404e-006
3.38419e-006
3.38434e-006
3.38449e-006
3.38464e-006
3.38479e-006
3.38494e-006
3.38509e-006
3.38524e-006
3.3854e-006
3.38554e-006
3.38568e-006
3.38581e-006
3.38594e-006
3.38607e-006
3.3862e-006
3.38633e-006
3.38645e-006
3.38658e-006
3.38671e-006
3.38683e-006
3.38695e-006
3.38707e-006
3.38719e-006
3.38731e-006
3.38742e-006
3.38753e-006
3.38764e-006
3.38775e-006
3.38785e-006
3.38795e-006
3.38805e-006
3.38815e-006
3.38824e-006
3.38833e-006
3.38842e-006
3.38851e-006
3.3886e-006
3.3887e-006
3.38879e-006
3.38889e-006
3.38898e-006
3.38907e-006
3.38916e-006
3.38924e-006
3.38933e-006
3.38941e-006
3.38949e-006
3.38957e-006
3.38965e-006
3.38972e-006
3.38979e-006
3.38986e-006
3.38992e-006
3.38998e-006
3.39003e-006
3.39008e-006
3.39014e-006
3.39018e-006
3.39023e-006
3.39027e-006
3.39031e-006
3.39034e-006
3.39037e-006
3.39042e-006
3.39047e-006
3.39054e-006
3.3906e-006
3.39066e-006
3.39072e-006
3.39078e-006
3.39083e-006
3.39088e-006
3.39093e-006
3.39098e-006
3.39102e-006
3.39105e-006
3.39108e-006
3.3911e-006
3.39112e-006
3.39112e-006
3.39112e-006
3.3911e-006
3.39108e-006
3.39105e-006
3.391e-006
3.39093e-006
3.39084e-006
3.39073e-006
3.39061e-006
3.39047e-006
3.39033e-006
3.39021e-006
3.39013e-006
3.39008e-006
3.39005e-006
3.39001e-006
3.38996e-006
3.38981e-006
3.38981e-006
3.38954e-006
3.38953e-006
3.3893e-006
3.38917e-006
3.38913e-006
3.38905e-006
3.3891e-006
3.38963e-006
3.38885e-006
3.38937e-006
3.39482e-006
3.39726e-006
3.00164e-006
3.15615e-006
5.00539e-005
5.33008e-007
5.33078e-007
5.33138e-007
5.33195e-007
5.33244e-007
5.3329e-007
5.33336e-007
5.33385e-007
5.33432e-007
5.33473e-007
5.33511e-007
5.33552e-007
5.33599e-007
5.33649e-007
5.33698e-007
5.33745e-007
5.33791e-007
5.33836e-007
5.3388e-007
5.33925e-007
5.3397e-007
5.34014e-007
5.3406e-007
5.34106e-007
5.34155e-007
5.34205e-007
5.34256e-007
5.34309e-007
5.34363e-007
5.34417e-007
5.34473e-007
5.34528e-007
5.34585e-007
5.34642e-007
5.34699e-007
5.34756e-007
5.34813e-007
5.34869e-007
5.34925e-007
5.34981e-007
5.35036e-007
5.35091e-007
5.35145e-007
5.35199e-007
5.35252e-007
5.35305e-007
5.35357e-007
5.35409e-007
5.3546e-007
5.3551e-007
5.3556e-007
5.35609e-007
5.35657e-007
5.35705e-007
5.35752e-007
5.35798e-007
5.35844e-007
5.35889e-007
5.35935e-007
5.3598e-007
5.36027e-007
5.36074e-007
5.36121e-007
5.36166e-007
5.36211e-007
5.36255e-007
5.36298e-007
5.3634e-007
5.36381e-007
5.36421e-007
5.36461e-007
5.365e-007
5.36538e-007
5.36576e-007
5.36612e-007
5.36647e-007
5.36682e-007
5.36716e-007
5.36749e-007
5.36782e-007
5.36813e-007
5.36842e-007
5.36871e-007
5.36898e-007
5.36924e-007
5.36949e-007
5.36973e-007
5.36995e-007
5.37015e-007
5.37035e-007
5.37054e-007
5.37074e-007
5.37093e-007
5.37113e-007
5.37131e-007
5.37149e-007
5.37167e-007
5.37183e-007
5.37198e-007
5.37211e-007
5.37223e-007
5.37232e-007
5.37239e-007
5.37243e-007
5.37245e-007
5.37244e-007
5.3724e-007
5.37233e-007
5.37222e-007
5.37208e-007
5.37188e-007
5.37159e-007
5.37121e-007
5.37078e-007
5.37029e-007
5.36977e-007
5.36923e-007
5.3687e-007
5.36823e-007
5.36778e-007
5.3673e-007
5.36678e-007
5.36606e-007
5.36551e-007
5.36457e-007
5.36373e-007
5.36287e-007
5.36192e-007
5.36071e-007
5.36123e-007
5.36134e-007
5.34165e-007
5.36283e-007
5.42031e-007
5.04762e-007
4.80188e-007
4.2015e-006
0.000582254
0.029421
1.45851e-007
1.45877e-007
1.45898e-007
1.45917e-007
1.45938e-007
1.45959e-007
1.45978e-007
1.45995e-007
1.46012e-007
1.46031e-007
1.46052e-007
1.46073e-007
1.4609e-007
1.46107e-007
1.46126e-007
1.46146e-007
1.46166e-007
1.46187e-007
1.46209e-007
1.46231e-007
1.46255e-007
1.46279e-007
1.46304e-007
1.4633e-007
1.46355e-007
1.46381e-007
1.46406e-007
1.46432e-007
1.46458e-007
1.46485e-007
1.46511e-007
1.46538e-007
1.46566e-007
1.46593e-007
1.4662e-007
1.46648e-007
1.46677e-007
1.46705e-007
1.46733e-007
1.46762e-007
1.4679e-007
1.46818e-007
1.46846e-007
1.46874e-007
1.46902e-007
1.4693e-007
1.46957e-007
1.46984e-007
1.47011e-007
1.47039e-007
1.47065e-007
1.47092e-007
1.47119e-007
1.47145e-007
1.47171e-007
1.47197e-007
1.47223e-007
1.47248e-007
1.47274e-007
1.47299e-007
1.47325e-007
1.4735e-007
1.47374e-007
1.47399e-007
1.47423e-007
1.47446e-007
1.47469e-007
1.47492e-007
1.47514e-007
1.47535e-007
1.47557e-007
1.47578e-007
1.47598e-007
1.47618e-007
1.47638e-007
1.47657e-007
1.47676e-007
1.47694e-007
1.47712e-007
1.4773e-007
1.47747e-007
1.47764e-007
1.4778e-007
1.47795e-007
1.4781e-007
1.47825e-007
1.47839e-007
1.47852e-007
1.47864e-007
1.47875e-007
1.47885e-007
1.47894e-007
1.47903e-007
1.47912e-007
1.4792e-007
1.47927e-007
1.47934e-007
1.47941e-007
1.47946e-007
1.47951e-007
1.47955e-007
1.47959e-007
1.47961e-007
1.47962e-007
1.47962e-007
1.47961e-007
1.47959e-007
1.47956e-007
1.47951e-007
1.47945e-007
1.47937e-007
1.47927e-007
1.47912e-007
1.47894e-007
1.47874e-007
1.47851e-007
1.47827e-007
1.47801e-007
1.47776e-007
1.47751e-007
1.47724e-007
1.47695e-007
1.47661e-007
1.47624e-007
1.47581e-007
1.47533e-007
1.47482e-007
1.47427e-007
1.47379e-007
1.47172e-007
1.46724e-007
1.52584e-007
1.47653e-007
1.26083e-007
2.34275e-007
6.32412e-006
0.000554136
0.0209048
0.198966
6.11248e-008
6.11343e-008
6.11436e-008
6.11543e-008
6.11644e-008
6.11721e-008
6.11817e-008
6.11927e-008
6.12041e-008
6.12142e-008
6.12228e-008
6.12324e-008
6.12435e-008
6.12565e-008
6.12686e-008
6.12805e-008
6.12924e-008
6.13045e-008
6.13168e-008
6.13292e-008
6.13418e-008
6.13543e-008
6.13666e-008
6.1379e-008
6.13918e-008
6.1405e-008
6.14187e-008
6.14327e-008
6.14468e-008
6.1461e-008
6.14754e-008
6.14899e-008
6.15044e-008
6.15191e-008
6.15339e-008
6.15488e-008
6.15638e-008
6.15789e-008
6.15939e-008
6.1609e-008
6.1624e-008
6.16392e-008
6.16542e-008
6.16692e-008
6.16842e-008
6.16991e-008
6.1714e-008
6.17288e-008
6.17436e-008
6.17583e-008
6.17729e-008
6.17875e-008
6.1802e-008
6.18164e-008
6.18308e-008
6.18449e-008
6.1859e-008
6.1873e-008
6.18869e-008
6.19007e-008
6.19143e-008
6.19275e-008
6.19406e-008
6.19535e-008
6.19661e-008
6.19786e-008
6.19909e-008
6.20029e-008
6.20147e-008
6.20263e-008
6.20377e-008
6.2049e-008
6.20599e-008
6.20705e-008
6.20811e-008
6.20913e-008
6.21014e-008
6.21111e-008
6.21205e-008
6.21298e-008
6.21388e-008
6.21476e-008
6.21562e-008
6.21644e-008
6.21723e-008
6.218e-008
6.21874e-008
6.21946e-008
6.22012e-008
6.22072e-008
6.22126e-008
6.22176e-008
6.22223e-008
6.22266e-008
6.22305e-008
6.2234e-008
6.22371e-008
6.22398e-008
6.22421e-008
6.22439e-008
6.22451e-008
6.22461e-008
6.22462e-008
6.22461e-008
6.22453e-008
6.22441e-008
6.22423e-008
6.22399e-008
6.22366e-008
6.22326e-008
6.22282e-008
6.22229e-008
6.22161e-008
6.22078e-008
6.21985e-008
6.2188e-008
6.21763e-008
6.21636e-008
6.21509e-008
6.21378e-008
6.21233e-008
6.21078e-008
6.20894e-008
6.20707e-008
6.2048e-008
6.2025e-008
6.20004e-008
6.19677e-008
6.19281e-008
6.21858e-008
6.47577e-008
5.27126e-008
5.93313e-008
3.20801e-007
1.67516e-005
0.000946433
0.0222005
0.164312
0.600295
3.41882e-008
3.41972e-008
3.42059e-008
3.42136e-008
3.42215e-008
3.42309e-008
3.42402e-008
3.42485e-008
3.42564e-008
3.42656e-008
3.42764e-008
3.42882e-008
3.42985e-008
3.43076e-008
3.4317e-008
3.43277e-008
3.43386e-008
3.43497e-008
3.4361e-008
3.43723e-008
3.43837e-008
3.43956e-008
3.4408e-008
3.4421e-008
3.44342e-008
3.44472e-008
3.44601e-008
3.44731e-008
3.4486e-008
3.44991e-008
3.45124e-008
3.45257e-008
3.4539e-008
3.45525e-008
3.4566e-008
3.45796e-008
3.45932e-008
3.46067e-008
3.46203e-008