/*--------------------------------*- C++ -*----------------------------------*\
| =========                 |                                                 |
| \\      /  F ield         | OpenFOAM: The Open Source CFD Toolbox           |
|  \\    /   O peration     | Version:  5.x                                   |
|   \\  /    A nd           | Web:      www.OpenFOAM.org                      |
|    \\/     M anipulation  |                                                 |
\*---------------------------------------------------------------------------*/
/*   Windows 32 and 64 bit porting by blueCAPE: http://www.bluecape.com.pt   *\
|  Based on Windows porting (2.0.x v4) by Symscape: http://www.symscape.com   |
\*---------------------------------------------------------------------------*/
FoamFile
{
    version     2.0;
    format      ascii;
    class       volScalarField;
    location    "190";
    object      nut;
}
// * * * * * * * * * * * * * * * * * * * * * * * * * * * * * * * * * * * * * //

dimensions      [0 2 -1 0 0 0 0];

internalField   nonuniform List<scalar> 
43900
(
5.7157e-005
5.80021e-005
5.80696e-005
5.80646e-005
5.80597e-005
5.8059e-005
5.8059e-005
5.80587e-005
5.80586e-005
5.80587e-005
5.80588e-005
5.80591e-005
5.80593e-005
5.80595e-005
5.80596e-005
5.80597e-005
5.80599e-005
5.806e-005
5.806e-005
5.80601e-005
5.80601e-005
5.80602e-005
5.80602e-005
5.80602e-005
5.80603e-005
5.80603e-005
5.80603e-005
5.80604e-005
5.80604e-005
0.00058557
7.33287e-006
4.30743e-006
4.16004e-006
4.58189e-006
4.60717e-006
4.60948e-006
4.6035e-006
4.60295e-006
4.60325e-006
4.60357e-006
4.60417e-006
4.60468e-006
4.60513e-006
4.6055e-006
4.60582e-006
4.6061e-006
4.60635e-006
4.60653e-006
4.60667e-006
4.6068e-006
4.60692e-006
4.60703e-006
4.60713e-006
4.60722e-006
4.6073e-006
4.60738e-006
4.60745e-006
4.6075e-006
0.152934
0.0452647
0.00511469
0.000104714
1.27863e-006
6.44324e-007
6.01412e-007
7.15188e-007
7.25506e-007
7.22749e-007
7.21591e-007
7.21944e-007
7.2237e-007
7.22538e-007
7.22678e-007
7.22831e-007
7.22971e-007
7.23091e-007
7.23198e-007
7.23297e-007
7.23386e-007
7.2347e-007
7.23546e-007
7.23614e-007
7.23678e-007
7.23734e-007
7.23788e-007
7.23838e-007
7.23874e-007
0.475228
0.291071
0.133357
0.0382243
0.00449568
0.000165063
3.90022e-006
2.47063e-007
1.70208e-007
2.00783e-007
2.15571e-007
2.13752e-007
2.11551e-007
2.12015e-007
2.12474e-007
2.12533e-007
2.12571e-007
2.1262e-007
2.1267e-007
2.12718e-007
2.12763e-007
2.12802e-007
2.12838e-007
2.12871e-007
2.129e-007
2.12928e-007
2.12953e-007
2.12976e-007
2.12993e-007
0.755768
0.580249
0.412616
0.247494
0.105233
0.0255948
0.00242288
0.000106124
2.41901e-006
1.67858e-007
8.45104e-008
9.50666e-008
1.08019e-007
1.05019e-007
1.027e-007
1.02949e-007
1.03169e-007
1.03212e-007
1.03239e-007
1.03263e-007
1.03286e-007
1.03307e-007
1.03324e-007
1.03341e-007
1.03356e-007
1.03371e-007
1.03386e-007
1.034e-007
1.0341e-007
0.96292
0.794517
0.637821
0.485576
0.333016
0.179541
0.0628546
0.0104941
0.000695559
3.03743e-005
8.1268e-007
9.98383e-008
5.58754e-008
6.77505e-008
7.45962e-008
7.22496e-008
7.12416e-008
7.12491e-008
7.12747e-008
7.12919e-008
7.13039e-008
7.13144e-008
7.1327e-008
7.13368e-008
7.13475e-008
7.13616e-008
7.13702e-008
7.13769e-008
7.13848e-008
1.12503
0.962216
0.813439
0.672408
0.534135
0.395099
0.249659
0.107213
0.025524
0.00240209
0.000124174
5.29899e-006
2.20151e-007
6.09525e-008
4.77238e-008
5.85864e-008
6.0953e-008
6.04525e-008
6.03233e-008
6.03249e-008
6.03344e-008
6.03434e-008
6.03495e-008
6.03571e-008
6.03673e-008
6.03726e-008
6.03803e-008
6.03927e-008
6.04001e-008
1.23144
1.07324
0.930264
0.796909
0.66854
0.541392
0.412627
0.281934
0.14098
0.0397646
0.00462127
0.000265057
1.31092e-005
5.44239e-007
8.46818e-008
4.40335e-008
4.50156e-008
4.83848e-008
4.87124e-008
4.87303e-008
4.87449e-008
4.87598e-008
4.87693e-008
4.87807e-008
4.87774e-008
4.87719e-008
4.8785e-008
4.88045e-008
4.88136e-008
1.33138
1.17595
1.0363
0.907334
0.784827
0.665252
0.545793
0.424462
0.300096
0.168466
0.0544119
0.00781824
0.000518516
2.80572e-005
1.4166e-006
9.93464e-008
4.80564e-008
3.83321e-008
3.91086e-008
3.94166e-008
3.94517e-008
3.946e-008
3.94681e-008
3.94798e-008
3.94828e-008
3.94882e-008
3.9498e-008
3.95074e-008
3.95135e-008
1.39047
1.24125
1.10742
0.984874
0.869591
0.758212
0.647944
0.536538
0.422212
0.303343
0.180248
0.0620631
0.00974116
0.000700681
4.02967e-005
2.21e-006
1.38219e-007
5.58861e-008
4.61169e-008
4.46657e-008
4.45251e-008
4.45102e-008
4.45015e-008
4.44961e-008
4.44951e-008
4.45147e-008
4.45206e-008
4.45176e-008
4.45237e-008
1.43172
1.28519
1.1561
1.0386
0.929278
0.824882
0.722653
0.620289
0.515924
0.408117
0.296042
0.18014
0.0624748
0.00981727
0.00072959
4.3921e-005
2.53694e-006
1.72769e-007
6.12209e-008
5.70841e-008
5.6609e-008
5.65883e-008
5.65838e-008
5.65778e-008
5.65741e-008
5.65867e-008
5.65943e-008
5.65957e-008
5.66027e-008
1.4656
1.32157
1.19495
1.08103
0.975554
0.875904
0.779443
0.683919
0.587454
0.488559
0.386163
0.279712
0.169614
0.0560174
0.00811005
0.000592809
3.65436e-005
2.1855e-006
1.70467e-007
6.81155e-008
6.37497e-008
6.35586e-008
6.3553e-008
6.3552e-008
6.35508e-008
6.35565e-008
6.35624e-008
6.35682e-008
6.35709e-008
1.48675
1.34607
1.22108
1.11015
1.00875
0.913112
0.821348
0.731315
0.641188
0.549463
0.45497
0.356883
0.254742
0.148653
0.0433731
0.0052961
0.000366544
2.26787e-005
1.40311e-006
1.5034e-007
8.49052e-008
8.14053e-008
8.12481e-008
8.11546e-008
8.11544e-008
8.11553e-008
8.10326e-008
8.09736e-008
8.09695e-008
1.49638
1.35968
1.23863
1.12879
1.02994
0.938752
0.851063
0.765566
0.680546
0.594549
0.506408
0.415234
0.320385
0.221323
0.116567
0.0269983
0.0026099
0.000171512
1.06899e-005
7.63893e-007
1.78815e-007
1.46285e-007
1.44656e-007
1.44126e-007
1.43623e-007
1.43579e-007
1.42967e-007
1.42768e-007
1.42767e-007
1.49689
1.36352
1.24632
1.14123
1.04383
0.953946
0.870487
0.788808
0.707872
0.626497
0.543519
0.458018
0.369295
0.276813
0.180012
0.0754086
0.0123017
0.000966981
6.31234e-005
4.30763e-006
6.01439e-007
3.75287e-007
3.62584e-007
3.60309e-007
3.57328e-007
3.55496e-007
3.53914e-007
3.53124e-007
3.53134e-007
1.49037
1.3603
1.24602
1.14404
1.05132
0.964047
0.880961
0.802996
0.725967
0.648502
0.569793
0.488943
0.405268
0.318251
0.227366
0.130894
0.0366508
0.00407441
0.000294756
2.0657e-005
2.32367e-006
1.12085e-006
1.04701e-006
1.03891e-006
1.02595e-006
1.01416e-006
1.01428e-006
1.00732e-006
1.00452e-006
1.47871
1.35203
1.24078
1.14158
1.05159
0.968377
0.889105
0.811547
0.737447
0.663422
0.588119
0.510965
0.431291
0.348589
0.262417
0.1722
0.0755336
0.0127947
0.00110194
8.23311e-005
8.50221e-006
3.32939e-006
2.98657e-006
2.95793e-006
2.91889e-006
2.86563e-006
2.8781e-006
2.85228e-006
2.8253e-006
1.46322
1.34001
1.23183
1.13541
1.04799
0.967267
0.891246
0.817857
0.744421
0.672857
0.600355
0.526161
0.449714
0.370505
0.288135
0.202188
0.109727
0.0296712
0.00329432
0.000271656
2.787e-005
9.4361e-006
8.13602e-006
8.03506e-006
7.92954e-006
7.73506e-006
7.74183e-006
7.67583e-006
7.58993e-006
1.44494
1.32529
1.22026
1.12664
1.04177
0.963397
0.889571
0.818615
0.749095
0.67863
0.609073
0.537416
0.463608
0.387181
0.307776
0.224969
0.136885
0.0492568
0.00771945
0.000734415
8.00243e-005
2.56663e-005
2.14581e-005
2.11338e-005
2.09089e-005
2.02822e-005
2.01478e-005
1.99828e-005
1.97549e-005
1.42462
1.30866
1.20687
1.11613
1.03385
0.957837
0.886222
0.8174
0.749999
0.682864
0.614129
0.544813
0.473497
0.399681
0.322983
0.242981
0.158599
0.0690506
0.0141357
0.0016307
0.00020139
6.77756e-005
5.68911e-005
5.59988e-005
5.48716e-005
5.2982e-005
5.25671e-005
5.24878e-005
5.21153e-005
1.40275
1.29062
1.19219
1.10442
1.02479
0.951179
0.881779
0.815043
0.749653
0.684484
0.618553
0.551385
0.48206
0.410351
0.335883
0.258246
0.176749
0.0883079
0.0229191
0.00336154
0.000510436
0.000191936
0.000153789
0.000151768
0.000151801
0.000148333
0.000143431
0.000139815
0.000139821
1.37964
1.27149
1.17654
1.09184
1.01495
0.943807
0.87666
0.81203
0.748665
0.685521
0.621754
0.556461
0.489266
0.419705
0.347433
0.272094
0.193173
0.107196
0.0336822
0.00576237
0.000931704
0.000350248
0.000303319
0.000294251
0.000285717
0.000284484
0.000286402
0.000286724
0.000283976
1.35548
1.25145
1.16012
1.07862
1.00457
0.935974
0.871149
0.808671
0.747345
0.686172
0.624324
0.561096
0.495982
0.428532
0.358412
0.285305
0.208774
0.125834
0.0471275
0.00992153
0.00176952
0.000593842
0.000437183
0.000426077
0.000424972
0.000421431
0.000411796
0.000405599
0.000407357
1.33037
1.23062
1.14304
1.06485
0.993751
0.927805
0.865389
0.805139
0.745916
0.686773
0.62693
0.565745
0.502701
0.437385
0.369469
0.298647
0.224486
0.144792
0.0630899
0.0153404
0.0028968
0.000832774
0.000571598
0.000528121
0.000518572
0.000520504
0.000524432
0.000523313
0.000516356
1.30438
1.20903
1.12533
1.05057
0.982522
0.919321
0.859403
0.801465
0.744421
0.687376
0.629595
0.570477
0.509529
0.446359
0.380652
0.312117
0.240358
0.163905
0.0821194
0.0248036
0.00520296
0.00131935
0.00070721
0.000637283
0.000624722
0.000610504
0.000600587
0.000600635
0.000606229
1.27751
1.1867
1.10699
1.03576
0.970862
0.910498
0.853169
0.79763
0.742851
0.687988
0.632348
0.575367
0.51658
0.455612
0.392156
0.325924
0.256537
0.183044
0.102735
0.036197
0.00846432
0.00203295
0.000896191
0.000700758
0.000683994
0.000686753
0.000684967
0.000678224
0.000668198
1.2498
1.16362
1.088
1.02039
0.958731
0.901294
0.846644
0.793596
0.741176
0.688589
0.635188
0.580442
0.523911
0.465242
0.404144
0.340349
0.273521
0.203017
0.125774
0.0530553
0.0144392
0.0034045
0.00118457
0.000815544
0.000745282
0.00072796
0.000729416
0.000734322
0.000733092
1.22126
1.13979
1.06833
1.00442
0.946073
0.891642
0.839754
0.789285
0.739317
0.689105
0.638042
0.585633
0.531461
0.475186
0.41653
0.355244
0.291039
0.223441
0.150131
0.0743124
0.0241129
0.00606328
0.00177267
0.000946732
0.000813655
0.000781632
0.000770089
0.000770541
0.000769744
1.19189
1.11518
1.04793
0.987778
0.932809
0.881448
0.832393
0.784582
0.737152
0.689405
0.64078
0.590816
0.5391
0.485321
0.429217
0.370545
0.309042
0.244313
0.174896
0.099697
0.0383265
0.0106243
0.00292968
0.00121484
0.000879036
0.000828847
0.00080951
0.000804187
0.000803631
1.16169
1.08976
1.02677
0.970399
0.918845
0.870602
0.824437
0.779347
0.734521
0.689297
0.643113
0.595417
0.546418
0.495328
0.441917
0.385977
0.327282
0.265488
0.199734
0.127451
0.0589967
0.0188867
0.00521434
0.00177753
0.00101499
0.000866574
0.000843058
0.000833388
0.000829244
1.13064
1.06351
1.00476
0.952198
0.904081
0.858989
0.815755
0.773434
0.731266
0.688629
0.64501
0.6
0.55346
0.505
0.454349
0.401236
0.345433
0.286657
0.224352
0.156338
0.0848502
0.032669
0.00966371
0.00296295
0.00131174
0.000944528
0.000867706
0.00085952
0.000852852
1.09873
1.03637
0.981862
0.933091
0.888416
0.84649
0.806216
0.766708
0.727258
0.687296
0.646385
0.604263
0.560538
0.514537
0.466526
0.416222
0.363353
0.307637
0.248668
0.185111
0.115298
0.0525594
0.0178586
0.00541126
0.00196521
0.00111536
0.00091807
0.00087701
0.000873413
1.06593
1.00829
0.957986
0.912985
0.871739
0.832981
0.795683
0.75902
0.722335
0.685108
0.646932
0.607488
0.566414
0.523436
0.478301
0.430873
0.380966
0.328346
0.272655
0.213168
0.14772
0.0803552
0.0315768
0.0102049
0.0033819
0.00150038
0.00102707
0.00091231
0.000888878
1.0322
0.979216
0.933057
0.891779
0.85393
0.818325
0.784004
0.7502
0.716305
0.681831
0.646373
0.609532
0.570702
0.530956
0.489018
0.444739
0.397971
0.348542
0.296206
0.240458
0.179931
0.113562
0.0541489
0.0193665
0.00638451
0.0023843
0.00127461
0.000988655
0.000916267
0.997515
0.949084
0.906987
0.869366
0.834866
0.802381
0.77102
0.740074
0.708979
0.677282
0.644603
0.610616
0.575097
0.538201
0.498938
0.45762
0.413985
0.367805
0.318844
0.266775
0.210788
0.148979
0.0847065
0.036243
0.012555
0.00435623
0.00185961
0.00116058
0.000973486
0.961812
0.917824
0.879689
0.845641
0.81442
0.785004
0.756571
0.728467
0.700175
0.671278
0.641441
0.610406
0.578059
0.543567
0.507571
0.469418
0.428966
0.386038
0.340428
0.291869
0.239933
0.183421
0.120959
0.0618609
0.0242754
0.0085231
0.00319882
0.00156802
0.0010971
0.925054
0.885374
0.85108
0.820499
0.79247
0.766054
0.740498
0.715204
0.689697
0.663595
0.63658
0.608376
0.57868
0.546859
0.514345
0.479421
0.442289
0.40275
0.360599
0.315608
0.267439
0.215506
0.158387
0.0965985
0.0448879
0.016946
0.00614257
0.00252269
0.00138713
0.887213
0.851685
0.82109
0.79385
0.768906
0.745402
0.722652
0.700115
0.677358
0.65403
0.629837
0.604522
0.577856
0.549724
0.519799
0.488022
0.454127
0.417932
0.379235
0.337817
0.293403
0.245549
0.193455
0.135923
0.0765224
0.0327596
0.0123521
0.00468934
0.00207941
0.848277
0.816726
0.789666
0.765621
0.743634
0.722933
0.7029
0.683047
0.662983
0.642388
0.620993
0.598562
0.574884
0.549777
0.522261
0.494201
0.463707
0.431004
0.395882
0.358126
0.317496
0.273669
0.22606
0.173768
0.116379
0.060702
0.0248547
0.00946388
0.00369741
0.808264
0.780493
0.756786
0.73577
0.716592
0.698563
0.681135
0.663871
0.64642
0.628494
0.609845
0.590253
0.569512
0.547414
0.523689
0.498215
0.471127
0.441909
0.410379
0.376323
0.339507
0.299652
0.25636
0.208953
0.156569
0.0997985
0.0481551
0.0194363
0.00736195
0.767226
0.743019
0.72246
0.704288
0.687752
0.672247
0.65729
0.642498
0.627558
0.61221
0.59623
0.579413
0.561568
0.542515
0.5221
0.499404
0.475978
0.45027
0.422371
0.392069
0.359127
0.323273
0.284176
0.241378
0.194152
0.141771
0.0856875
0.0389402
0.0153092
0.725252
0.704374
0.686744
0.671213
0.657134
0.643985
0.631348
0.618888
0.606332
0.593448
0.580032
0.565897
0.550865
0.534764
0.517418
0.498596
0.477317
0.45541
0.431333
0.404926
0.375976
0.344223
0.309355
0.270986
0.228612
0.181592
0.129074
0.0740096
0.0316906
0.682473
0.664672
0.649735
0.636631
0.624812
0.613838
0.603351
0.593065
0.582744
0.572183
0.5612
0.549624
0.537291
0.524039
0.509692
0.494022
0.476602
0.457729
0.437244
0.414674
0.389747
0.362174
0.331632
0.297732
0.260038
0.21802
0.171015
0.11845
0.0620697
0.639057
0.624067
0.61158
0.600678
0.590914
0.581922
0.573404
0.56512
0.556866
0.548466
0.539759
0.53059
0.520812
0.510273
0.498816
0.486277
0.4726
0.456737
0.439628
0.42092
0.400058
0.376745
0.350638
0.321344
0.288389
0.251324
0.209278
0.16294
0.106632
0.595204
0.582755
0.572467
0.563541
0.555622
0.548415
0.541678
0.535212
0.528845
0.522427
0.515816
0.508876
0.501476
0.493478
0.484744
0.475126
0.464489
0.452514
0.438623
0.423346
0.40655
0.387544
0.365972
0.341425
0.313409
0.281401
0.244521
0.203132
0.154946
0.551146
0.540961
0.532624
0.525449
0.519167
0.513549
0.508403
0.503567
0.498898
0.494269
0.489558
0.484649
0.479423
0.473763
0.467546
0.46064
0.452905
0.444124
0.434106
0.42229
0.408965
0.394278
0.377289
0.357593
0.334702
0.307987
0.276674
0.239959
0.199389
0.50713
0.498937
0.49231
0.486668
0.481824
0.477604
0.47386
0.470465
0.467302
0.464263
0.461247
0.458151
0.454878
0.451325
0.447389
0.442958
0.437908
0.432082
0.425324
0.417454
0.407496
0.396804
0.384286
0.36946
0.351822
0.330672
0.305242
0.274161
0.238858
0.463418
0.456953
0.451804
0.447491
0.443893
0.440889
0.438368
0.43623
0.434382
0.432735
0.431201
0.429697
0.42814
0.426445
0.424534
0.422314
0.419678
0.416524
0.412705
0.408027
0.402494
0.394762
0.386639
0.376633
0.364273
0.348908
0.329685
0.30515
0.275072
0.420271
0.415285
0.411399
0.408224
0.405696
0.403738
0.40227
0.401216
0.4005
0.40005
0.399789
0.399649
0.39957
0.399459
0.399325
0.399058
0.398473
0.397707
0.396445
0.394577
0.39217
0.389507
0.384385
0.379031
0.371518
0.361612
0.349176
0.33196
0.308317
0.377947
0.374207
0.371387
0.369176
0.367559
0.366494
0.365925
0.365792
0.366036
0.366602
0.367409
0.368404
0.369605
0.370709
0.372203
0.373524
0.374739
0.375888
0.37685
0.377557
0.378047
0.378342
0.378049
0.375001
0.372268
0.367493
0.36361
0.354514
0.337617
0.336692
0.333985
0.332054
0.330652
0.329808
0.329502
0.329697
0.330342
0.331387
0.332811
0.334477
0.336339
0.33861
0.34097
0.34345
0.346008
0.348602
0.351231
0.353873
0.356483
0.359142
0.361767
0.364379
0.366107
0.365978
0.367396
0.369114
0.365401
0.360156
0.296736
0.294873
0.293673
0.292952
0.292768
0.293118
0.293967
0.295263
0.296945
0.299107
0.301278
0.304156
0.306989
0.310036
0.313206
0.316479
0.319828
0.323223
0.326731
0.330247
0.333987
0.337746
0.341809
0.346126
0.350156
0.354525
0.361685
0.366294
0.36849
0.258296
0.257111
0.256515
0.25638
0.256789
0.257736
0.259151
0.260968
0.263164
0.265663
0.268484
0.271458
0.274481
0.277561
0.280644
0.283697
0.286703
0.289548
0.292509
0.295059
0.297975
0.300339
0.304064
0.308854
0.314837
0.321842
0.330479
0.341918
0.353586
0.221598
0.220952
0.220876
0.221301
0.222321
0.223867
0.225738
0.227818
0.230226
0.232701
0.235132
0.23749
0.239614
0.241425
0.24294
0.244032
0.244729
0.244697
0.244747
0.244179
0.245277
0.245068
0.247326
0.247993
0.252189
0.256747
0.265325
0.276608
0.290897
0.186946
0.186752
0.187203
0.188298
0.190092
0.192291
0.194178
0.196128
0.19753
0.198571
0.199186
0.199228
0.19848
0.196841
0.194545
0.191522
0.188903
0.185287
0.182208
0.177397
0.174863
0.169874
0.169169
0.165395
0.166745
0.164672
0.169673
0.174765
0.189994
0.15495
0.155213
0.156394
0.158535
0.16143
0.164031
0.164978
0.164514
0.162635
0.159659
0.156074
0.151567
0.146624
0.141104
0.13534
0.129222
0.123462
0.117294
0.112595
0.106911
0.10321
0.0987491
0.0971116
0.0953452
0.0951439
0.0965202
0.0991473
0.101733
0.109214
0.127089
0.127988
0.130434
0.134203
0.13859
0.140202
0.137038
0.130921
0.122836
0.114552
0.106644
0.0988594
0.0914965
0.0849193
0.0795498
0.0749404
0.0715421
0.0696454
0.0690014
0.0706673
0.072704
0.0781984
0.0817638
0.0912589
0.0948873
0.108456
0.111683
0.130226
0.124035
0.106573
0.108408
0.112586
0.11855
0.123087
0.121892
0.113255
0.101717
0.0887112
0.0776874
0.0686881
0.0619372
0.057495
0.0557595
0.0558222
0.0582636
0.0618329
0.0677479
0.0740797
0.0833436
0.0918931
0.104742
0.114551
0.132021
0.141548
0.166843
0.174227
0.21562
0.206518
0.0970719
0.0996644
0.105266
0.112576
0.117295
0.115369
0.104966
0.0925537
0.0794774
0.0702554
0.0636069
0.0602576
0.0598119
0.0625441
0.0668783
0.0735014
0.0810465
0.0909131
0.101147
0.114341
0.127032
0.144042
0.158546
0.181123
0.196805
0.230069
0.245734
0.300395
0.301757
5.80604e-005
5.80604e-005
5.80604e-005
5.80605e-005
5.80605e-005
5.80605e-005
5.80605e-005
5.80606e-005
5.80606e-005
5.80606e-005
5.80606e-005
5.80606e-005
5.80607e-005
5.80607e-005
5.80607e-005
5.80607e-005
5.80608e-005
5.80608e-005
5.80608e-005
5.80608e-005
5.80609e-005
5.80609e-005
5.80609e-005
5.80609e-005
5.80609e-005
5.8061e-005
5.8061e-005
5.8061e-005
5.8061e-005
5.8061e-005
5.80611e-005
5.80611e-005
5.80611e-005
5.80611e-005
5.80611e-005
5.80612e-005
5.80612e-005
5.80612e-005
5.80612e-005
5.80612e-005
5.80612e-005
5.80612e-005
5.80613e-005
5.80613e-005
5.80613e-005
5.80613e-005
5.80613e-005
5.80613e-005
5.80613e-005
5.80613e-005
5.80613e-005
5.80613e-005
5.80614e-005
5.80614e-005
5.80614e-005
5.80614e-005
5.80614e-005
5.80614e-005
5.80614e-005
5.80614e-005
5.80614e-005
5.80614e-005
5.80614e-005
5.80615e-005
5.80615e-005
5.80615e-005
5.80615e-005
5.80615e-005
5.80615e-005
5.80615e-005
5.80615e-005
5.80615e-005
5.80615e-005
5.80615e-005
5.80615e-005
5.80615e-005
5.80615e-005
5.80616e-005
5.80616e-005
5.80616e-005
5.80616e-005
5.80616e-005
5.80616e-005
5.80616e-005
5.80616e-005
5.80616e-005
5.80616e-005
5.80616e-005
5.80616e-005
5.80616e-005
5.80616e-005
5.80616e-005
5.80616e-005
5.80616e-005
5.80616e-005
5.80616e-005
5.80616e-005
5.80616e-005
5.80616e-005
5.80616e-005
5.80616e-005
5.80616e-005
5.80616e-005
5.80616e-005
5.80616e-005
5.80616e-005
5.80616e-005
5.80616e-005
5.80616e-005
5.80616e-005
5.80616e-005
5.80616e-005
5.80616e-005
5.80615e-005
5.80615e-005
5.80615e-005
5.80615e-005
5.80615e-005
5.80615e-005
5.80615e-005
5.80615e-005
5.80615e-005
5.80616e-005
5.80616e-005
5.80616e-005
5.80616e-005
5.80616e-005
5.80617e-005
5.80617e-005
5.80617e-005
5.80618e-005
5.80618e-005
5.80619e-005
5.80621e-005
5.80621e-005
5.80624e-005
5.80623e-005
5.80631e-005
5.93314e-005
4.60757e-006
4.60765e-006
4.60773e-006
4.60779e-006
4.60785e-006
4.6079e-006
4.60796e-006
4.60802e-006
4.60808e-006
4.60812e-006
4.60816e-006
4.60822e-006
4.60829e-006
4.60836e-006
4.60843e-006
4.60849e-006
4.60855e-006
4.60861e-006
4.60867e-006
4.60872e-006
4.60877e-006
4.60882e-006
4.60887e-006
4.60892e-006
4.60898e-006
4.60903e-006
4.60909e-006
4.60915e-006
4.60921e-006
4.60927e-006
4.60932e-006
4.60938e-006
4.60943e-006
4.60949e-006
4.60954e-006
4.60958e-006
4.60961e-006
4.60965e-006
4.60969e-006
4.60972e-006
4.60976e-006
4.60979e-006
4.60983e-006
4.60986e-006
4.60989e-006
4.60993e-006
4.60996e-006
4.60998e-006
4.61001e-006
4.61004e-006
4.61007e-006
4.61009e-006
4.61012e-006
4.61014e-006
4.61017e-006
4.61019e-006
4.61022e-006
4.61024e-006
4.61027e-006
4.61029e-006
4.61032e-006
4.61034e-006
4.61036e-006
4.61039e-006
4.61041e-006
4.61043e-006
4.61045e-006
4.61048e-006
4.6105e-006
4.61052e-006
4.61054e-006
4.61056e-006
4.61058e-006
4.6106e-006
4.61062e-006
4.61063e-006
4.61065e-006
4.61066e-006
4.61068e-006
4.61069e-006
4.6107e-006
4.61071e-006
4.61072e-006
4.61072e-006
4.61073e-006
4.61073e-006
4.61073e-006
4.61072e-006
4.61073e-006
4.61075e-006
4.61078e-006
4.6108e-006
4.61082e-006
4.61084e-006
4.61086e-006
4.61088e-006
4.61089e-006
4.6109e-006
4.61091e-006
4.61091e-006
4.61091e-006
4.61091e-006
4.61091e-006
4.61091e-006
4.6109e-006
4.6109e-006
4.61089e-006
4.61088e-006
4.61087e-006
4.61085e-006
4.61082e-006
4.61079e-006
4.61076e-006
4.61072e-006
4.61066e-006
4.6106e-006
4.61055e-006
4.61053e-006
4.61055e-006
4.61059e-006
4.61063e-006
4.61066e-006
4.61069e-006
4.61074e-006
4.61074e-006
4.61082e-006
4.61077e-006
4.6109e-006
4.61088e-006
4.61094e-006
4.61115e-006
4.61118e-006
4.61136e-006
4.61187e-006
4.61156e-006
4.61219e-006
4.61757e-006
4.61558e-006
4.57137e-006
7.23926e-007
7.23986e-007
7.24032e-007
7.24074e-007
7.24116e-007
7.24155e-007
7.2419e-007
7.24221e-007
7.24252e-007
7.24284e-007
7.24316e-007
7.24346e-007
7.24373e-007
7.24399e-007
7.24427e-007
7.24456e-007
7.24484e-007
7.24512e-007
7.2454e-007
7.24569e-007
7.246e-007
7.24631e-007
7.24663e-007
7.24695e-007
7.24727e-007
7.24759e-007
7.24791e-007
7.24824e-007
7.24856e-007
7.24889e-007
7.24922e-007
7.24955e-007
7.24988e-007
7.25022e-007
7.25054e-007
7.25083e-007
7.25112e-007
7.25141e-007
7.25169e-007
7.25198e-007
7.25226e-007
7.25254e-007
7.25282e-007
7.25309e-007
7.25336e-007
7.25363e-007
7.25389e-007
7.25415e-007
7.25441e-007
7.25466e-007
7.2549e-007
7.25514e-007
7.25537e-007
7.25559e-007
7.25582e-007
7.25603e-007
7.25623e-007
7.25644e-007
7.25663e-007
7.25683e-007
7.25704e-007
7.25724e-007
7.25745e-007
7.25766e-007
7.25787e-007
7.25807e-007
7.25827e-007
7.25846e-007
7.25865e-007
7.25884e-007
7.25902e-007
7.2592e-007
7.25937e-007
7.25954e-007
7.2597e-007
7.25985e-007
7.26e-007
7.26014e-007
7.26027e-007
7.2604e-007
7.26051e-007
7.26063e-007
7.26073e-007
7.26083e-007
7.26092e-007
7.26101e-007
7.26109e-007
7.26116e-007
7.26125e-007
7.26138e-007
7.26151e-007
7.26164e-007
7.26177e-007
7.2619e-007
7.26203e-007
7.26215e-007
7.26227e-007
7.26238e-007
7.26248e-007
7.26257e-007
7.26265e-007
7.26272e-007
7.26277e-007
7.2628e-007
7.26282e-007
7.26282e-007
7.26279e-007
7.26275e-007
7.26268e-007
7.26259e-007
7.26244e-007
7.26224e-007
7.262e-007
7.26174e-007
7.26144e-007
7.26113e-007
7.26086e-007
7.26068e-007
7.26057e-007
7.26049e-007
7.26039e-007
7.26027e-007
7.25994e-007
7.25991e-007
7.25933e-007
7.25929e-007
7.25878e-007
7.25849e-007
7.25836e-007
7.2582e-007
7.2583e-007
7.25965e-007
7.25778e-007
7.25784e-007
7.27602e-007
7.28274e-007
6.07794e-007
6.64346e-007
2.32671e-005
2.13016e-007
2.13043e-007
2.13067e-007
2.13087e-007
2.13106e-007
2.13124e-007
2.13142e-007
2.1316e-007
2.13177e-007
2.13193e-007
2.13208e-007
2.13224e-007
2.13242e-007
2.1326e-007
2.13278e-007
2.13296e-007
2.13313e-007
2.1333e-007
2.13347e-007
2.13364e-007
2.13382e-007
2.13399e-007
2.13417e-007
2.13436e-007
2.13455e-007
2.13475e-007
2.13496e-007
2.13516e-007
2.13537e-007
2.13559e-007
2.1358e-007
2.13602e-007
2.13624e-007
2.13646e-007
2.13669e-007
2.13692e-007
2.13714e-007
2.13736e-007
2.13759e-007
2.13781e-007
2.13803e-007
2.13824e-007
2.13846e-007
2.13867e-007
2.13888e-007
2.13909e-007
2.1393e-007
2.1395e-007
2.13971e-007
2.13991e-007
2.1401e-007
2.1403e-007
2.14049e-007
2.14068e-007
2.14087e-007
2.14105e-007
2.14124e-007
2.14142e-007
2.1416e-007
2.14178e-007
2.14197e-007
2.14216e-007
2.14234e-007
2.14252e-007
2.1427e-007
2.14288e-007
2.14305e-007
2.14322e-007
2.14338e-007
2.14354e-007
2.1437e-007
2.14386e-007
2.14401e-007
2.14416e-007
2.1443e-007
2.14445e-007
2.14459e-007
2.14472e-007
2.14485e-007
2.14498e-007
2.14511e-007
2.14523e-007
2.14534e-007
2.14545e-007
2.14556e-007
2.14566e-007
2.14575e-007
2.14585e-007
2.14593e-007
2.146e-007
2.14608e-007
2.14615e-007
2.14623e-007
2.1463e-007
2.14637e-007
2.14645e-007
2.14651e-007
2.14658e-007
2.14664e-007
2.14669e-007
2.14673e-007
2.14677e-007
2.1468e-007
2.14682e-007
2.14683e-007
2.14683e-007
2.14681e-007
2.14679e-007
2.14675e-007
2.1467e-007
2.14662e-007
2.14651e-007
2.14636e-007
2.14619e-007
2.146e-007
2.14579e-007
2.14557e-007
2.14536e-007
2.14517e-007
2.14499e-007
2.14479e-007
2.14459e-007
2.14431e-007
2.14408e-007
2.14372e-007
2.14338e-007
2.14303e-007
2.14264e-007
2.14218e-007
2.14239e-007
2.1426e-007
2.13128e-007
2.14322e-007
2.1764e-007
1.9604e-007
1.87736e-007
3.74877e-006
0.000644604
0.0205399
1.03424e-007
1.03441e-007
1.03455e-007
1.03468e-007
1.03482e-007
1.03495e-007
1.03507e-007
1.03518e-007
1.0353e-007
1.03543e-007
1.03556e-007
1.03568e-007
1.03579e-007
1.03591e-007
1.03604e-007
1.03618e-007
1.03631e-007
1.03645e-007
1.0366e-007
1.03675e-007
1.0369e-007
1.03706e-007
1.03722e-007
1.03739e-007
1.03755e-007
1.03772e-007
1.03789e-007
1.03806e-007
1.03823e-007
1.03841e-007
1.03859e-007
1.03876e-007
1.03894e-007
1.03913e-007
1.03931e-007
1.0395e-007
1.03969e-007
1.03988e-007
1.04007e-007
1.04026e-007
1.04044e-007
1.04063e-007
1.04082e-007
1.04101e-007
1.04119e-007
1.04138e-007
1.04156e-007
1.04175e-007
1.04193e-007
1.04211e-007
1.04229e-007
1.04247e-007
1.04265e-007
1.04283e-007
1.04301e-007
1.04318e-007
1.04336e-007
1.04353e-007
1.0437e-007
1.04388e-007
1.04405e-007
1.04422e-007
1.04438e-007
1.04455e-007
1.04471e-007
1.04487e-007
1.04502e-007
1.04517e-007
1.04532e-007
1.04547e-007
1.04561e-007
1.04575e-007
1.04589e-007
1.04603e-007
1.04616e-007
1.04629e-007
1.04642e-007
1.04654e-007
1.04666e-007
1.04678e-007
1.0469e-007
1.04701e-007
1.04712e-007
1.04722e-007
1.04733e-007
1.04743e-007
1.04752e-007
1.04761e-007
1.04769e-007
1.04777e-007
1.04783e-007
1.04789e-007
1.04795e-007
1.04801e-007
1.04806e-007
1.04811e-007
1.04815e-007
1.04819e-007
1.04823e-007
1.04826e-007
1.04829e-007
1.04831e-007
1.04832e-007
1.04833e-007
1.04833e-007
1.04832e-007
1.04831e-007
1.04828e-007
1.04825e-007
1.04821e-007
1.04816e-007
1.04809e-007
1.04799e-007
1.04787e-007
1.04773e-007
1.04758e-007
1.04742e-007
1.04724e-007
1.04708e-007
1.04691e-007
1.04674e-007
1.04654e-007
1.04632e-007
1.04607e-007
1.04579e-007
1.04546e-007
1.04514e-007
1.04476e-007
1.04446e-007
1.04251e-007
1.03741e-007
1.10015e-007
1.04609e-007
8.70745e-008
2.15706e-007
1.10983e-005
0.000919941
0.0235804
0.139365
7.1397e-008
7.14058e-008
7.14142e-008
7.14236e-008
7.1433e-008
7.14399e-008
7.14498e-008
7.14604e-008
7.14703e-008
7.14788e-008
7.14865e-008
7.14962e-008
7.15075e-008
7.15195e-008
7.15297e-008
7.154e-008
7.15507e-008
7.15616e-008
7.15725e-008
7.15837e-008
7.1595e-008
7.1606e-008
7.1617e-008
7.16281e-008
7.16399e-008
7.16522e-008
7.16647e-008
7.16775e-008
7.16902e-008
7.17029e-008
7.17158e-008
7.17288e-008
7.17419e-008
7.1755e-008
7.17685e-008
7.1782e-008
7.17956e-008
7.18094e-008
7.1823e-008
7.18368e-008
7.18505e-008
7.18644e-008
7.18782e-008
7.18919e-008
7.19056e-008
7.19193e-008
7.19329e-008
7.19466e-008
7.19601e-008
7.19736e-008
7.19871e-008
7.20006e-008
7.20139e-008
7.20272e-008
7.20406e-008
7.20537e-008
7.20667e-008
7.20797e-008
7.20926e-008
7.21054e-008
7.2118e-008
7.21302e-008
7.21422e-008
7.21541e-008
7.21657e-008
7.21772e-008
7.21885e-008
7.21996e-008
7.22105e-008
7.22212e-008
7.22317e-008
7.22421e-008
7.22521e-008
7.22619e-008
7.22716e-008
7.2281e-008
7.22905e-008
7.22993e-008
7.23079e-008
7.23165e-008
7.23248e-008
7.23329e-008
7.23408e-008
7.23483e-008
7.23555e-008
7.23626e-008
7.23694e-008
7.2376e-008
7.2382e-008
7.23873e-008
7.2392e-008
7.23963e-008
7.24002e-008
7.24037e-008
7.24068e-008
7.24095e-008
7.24118e-008
7.24137e-008
7.24152e-008
7.24161e-008
7.24165e-008
7.24168e-008
7.2416e-008
7.2415e-008
7.24135e-008
7.24116e-008
7.24091e-008
7.2406e-008
7.2402e-008
7.23972e-008
7.23922e-008
7.23867e-008
7.23795e-008
7.2371e-008
7.23613e-008
7.23506e-008
7.23385e-008
7.23255e-008
7.23124e-008
7.22992e-008
7.22844e-008
7.22689e-008
7.22503e-008
7.22317e-008
7.22089e-008
7.21862e-008
7.21612e-008
7.21284e-008
7.20615e-008
7.25478e-008
7.69987e-008
5.65144e-008
7.19404e-008
5.56338e-007
4.35862e-005
0.00209945
0.0354671
0.174226
0.420907
6.04074e-008
6.04203e-008
6.0434e-008
6.04468e-008
6.04591e-008
6.04733e-008
6.0486e-008
6.04977e-008
6.05097e-008
6.05243e-008
6.05413e-008
6.0558e-008
6.05723e-008
6.05847e-008
6.05992e-008
6.06155e-008
6.06316e-008
6.06479e-008
6.06644e-008
6.0681e-008
6.06976e-008
6.07152e-008
6.07336e-008
6.07529e-008
6.07721e-008
6.07907e-008
6.08092e-008
6.0828e-008
6.08468e-008
6.0866e-008
6.08853e-008
6.09048e-008
6.09242e-008
6.09438e-008
6.09634e-008
6.09832e-008
6.1003e-008
6.10225e-008
6.10422e-008
6.10619e-008
6.10815e-008
6.11008e-008
6.11203e-008
6.11398e-008
6.11591e-008
6.11785e-008
6.11977e-008
6.12166e-008
6.12357e-008
6.12544e-008
6.1273e-008
6.12915e-008
6.13098e-008
6.1328e-008
6.13457e-008
6.13634e-008
6.13811e-008
6.13984e-008
6.14154e-008
6.14322e-008
6.14487e-008
6.14648e-008
6.14806e-008
6.14961e-008
6.15116e-008
6.15266e-008
6.15413e-008
6.1556e-008
6.15702e-008
6.15841e-008
6.15978e-008
6.16111e-008
6.16242e-008
6.16371e-008
6.16495e-008
6.16618e-008
6.16732e-008
6.16846e-008
6.16961e-008
6.1707e-008
6.17177e-008
6.17279e-008
6.17376e-008
6.17472e-008
6.17566e-008
6.17654e-008
6.1774e-008
6.1782e-008
6.17897e-008
6.1797e-008
6.18039e-008
6.18104e-008
6.18163e-008
6.18216e-008
6.18264e-008
6.18308e-008
6.18346e-008