/*--------------------------------*- C++ -*----------------------------------*\
| =========                 |                                                 |
| \\      /  F ield         | OpenFOAM: The Open Source CFD Toolbox           |
|  \\    /   O peration     | Version:  5.x                                   |
|   \\  /    A nd           | Web:      www.OpenFOAM.org                      |
|    \\/     M anipulation  |                                                 |
\*---------------------------------------------------------------------------*/
/*   Windows 32 and 64 bit porting by blueCAPE: http://www.bluecape.com.pt   *\
|  Based on Windows porting (2.0.x v4) by Symscape: http://www.symscape.com   |
\*---------------------------------------------------------------------------*/
FoamFile
{
    version     2.0;
    format      ascii;
    class       volScalarField;
    location    "190";
    object      p;
}
// * * * * * * * * * * * * * * * * * * * * * * * * * * * * * * * * * * * * * //

dimensions      [0 2 -2 0 0 0 0];

internalField   nonuniform List<scalar> 
43900
(
0.37353
0.373186
0.373145
0.373017
0.372821
0.372591
0.372395
0.372057
0.371813
0.371497
0.371178
0.370852
0.370509
0.370155
0.369791
0.369418
0.369036
0.368646
0.368248
0.367843
0.367432
0.367014
0.366591
0.366162
0.365727
0.365288
0.364844
0.364396
0.363943
0.371443
0.379496
0.373379
0.376658
0.374162
0.374915
0.374012
0.373836
0.373404
0.372979
0.372569
0.37214
0.37171
0.371281
0.370851
0.370419
0.369985
0.369547
0.369107
0.368664
0.368218
0.367769
0.367317
0.366862
0.366404
0.365943
0.365478
0.365011
0.36454
0.364474
0.386248
0.375141
0.381404
0.376302
0.378883
0.376484
0.376838
0.375753
0.375335
0.374765
0.374216
0.373686
0.373166
0.372654
0.372148
0.371645
0.371147
0.370651
0.370158
0.369665
0.369173
0.368681
0.368189
0.367695
0.367201
0.366705
0.366207
0.365707
0.359523
0.387156
0.380441
0.380258
0.379905
0.37948
0.378392
0.378378
0.377581
0.377228
0.376676
0.376172
0.375668
0.375164
0.37466
0.374154
0.373649
0.373144
0.372639
0.372134
0.371628
0.37112
0.370612
0.370101
0.369588
0.369074
0.368556
0.368036
0.367513
0.361955
0.385658
0.380662
0.380075
0.380076
0.379661
0.379471
0.379239
0.378729
0.378429
0.378006
0.377597
0.377183
0.376754
0.376309
0.375856
0.375393
0.37492
0.374438
0.373949
0.373453
0.37295
0.37244
0.371926
0.371406
0.37088
0.37035
0.369815
0.369275
0.366325
0.384442
0.381346
0.38108
0.381026
0.380636
0.380399
0.38016
0.379934
0.379678
0.379318
0.378982
0.378622
0.378243
0.377848
0.377439
0.377016
0.376577
0.376123
0.375658
0.375179
0.374687
0.374186
0.373672
0.373148
0.372615
0.372071
0.371519
0.370959
0.372433
0.386
0.384224
0.383718
0.383683
0.383551
0.383234
0.382791
0.38248
0.382233
0.381908
0.381562
0.381207
0.38083
0.380439
0.380037
0.37962
0.379187
0.378742
0.378284
0.377808
0.377319
0.376817
0.3763
0.37577
0.375223
0.374668
0.374098
0.373513
0.379003
0.389919
0.388771
0.388185
0.388021
0.38789
0.387686
0.387351
0.386935
0.386542
0.386222
0.38588
0.385496
0.385101
0.384692
0.38427
0.383828
0.383372
0.382906
0.38242
0.381921
0.381406
0.38088
0.380336
0.379773
0.379205
0.378617
0.37801
0.377401
0.386315
0.395266
0.394537
0.393941
0.393696
0.393516
0.393296
0.393023
0.392675
0.392217
0.391773
0.391406
0.391015
0.390589
0.390154
0.389695
0.389219
0.388728
0.388214
0.387682
0.387129
0.386565
0.385982
0.385373
0.384762
0.384125
0.38347
0.382812
0.382125
0.395399
0.401821
0.401428
0.400832
0.400499
0.400239
0.399954
0.399628
0.399258
0.398821
0.39829
0.397745
0.397264
0.396773
0.396249
0.395714
0.395161
0.394588
0.393993
0.393371
0.39274
0.392088
0.391406
0.390718
0.389996
0.389261
0.388522
0.387745
0.386955
0.404429
0.409879
0.40959
0.408958
0.408544
0.408204
0.407838
0.407428
0.406974
0.406473
0.405905
0.40525
0.404562
0.40392
0.403293
0.402643
0.401979
0.401293
0.400575
0.399853
0.399099
0.398315
0.397522
0.396693
0.395851
0.395
0.394109
0.39321
0.392293
0.41447
0.419206
0.418962
0.418296
0.417817
0.417409
0.416975
0.416495
0.415969
0.415394
0.414767
0.414074
0.41331
0.412511
0.411744
0.411006
0.410247
0.409462
0.408657
0.407803
0.406931
0.40605
0.405116
0.404169
0.403205
0.402196
0.401179
0.400135
0.399066
0.425866
0.429633
0.429406
0.428729
0.428198
0.427727
0.427231
0.426689
0.426098
0.425458
0.424763
0.424009
0.42319
0.422316
0.421422
0.42055
0.419714
0.418845
0.417929
0.417002
0.416044
0.415028
0.413996
0.412927
0.411815
0.410703
0.409534
0.40834
0.407129
0.43822
0.44114
0.440891
0.440202
0.439618
0.439079
0.43851
0.43789
0.437215
0.436484
0.435693
0.434838
0.433914
0.43292
0.431882
0.43084
0.429811
0.428803
0.427782
0.426713
0.425595
0.424469
0.423276
0.422053
0.420828
0.419519
0.418191
0.416845
0.415435
0.451465
0.453728
0.45343
0.452715
0.452073
0.451459
0.450807
0.450094
0.449318
0.448475
0.447562
0.446575
0.44551
0.444362
0.443132
0.441867
0.440618
0.439384
0.438147
0.436887
0.435597
0.43422
0.432857
0.431448
0.429936
0.428437
0.426893
0.425284
0.423719
0.465613
0.467404
0.467044
0.466292
0.465589
0.464898
0.464159
0.463352
0.46247
0.461509
0.460465
0.459332
0.458108
0.456789
0.455371
0.453874
0.452338
0.450833
0.449394
0.447907
0.446324
0.444786
0.443132
0.441392
0.439721
0.437934
0.43609
0.434295
0.432376
0.480595
0.482077
0.481652
0.480855
0.480086
0.479317
0.47849
0.477585
0.476594
0.47551
0.474328
0.473044
0.471654
0.470155
0.468543
0.466828
0.465057
0.4633
0.461541
0.459799
0.458079
0.456189
0.454265
0.452407
0.450373
0.448287
0.446243
0.444089
0.441893
0.496398
0.497693
0.497209
0.496358
0.495522
0.494673
0.493755
0.492748
0.491642
0.490429
0.489105
0.487664
0.486101
0.484414
0.482596
0.480643
0.478594
0.4765
0.474526
0.472577
0.470488
0.468373
0.466227
0.463987
0.46172
0.459407
0.456998
0.454566
0.452098
0.512903
0.514118
0.513578
0.512665
0.511756
0.510823
0.509809
0.508692
0.507461
0.50611
0.50463
0.503014
0.501256
0.499354
0.497303
0.495105
0.492778
0.490397
0.487995
0.485654
0.483317
0.480931
0.478475
0.475966
0.473346
0.470641
0.467923
0.465141
0.462313
0.530025
0.531247
0.530656
0.529672
0.528684
0.527663
0.526547
0.525312
0.523947
0.522442
0.520788
0.518977
0.517007
0.514871
0.512563
0.510076
0.507425
0.504674
0.501963
0.499267
0.496574
0.493815
0.49094
0.488008
0.485065
0.482028
0.478901
0.475755
0.472502
0.547649
0.548944
0.548306
0.547245
0.546175
0.545062
0.543841
0.542485
0.540981
0.539319
0.537489
0.535484
0.533294
0.530916
0.528345
0.525577
0.52261
0.519502
0.51629
0.513232
0.510164
0.506966
0.50375
0.500475
0.497048
0.493523
0.490002
0.486391
0.482719
0.565666
0.567082
0.5664
0.56526
0.564106
0.5629
0.561572
0.560093
0.558447
0.556624
0.554611
0.552397
0.549974
0.547338
0.54448
0.54139
0.538068
0.534565
0.531019
0.527425
0.523898
0.52035
0.516631
0.512847
0.508983
0.505054
0.501005
0.496856
0.492743
0.583931
0.585504
0.584783
0.583563
0.582325
0.581027
0.579593
0.577989
0.576201
0.574214
0.572013
0.569587
0.566928
0.564026
0.560877
0.557471
0.553796
0.549882
0.545789
0.541851
0.537854
0.533789
0.52966
0.525413
0.521072
0.516636
0.512127
0.507568
0.502865
0.602294
0.604049
0.603293
0.601993
0.600674
0.599286
0.597747
0.59602
0.594089
0.591937
0.589548
0.586909
0.58401
0.580841
0.577393
0.57366
0.569642
0.565364
0.560893
0.556315
0.551806
0.547263
0.542569
0.537841
0.533093
0.528061
0.522922
0.517746
0.512566
0.620596
0.622551
0.621762
0.620386
0.61899
0.617517
0.615876
0.61403
0.611958
0.609643
0.607069
0.604218
0.601078
0.59764
0.593896
0.589833
0.585435
0.580716
0.57576
0.570743
0.565665
0.560576
0.555424
0.550062
0.544522
0.538963
0.533428
0.527731
0.521834
0.638682
0.640844
0.640028
0.638583
0.637116
0.635565
0.633831
0.631872
0.629669
0.627202
0.624451
0.621399
0.618032
0.614337
0.610306
0.605928
0.601196
0.596086
0.590641
0.585014
0.579361
0.573641
0.567798
0.561959
0.556011
0.549763
0.543356
0.536969
0.530571
0.656395
0.658767
0.657928
0.656421
0.654891
0.653269
0.651449
0.649387
0.64706
0.644447
0.641527
0.63828
0.63469
0.630741
0.626421
0.621715
0.616609
0.611101
0.605219
0.599061
0.592744
0.586455
0.580097
0.573411
0.566677
0.559977
0.553052
0.545924
0.538673
0.673589
0.676168
0.675311
0.673751
0.672168
0.670485
0.668589
0.666432
0.663992
0.661246
0.658169
0.65474
0.65094
0.64675
0.642158
0.637149
0.631703
0.62579
0.619436
0.612774
0.605936
0.598864
0.59177
0.584638
0.577148
0.56964
0.561995
0.554111
0.546125
0.690133
0.69291
0.692039
0.690435
0.688809
0.687074
0.68511
0.682869
0.680327
0.677457
0.674233
0.670632
0.666632
0.662213
0.657358
0.652052
0.64628
0.640023
0.633255
0.625975
0.618518
0.61089
0.603025
0.595076
0.587036
0.578643
0.570154
0.561517
0.552732
0.705917
0.708877
0.707997
0.706359
0.704698
0.70292
0.700897
0.698582
0.695946
0.692962
0.689602
0.68584
0.681652
0.677017
0.671913
0.666322
0.660226
0.653606
0.646469
0.638805
0.63067
0.622306
0.613775
0.605018
0.596068
0.586991
0.577653
0.568153
0.558558
0.720852
0.723975
0.723088
0.721426
0.719741
0.717927
0.715855
0.713473
0.710753
0.707666
0.704181
0.700272
0.695912
0.691076
0.685739
0.679883
0.673489
0.666533
0.65899
0.650878
0.642311
0.633235
0.623871
0.614319
0.604512
0.594513
0.584327
0.573904
0.563372
0.734873
0.738135
0.737245
0.735567
0.733865
0.732023
0.729908
0.727468
0.724673
0.721491
0.717893
0.713847
0.709325
0.704296
0.698737
0.692627
0.685944
0.67867
0.670776
0.662217
0.653021
0.643441
0.63333
0.62283
0.612197
0.601327
0.590105
0.578782
0.567324
0.747939
0.751312
0.750419
0.748735
0.747024
0.745161
0.74301
0.740519
0.737656
0.734389
0.730685
0.726509
0.721827
0.716612
0.710837
0.704477
0.697508
0.689905
0.681649
0.672716
0.663052
0.652719
0.641993
0.630729
0.619038
0.607167
0.595033
0.582607
0.570083
0.76003
0.763483
0.762589
0.760906
0.759193
0.757315
0.755133
0.752596
0.749672
0.746326
0.74252
0.738216
0.733381
0.727986
0.722
0.715389
0.708129
0.700194
0.691557
0.682195
0.672097
0.661264
0.649696
0.637667
0.62507
0.612002
0.59878
0.585401
0.571694
0.771147
0.774647
0.77375
0.772077
0.770367
0.768478
0.766271
0.763693
0.760711
0.757287
0.753383
0.748957
0.743977
0.738405
0.732202
0.725335
0.717777
0.709501
0.700478
0.690675
0.680065
0.668678
0.656561
0.643619
0.63018
0.616147
0.601654
0.586948
0.571976
0.781308
0.784818
0.78392
0.782262
0.780562
0.778666
0.776436
0.773822
0.770787
0.767292
0.763296
0.758756
0.75363
0.747874
0.741451
0.734326
0.726463
0.71783
0.7084
0.698147
0.687039
0.675059
0.662253
0.648727
0.634258
0.619145
0.603428
0.587324
0.571023
0.790545
0.79403
0.793129
0.791493
0.789807
0.787907
0.78566
0.783014
0.779932
0.776372
0.772289
0.767636
0.762362
0.756427
0.749787
0.742399
0.734219
0.725212
0.71535
0.704606
0.692959
0.680391
0.666873
0.652485
0.637263
0.62099
0.604089
0.586606
0.568768
0.7989
0.802324
0.801419
0.799812
0.798144
0.796245
0.793984
0.791311
0.788187
0.784567
0.7804
0.775638
0.770228
0.76412
0.757262
0.7496
0.741093
0.731695
0.72137
0.710092
0.697838
0.684598
0.67035
0.655135
0.638869
0.621743
0.603522
0.584633
0.565306
0.806424
0.809752
0.808843
0.807271
0.805625
0.80373
0.80146
0.798766
0.795607
0.791933
0.787693
0.782831
0.77729
0.77101
0.763931
0.755999
0.747156
0.737348
0.726533
0.714674
0.701749
0.687746
0.672656
0.656501
0.63932
0.620925
0.601691
0.581267
0.560232
0.813172
0.816373
0.815461
0.813928
0.812308
0.810421
0.808148
0.805439
0.802253
0.798535
0.794229
0.789276
0.783611
0.777168
0.76988
0.761677
0.752489
0.742258
0.730925
0.718443
0.70478
0.689919
0.673864
0.656608
0.638258
0.618776
0.597976
0.576344
0.55365
0.819202
0.82225
0.821333
0.819845
0.818255
0.81638
0.81411
0.811395
0.808189
0.804437
0.800078
0.795045
0.789269
0.782675
0.775183
0.766715
0.757188
0.746524
0.734651
0.721507
0.707044
0.691233
0.674077
0.655582
0.635798
0.614899
0.592765
0.569427
0.545145
0.824574
0.827444
0.826525
0.825086
0.823529
0.821672
0.819411
0.816697
0.813483
0.809709
0.805308
0.800211
0.794338
0.787606
0.779927
0.771205
0.761345
0.750248
0.737824
0.723989
0.708674
0.691832
0.673449
0.653547
0.632157
0.609475
0.585604
0.560599
0.534466
0.829345
0.832021
0.831101
0.829715
0.828196
0.826361
0.824116
0.821413
0.8182
0.814416
0.809989
0.804843
0.798891
0.79204
0.784189
0.775228
0.765049
0.753533
0.740557
0.726012
0.709806
0.691864
0.672144
0.650661
0.627455
0.602702
0.576621
0.549434
0.521406
0.833573
0.836041
0.835124
0.833794
0.832315
0.830508
0.828287
0.825603
0.822404
0.818623
0.814185
0.809007
0.802996
0.796047
0.788047
0.778873
0.768393
0.75647
0.742954
0.727701
0.710579
0.691481
0.670329
0.647104
0.621849
0.594719
0.566027
0.536033
0.505455
0.837311
0.839563
0.838651
0.837383
0.835947
0.834174
0.831983
0.829329
0.826154
0.822389
0.817956
0.812765
0.806715
0.799692
0.791571
0.782211
0.771459
0.759152
0.745117
0.72917
0.711129
0.690839
0.668175
0.643066
0.615533
0.585707
0.553965
0.520664
0.486672
0.840608
0.842642
0.841741
0.840535
0.839147
0.837412
0.835259
0.832643
0.829503
0.825768
0.821354
0.816168
0.810101
0.803031
0.794817
0.785304
0.774316
0.761662
0.747136
0.73052
0.711579
0.690087
0.665854
0.638738
0.608709
0.575862
0.540596
0.503427
0.465273
0.84351
0.845329
0.844443
0.843303
0.841965
0.840273
0.838166
0.835596
0.8325
0.828805
0.824426
0.819263
0.813201
0.806108
0.797832
0.788201
0.777018
0.764063
0.749094
0.731843
0.712034
0.689363
0.663538
0.634321
0.601595
0.565388
0.526095
0.484385
0.441304
0.84606
0.84767
0.846804
0.845733
0.844447
0.842804
0.840749
0.83823
0.835187
0.831544
0.827211
0.822087
0.816051
0.80896
0.800653
0.790941
0.779607
0.766403
0.751049
0.733226
0.712594
0.688781
0.661386
0.630015
0.594428
0.554519
0.510665
0.463603
0.414746
0.848294
0.849705
0.848866
0.847866
0.846635
0.845046
0.843046
0.840585
0.837601
0.834017
0.829743
0.824672
0.818679
0.811615
0.803305
0.793549
0.782109
0.768711
0.75304
0.734722
0.713351
0.688451
0.65954
0.626024
0.587472
0.543545
0.494564
0.441177
0.385456
0.850247
0.851471
0.850667
0.849739
0.848566
0.847034
0.845093
0.842694
0.839773
0.836256
0.832048
0.827043
0.821109
0.814091
0.805806
0.79604
0.784541
0.771006
0.755091
0.736366
0.714368
0.688488
0.658142
0.62253
0.581005
0.532816
0.478191
0.417336
0.353303
0.851947
0.853001
0.85224
0.851385
0.850273
0.8488
0.846921
0.844584
0.84173
0.838282
0.834147
0.829216
0.823354
0.8164
0.808166
0.798424
0.786913
0.773303
0.757228
0.7382
0.715711
0.68901
0.657406
0.61979
0.575401
0.522802
0.462056
0.392472
0.318437
0.85342
0.854324
0.853612
0.852832
0.851782
0.850372
0.848553
0.846277
0.843489
0.840113
0.836056
0.831205
0.825429
0.818558
0.810403
0.800726
0.78926
0.775653
0.759527
0.740334
0.717545
0.690245
0.657693
0.618328
0.571335
0.51431
0.447193
0.367478
0.281437
0.854689
0.855467
0.85481
0.854103
0.853119
0.851771
0.850009
0.847791
0.845067
0.841764
0.837789
0.833034
0.827366
0.820613
0.812587
0.803041
0.791712
0.77823
0.762214
0.743058
0.720222
0.692637
0.659553
0.618944
0.569919
0.508803
0.435514
0.344396
0.243866
0.855772
0.856454
0.855856
0.855221
0.854302
0.853013
0.851305
0.849143
0.846487
0.84327
0.839403
0.834779
0.829272
0.822707
0.8149
0.805598
0.794537
0.781339
0.765624
0.746749
0.724156
0.696669
0.663517
0.622311
0.572045
0.507683
0.42881
0.325678
0.207402
0.856683
0.857305
0.856762
0.856192
0.855334
0.854102
0.852453
0.850365
0.847811
0.84473
0.841029
0.836609
0.831345
0.825061
0.81757
0.808615
0.79793
0.785127
0.769826
0.751369
0.729188
0.702024
0.669079
0.627679
0.576656
0.509838
0.425554
0.310602
0.169792
0.857413
0.858009
0.857506
0.856985
0.856175
0.855
0.853439
0.85148
0.849101
0.846233
0.842771
0.838621
0.833657
0.827684
0.820511
0.811875
0.801516
0.789018
0.774012
0.755779
0.733812
0.706675
0.673687
0.631734
0.57968
0.510111
0.419706
0.291094
0.121338
0.857931
0.858523
0.858042
0.857544
0.856761
0.855638
0.85419
0.852402
0.850248
0.847627
0.844416
0.840517
0.835795
0.83001
0.822992
0.814451
0.804154
0.791626
0.776561
0.758104
0.73588
0.708186
0.674583
0.631314
0.57761
0.504243
0.407406
0.262194
0.0535462
0.858332
0.85893
0.858459
0.857977
0.857232
0.856169
0.854814
0.85314
0.851136
0.848666
0.845589
0.841785
0.837091
0.831228
0.824094
0.815381
0.804863
0.792029
0.776599
0.75765
0.734831
0.706296
0.671648
0.626709
0.570832
0.493192
0.390758
0.231574
-0.0208417
0.859304
0.85992
0.85945
0.859049
0.858607
0.858086
0.857217
0.855828
0.85378
0.851057
0.847637
0.843356
0.838082
0.831781
0.824178
0.81501
0.803955
0.790644
0.774562
0.755122
0.731432
0.702513
0.666385
0.621256
0.562007
0.484325
0.374811
0.220146
0.0329547
0.363405
0.362779
0.362146
0.361506
0.36086
0.360209
0.359553
0.358891
0.358224
0.357553
0.356878
0.356198
0.355515
0.354827
0.354137
0.353443
0.352745
0.352045
0.351342
0.350636
0.349928
0.349218
0.348506
0.347792
0.347076
0.346359
0.345641
0.344921
0.344201
0.34348
0.342759
0.342038
0.341316
0.340595
0.339874
0.339154
0.338434
0.337716
0.336999
0.336283
0.335568
0.334856
0.334146
0.333438
0.332732
0.33203
0.33133
0.330634
0.329941
0.329251
0.328566
0.327885
0.327208
0.326535
0.325868
0.325205
0.324548
0.323896
0.32325
0.322609
0.321975
0.321347
0.320725
0.32011
0.319501
0.3189
0.318305
0.317718
0.317138
0.316566
0.316002
0.315446
0.314898
0.314358
0.313827
0.313304
0.31279
0.312285
0.311789
0.311302
0.310824
0.310356
0.309897
0.309448
0.309009
0.308579
0.30816
0.307751
0.307351
0.306963
0.306584
0.306217
0.305859
0.305513
0.305177
0.304852
0.304538
0.304235
0.303943
0.303661
0.303391
0.303131
0.302883
0.302645
0.302419
0.302203
0.301998
0.301804
0.30162
0.301447
0.301284
0.301131
0.300988
0.300855
0.300732
0.300618
0.300513
0.300417
0.300332
0.300257
0.300191
0.300134
0.300086
0.300046
0.300014
0.299988
0.299969
0.299958
0.299949
0.299951
0.299956
0.299969
0.299988
0.300011
0.300048
0.300081
0.300149
0.300173
0.300326
0.363982
0.363334
0.362681
0.362021
0.361357
0.360688
0.360013
0.359333
0.358648
0.357959
0.357265
0.356566
0.355864
0.355157
0.354447
0.353733
0.353015
0.352294
0.351571
0.350844
0.350115
0.349384
0.34865
0.347914
0.347177
0.346438
0.345697
0.344955
0.344213
0.34347
0.342726
0.341982
0.341237
0.340493
0.33975
0.339007
0.338265
0.337524
0.336785
0.336047
0.335311
0.334577
0.333846
0.333117
0.33239
0.331667
0.330947
0.33023
0.329517
0.328808
0.328103
0.327403
0.326706
0.326015
0.325328
0.324647
0.323971
0.3233
0.322635
0.321976
0.321324
0.320677
0.320038
0.319405
0.318779
0.318161
0.31755
0.316946
0.316351
0.315763
0.315183
0.314612
0.314049
0.313495
0.31295
0.312413
0.311886
0.311368
0.310859
0.310361
0.309871
0.309392
0.308923
0.308464
0.308016
0.307578
0.30715
0.306734
0.306328
0.305933
0.305549
0.305176
0.304814
0.304463
0.304123
0.303795
0.303478
0.303173
0.302879
0.302597
0.302326
0.302067
0.30182
0.301585
0.301361
0.301148
0.300948
0.300759
0.300581
0.300416
0.300262
0.300119
0.299988
0.299868
0.29976
0.299664
0.299578
0.299504
0.299439
0.299382
0.299335
0.299297
0.299266
0.299244
0.299229
0.299222
0.299221
0.299221
0.299238
0.299238
0.299265
0.299269
0.299297
0.299294
0.299341
0.299306
0.29931
0.299268
0.299219
0.365116
0.364432
0.363744
0.363051
0.362353
0.361651
0.360943
0.360231
0.359514
0.358792
0.358065
0.357333
0.356596
0.355855
0.355109
0.354358
0.353604
0.352845
0.352083
0.351317
0.350548
0.349776
0.349001
0.348224
0.347445
0.346664
0.345881
0.345096
0.344311
0.343525
0.342738
0.341951
0.341164
0.340377
0.339591
0.338805
0.338021
0.337238
0.336456
0.335677
0.334899
0.334124
0.333351
0.332582
0.331816
0.331053
0.330293
0.329538
0.328786
0.328039
0.327296
0.326559
0.325826
0.325098
0.324376
0.323659
0.322948
0.322244
0.321546
0.320854
0.320169
0.319491
0.31882
0.318157
0.317501
0.316852
0.316212
0.31558
0.314956
0.314341
0.313735
0.313137
0.312549
0.311969
0.3114
0.310839
0.310289
0.309748
0.309218
0.308698
0.308188
0.307689
0.3072
0.306723
0.306256
0.3058
0.305355
0.304922
0.3045
0.304089
0.30369
0.303302
0.302926
0.302562
0.30221
0.30187
0.301542
0.301226
0.300923
0.300632
0.300353
0.300087
0.299834
0.299593
0.299365
0.29915
0.298949
0.29876
0.298585
0.298423
0.298275
0.29814
0.29802
0.297913
0.29782
0.297741
0.297676
0.297625
0.297588
0.297563
0.297553
0.297556
0.297572
0.297602
0.297644
0.297698
0.297765
0.297843
0.297928
0.298024
0.298127
0.298235
0.298346
0.298491
0.29846
0.298848
0.298531
0.299461
0.29838
0.366894
0.366176
0.365452
0.364722
0.363986
0.363244
0.362496
0.361743
0.360984
0.360219
0.359449
0.358674
0.357893
0.357107
0.356316
0.355521
0.354721
0.353917
0.353109
0.352297
0.351481
0.350661
0.349838
0.349011
0.348181
0.347348
0.346513
0.345675
0.344836
0.343995
0.343153
0.34231
0.341467
0.340623
0.33978
0.338937
0.338094
0.337253
0.336413
0.335575
0.334739
0.333905
0.333073
0.332245
0.331419
0.330597
0.329779
0.328965
0.328155
0.32735
0.32655
0.325754
0.324965
0.324181
0.323403
0.322631
0.321865
0.321107
0.320355
0.319611
0.318874
0.318145
0.317424
0.31671
0.316005
0.315309
0.314621
0.313942
0.313273
0.312612
0.311962
0.31132
0.310689
0.310068
0.309457
0.308856
0.308266
0.307687
0.307118
0.306561
0.306014
0.305479
0.304955
0.304442
0.303941
0.303451
0.302974
0.302508
0.302055
0.301613
0.301185
0.300769
0.300366
0.299976
0.299599
0.299235
0.298884
0.298547
0.298224
0.297915
0.297619
0.297338
0.297071
0.296819
0.296581
0.296358
0.296151
0.295958
0.295781
0.29562
0.295475
0.295346
0.295233
0.295136
0.295056
0.294992
0.294946
0.294916
0.294904
0.294911
0.294935
0.294979
0.295042
0.295125
0.295231
0.29536
0.295507
0.295674
0.295889
0.296104
0.296312
0.296774
0.296568
0.297758
0.296572
0.299315
0.296262
0.301778
0.294924
0.368634
0.367886
0.36713
0.366364
0.36559
0.364808
0.364017
0.363218
0.36241
0.361595
0.360771
0.35994
0.359103
0.358259
0.357407
0.356549
0.355685
0.354815
0.353939
0.353059
0.352174
0.351286
0.350394
0.349499
0.348601
0.347701
0.346798
0.345894
0.344988
0.344081
0.343172
0.342262
0.341352
0.340441
0.33953
0.33862
0.33771
0.336801
0.335893
0.334987
0.334083
0.333181
0.332281
0.331385
0.330491
0.329602
0.328716
0.327835
0.326958
0.326086
0.325219
0.324358
0.323503
0.322654
0.321811
0.320975
0.320146
0.319325
0.31851
0.317704
0.316906
0.316115
0.315334
0.314561
0.313798
0.313043
0.312298
0.311563
0.310838
0.310123
0.309418
0.308723
0.30804
0.307367
0.306705
0.306055
0.305416
0.304789
0.304173
0.30357
0.302978
0.3024
0.301834
0.30128
0.30074
0.300213
0.299699
0.299199
0.298713
0.29824
0.297782
0.297338
0.296909
0.296494
0.296094
0.295708
0.295338
0.294983
0.294644
0.29432
0.294012
0.29372
0.293444
0.293185
0.292942
0.292715
0.292506
0.292313
0.292138
0.29198
0.29184
0.291718
0.291614
0.291529
0.291462
0.291415
0.291387
0.29138
0.291393
0.291429
0.291487
0.291568
0.291676
0.291807
0.291968
0.292158
0.292399
0.292649
0.292913
0.29345
0.29335
0.294815
0.293541
0.297168
0.293087
0.300738
0.291207
0.30585
0.283279
0.370288
0.369502
0.368702
0.367887
0.367063
0.366226
0.365377
0.364515
0.363641
0.362761
0.361871
0.360972
0.360064
0.359143
0.358219
0.357289
0.356353
0.35541
0.354461
0.353506
0.352545
0.351578
0.350604
0.349624
0.34864
0.34765
0.346656
0.345658
0.344657
0.343654
0.34265
0.341644
0.340638
0.339632
0.338626
0.337622
0.336618
0.335617
0.334618
0.333621
0.332628
0.331637
0.33065
0.329667
0.328689
0.327715
0.326746
0.325782
0.324824
0.323872
0.322925
0.321986
0.321053
0.320127
0.319209
0.318299
0.317397
0.316503
0.315618
0.314742
0.313875
0.313018
0.31217
0.311333
0.310506
0.30969
0.308884
0.30809
0.307307
0.306536
0.305776
0.305028
0.304293
0.30357
0.302859
0.302161
0.301477
0.300805
0.300147
0.299503
0.298872
0.298256
0.297653
0.297065
0.296491
0.295932
0.295388
0.294858
0.294344
0.293845
0.293361
0.292893
0.29244
0.292003
0.291582
0.291178
0.290789
0.290417
0.290061
0.289723
0.2894
0.289095
0.288808
0.288537
0.288284
0.288049
0.287832
0.287633
0.287452
0.287291
0.287148
0.287025
0.286921
0.286838
0.286777
0.286736
0.286718
0.286723
0.286752
0.286805
0.286886
0.286991
0.287128
0.287293
0.287488
0.287705
0.28796
0.288324
0.288408
0.289249
0.288763
0.290515
0.289031
0.292012
0.289456
0.293618
0.288707
0.300501
0.268581
0.372815
0.371989
0.371142
0.37028
0.369397
0.368497
0.367577
0.366648
0.365704
0.364744
0.363769
0.362775
0.361786
0.36079
0.359765
0.358724
0.357676
0.356621
0.355559
0.354491
0.353416
0.352334
0.351246
0.350152
0.349052
0.347946
0.346838
0.345728
0.344617
0.343505
0.342392
0.341279
0.340168
0.339056
0.337946
0.336837
0.335729
0.334623
0.333519
0.332417
0.331319
0.330224
0.329134
0.328048
0.326968
0.325893
0.324825
0.323763
0.322708
0.321661
0.320622
0.319591
0.318569
0.317556
0.316552
0.315558
0.314574
0.3136
0.312636
0.311683
0.310741
0.30981
0.308891
0.307983
0.307087
0.306203
0.305331
0.304472
0.303625
0.302791
0.30197
0.301162
0.300368
0.299588
0.298821
0.298068
0.297329
0.296604
0.295894
0.295198
0.294517
0.293851
0.293199
0.292563
0.291942
0.291337
0.290747
0.290173
0.289614
0.289071
0.288545
0.288034
0.28754
0.287063
0.286602
0.286158
0.28573
0.28532
0.284928
0.284552
0.284194
0.283854
0.283532
0.283228
0.282943
0.282676
0.282428
0.282199
0.28199
0.2818
0.281631
0.281482
0.281353
0.281246
0.281161
0.281097
0.281056
0.281037
0.281043
0.281069
0.28112
0.281192
0.281286
0.281404
0.281542
0.2817
0.281812
0.282141
0.282056
0.282688
0.282315
0.283236
0.282727
0.283582
0.283716
0.283798
0.284022
0.290795
0.25912
0.376659
0.375777
0.374882
0.373957
0.373001
0.372032
0.371043
0.370027
0.36899
0.367929
0.366862
0.365775
0.364653
0.363518
0.362384
0.361242
0.360088
0.358922
0.357755
0.356597
0.355438
0.354276
0.353114
0.35195
0.350759
0.349541
0.348312
0.347075
0.345836
0.344597
0.343359
0.342121
0.340884
0.33965
0.338419
0.337192
0.335969
0.334749
0.333532
0.332318
0.331107
0.329898
0.328694
0.327494
0.3263
0.325113
0.323932
0.322759
0.321593
0.320435
0.319286
0.318146
0.317016
0.315895
0.314784
0.313684
0.312595
0.311517
0.310451
0.309396
0.308354
0.307324
0.306308
0.305304
0.304314
0.303337
0.302375
0.301427
0.300493
0.299574
0.298669
0.29778
0.296905
0.296046
0.295203
0.294375
0.293563
0.292767
0.291987
0.291223
0.290474
0.289743
0.289028
0.288329
0.287648
0.286982
0.286333
0.2857
0.285085
0.284486
0.283904
0.283339
0.282791
0.28226
0.281747
0.281251
0.280772
0.280311
0.279867
0.279441
0.279034
0.278644
0.278273
0.27792
0.277585
0.277269
0.276972
0.276694
0.276435
0.276195
0.275974
0.275773
0.27559
0.275427
0.275282
0.275156
0.275049
0.274958
0.274886
0.274828
0.274787
0.274761
0.274743
0.274741
0.274752
0.274789
0.274745
0.274911
0.27477
0.275081
0.27487
0.27524
0.27517
0.275143
0.275582
0.274649
0.274179
0.281062
0.253303
0.381298
0.380333
0.379331
0.378308
0.377262
0.376184
0.375084
0.373961
0.372834
0.371678
0.370496
0.369296
0.368079
0.366851
0.365603
0.364326
0.363022
0.361704
0.360356
0.358978
0.357629
0.356313
0.354989
0.353641
0.352287
0.350926
0.349543
0.348158
0.346768
0.345368
0.343983
0.342627
0.341286
0.339953
0.33862
0.337276
0.33592
0.334561
0.3332
0.331821
0.330435
0.329064
0.327704
0.326357
0.32502
0.323695
0.322381
0.321078
0.319787
0.318507
0.31724
0.315985
0.314743
0.313514
0.312299
0.311097
0.309909
0.308735
0.307575
0.306431
0.3053
0.304185
0.303085
0.302
0.300931
0.299877
0.298838
0.297816
0.296809
0.295819
0.294844
0.293885
0.292944
0.292018
0.291109
0.290217
0.28934
0.28848
0.287638
0.28681
0.286002
0.285209
0.284434
0.283676
0.282934
0.282212
0.281505
0.280818
0.280148
0.279497
0.278863
0.278248
0.277651
0.277072
0.276512
0.275969
0.275445
0.274939
0.274451
0.273982
0.27353
0.273096
0.272681
0.272282
0.271902
0.271539
0.271194
0.270866
0.270555
0.27026
0.269982
0.26972
0.269474
0.269243
0.269026
0.268823
0.268635
0.268458
0.268294
0.268143
0.268
0.267873
0.267755
0.267644
0.267546
0.267491
0.267352
0.267402
0.267219
0.267351
0.267189
0.267271
0.267434
0.267253
0.267584
0.266787
0.265413
0.271775
0.247904
0.386015
0.384891
0.383737
0.382557
0.381344
0.380099
0.378844
0.377558
0.376226
0.374878
0.373513
0.372138
0.370735
0.369302
0.36786
0.366423
0.364995
0.363545
0.362079
0.360612
0.359107
0.357541
0.355959
0.354389
0.352838
0.351294
0.349768
0.348252
0.346737
0.345226
0.343704
0.342157
0.340594
0.339023
0.337452
0.335893
0.334348
0.332812
0.331286
0.329786
0.328306
0.326829
0.325356
0.323888
0.322429
0.32098
0.319541
0.318115
0.316702
0.315301
0.313916
0.312544
0.311188
0.309846
0.30852
0.30721
0.305915
0.304637
0.303375
0.302129
0.300901
0.299688
0.298493
0.297315
0.296153
0.29501
0.293884
0.292776
0.291687
0.290615
0.289562
0.288527
0.287509
0.286511
0.285533
0.28457
0.283635
0.282714
0.281812
0.280933
0.280069
0.279229
0.278405
0.277603
0.27682
0.276054
0.27531
0.274583
0.273875
0.273186
0.272514
0.271861
0.271227
0.27061
0.270012
0.269432
0.268869
0.268325
0.267798
0.267289
0.266797
0.266323
0.265866
0.265425
0.265001
0.264594
0.264202
0.263827
0.263467
0.263122
0.262792
0.262477
0.262175
0.261889
0.261616
0.261356
0.261111
0.260879
0.260659
0.260457
0.260265
0.260089
0.259934
0.259785
0.259648
0.259567
0.259419
0.259417
0.259278
0.259324
0.259245
0.25923
0.259439
0.258897
0.258712
0.258079
0.256894
0.262414
0.241535
0.391181
0.389879
0.388537
0.387165
0.385771
0.384343
0.382877
0.381382
0.379871
0.378361
0.376811
0.375238
0.373647
0.372037
0.370435
0.368787
0.367091
0.365392
0.363771
0.362124
0.360381
0.358643
0.356922
0.355174
0.35339
0.351621
0.349865
0.348098
0.346323
0.344547
0.342763
0.340973
0.339189
0.337426
0.335688
0.333962
0.332236
0.330521
0.32882
0.327134
0.325462
0.323804
0.322159
0.320527
0.318913
0.317314
0.315731
0.314165
0.312613
0.311077
0.309557
0.308054
0.306568
0.305099
0.303648
0.302215
0.300802
0.299409
0.298035
0.296681
0.295348
0.294035
0.292744
0.291473
0.290224
0.288995
0.287788
0.286603
0.285439
0.284298
0.283178
0.282082
0.281007
0.279951
0.278918
0.277914
0.276918
0.275945
0.274993
0.274052
0.273136
0.272235
0.271356
0.270494
0.269654
0.268837
0.268035
0.267257
0.266498
0.265759
0.265042
0.264344
0.263667
0.26301
0.262372
0.261753
0.261154
0.260573
0.26001
0.259465
0.258938
0.258429
0.257937
0.257462
0.257003
0.256561
0.256136
0.255727
0.255334
0.254957
0.254596
0.254251
0.253922
0.253608
0.253311
0.25303
0.252765
0.252519
0.252287
0.252077
0.251881
0.251705
0.251548
0.251418
0.251282
0.251214
0.251087
0.251084
0.250965
0.251027
0.250978
0.250799
0.250823
0.250305
0.249915
0.249358
0.248414
0.253215
0.234673
0.397791
0.396274
0.394729
0.393139
0.391524
0.389882
0.388201
0.386508
0.384779
0.383003