/*--------------------------------*- C++ -*----------------------------------*\
| =========                 |                                                 |
| \\      /  F ield         | OpenFOAM: The Open Source CFD Toolbox           |
|  \\    /   O peration     | Version:  5.x                                   |
|   \\  /    A nd           | Web:      www.OpenFOAM.org                      |
|    \\/     M anipulation  |                                                 |
\*---------------------------------------------------------------------------*/
/*   Windows 32 and 64 bit porting by blueCAPE: http://www.bluecape.com.pt   *\
|  Based on Windows porting (2.0.x v4) by Symscape: http://www.symscape.com   |
\*---------------------------------------------------------------------------*/
FoamFile
{
    version     2.0;
    format      ascii;
    class       surfaceScalarField;
    location    "190";
    object      phi;
}
// * * * * * * * * * * * * * * * * * * * * * * * * * * * * * * * * * * * * * //

dimensions      [0 3 -1 0 0 0 0];

internalField   nonuniform List<scalar> 
87341
(
0.362963
39.5601
0.521569
39.7644
0.485234
39.9594
0.585908
39.8224
0.617659
39.8913
0.653173
39.8875
0.687438
39.8888
0.729235
39.8812
0.773391
39.8789
0.815332
39.8811
0.855242
39.8831
0.890377
39.8879
0.921649
39.8918
0.949564
39.8951
0.974606
39.898
0.997163
39.9005
1.01761
39.9026
1.03605
39.9046
1.05321
39.9059
1.06939
39.9069
1.08466
39.9078
1.09919
39.9085
1.11294
39.9093
1.12599
39.91
1.13851
39.9105
1.15043
39.9111
1.16187
39.9116
1.17292
39.912
39.9124
1.18361
0.966424
38.5936
1.35711
39.3737
1.46535
39.8511
1.60197
39.6857
1.63577
39.8575
1.79279
39.7305
1.88498
39.7966
2.00498
39.7612
2.08763
39.7962
2.17916
39.7896
2.26661
39.7957
2.35092
39.8036
2.42899
39.8137
2.5017
39.8224
2.56995
39.8297
2.63415
39.8363
2.69442
39.8423
2.7518
39.8472
2.80575
39.8519
2.85628
39.8563
2.90396
39.8601
2.94853
39.8639
2.99056
39.8673
3.03039
39.8701
3.06778
39.8731
3.1033
39.8756
3.13697
39.8779
3.16858
39.8804
39.8819
3.19901
2.03263
36.561
3.34486
38.0615
4.12155
39.0744
4.20197
39.6053
4.36472
39.6947
4.30207
39.7931
4.33887
39.7598
4.31651
39.7836
4.33272
39.78
4.33845
39.7838
4.34164
39.7925
4.35437
39.7909
4.37559
39.7925
4.40215
39.7959
4.43179
39.8001
4.46324
39.8048
4.49638
39.8092
4.52947
39.8141
4.56277
39.8186
4.59608
39.823
4.6282
39.828
4.66071
39.8314
4.69304
39.8349
4.7246
39.8386
4.75678
39.8409
4.78862
39.8438
4.82007
39.8465
4.85224
39.8482
39.8501
4.88405
1.6892
34.8718
3.48111
36.2696
4.91981
37.6358
5.79572
38.7294
6.08458
39.4059
6.16606
39.7117
6.17895
39.7469
6.19506
39.7675
6.20914
39.7659
6.21555
39.7774
6.22694
39.7811
6.2275
39.7903
6.22703
39.7929
6.23065
39.7922
6.23874
39.792
6.2516
39.792
6.26739
39.7934
6.28807
39.7934
6.31151
39.7952
6.33664
39.7979
6.36623
39.7984
6.39674
39.8009
6.42828
39.8034
6.46289
39.804
6.49692
39.8069
6.53161
39.8091
6.56797
39.8101
6.603
39.8132
39.8146
6.63857
1.06886
33.803
2.41722
34.9212
3.96974
36.0832
5.41218
37.287
6.45826
38.3598
7.01975
39.1502
7.20697
39.5597
7.24776
39.7267
7.28125
39.7324
7.32301
39.7357
7.36494
39.7392
7.4139
39.7413
7.45632
39.7505
7.49181
39.7567
7.52633
39.7575
7.55975
39.7585
7.59793
39.7552
7.63464
39.7567
7.67227
39.7576
7.7163
39.7539
7.76031
39.7544
7.8074
39.7538
7.85875
39.752
7.90907
39.7537
7.96284
39.7531
8.01861
39.7533
8.0724
39.7563
8.12928
39.7563
39.7571
8.18674
0.830652
32.9723
1.8166
33.9353
2.95923
34.9406
4.26208
35.9841
5.58744
37.0344
6.69393
38.0437
7.3888
38.8648
7.71959
39.3959
7.84433
39.6077
7.92707
39.6529
8.00986
39.6564
8.08243
39.6688
8.15949
39.6735
8.23581
39.6804
8.30959
39.6837
8.38732
39.6808
8.45947
39.6831
8.5314
39.6848
8.60481
39.6841
8.67286
39.6858
8.74324
39.684
8.81311
39.684
8.8782
39.6869
8.9476
39.6842
9.01608
39.6847
9.08058
39.6888
9.15032
39.6866
9.21873
39.6879
39.6894
9.28637
0.723467
32.2488
1.54777
33.111
2.47316
34.0152
3.50364
34.9536
4.6284
35.9097
5.8088
36.8633
6.88033
37.7933
7.66056
38.6157
8.06828
39.2
8.23852
39.4827
8.34783
39.5471
8.46221
39.5544
8.56948
39.5662
8.68005
39.5699
8.7939
39.5699
8.8999
39.5748
9.00769
39.5753
9.1171
39.5754
9.22012
39.5811
9.3269
39.579
9.43115
39.5797
9.52753
39.5876
9.62893
39.5856
9.72647
39.5867
9.81816
39.593
9.91397
39.593
10.0044
39.5962
10.091
39.6012
39.599
10.1814
0.669721
31.5791
1.40808
32.3726
2.21736
33.2059
3.09929
34.0717
4.05064
34.9583
5.06124
35.8527
6.11507
36.7394
7.13412
37.5966
7.93919
38.3949
8.41715
39.0047
8.62704
39.3372
8.75708
39.4243
8.8945
39.4288
9.02453
39.4398
9.14759
39.4468
9.28274
39.4397
9.41998
39.438
9.54585
39.4495
9.67924
39.4477
9.81221
39.4461
9.93805
39.4539
10.0703
39.4553
10.1979
39.4579
10.3207
39.4639
10.4472
39.4665
10.566
39.4742
10.6842
39.478
10.8059
39.4795
39.4887
10.9163
0.632355
30.9468
1.31196
31.693
2.04495
32.473
2.83292
33.2837
3.67486
34.1164
4.56659
34.961
5.49961
35.8064
6.45648
36.6398
7.40688
37.4445
8.21109
38.2005
8.73677
38.8115
8.98763
39.1735
9.14843
39.268
9.3189
39.2694
9.48889
39.2768
9.65042
39.2781
9.80376
39.2847
9.97024
39.283
10.1329
39.2851
10.2838
39.2952
10.4421
39.2955
10.5931
39.3044
10.7413
39.3097
10.8946
39.3106
11.0391
39.322
11.1832
39.3301
11.3294
39.3317
11.4638
39.3451
39.3513
11.6012
0.607094
30.3397
1.2559
31.0442
1.94419
31.7847
2.67362
32.5543
3.44437
33.3456
4.25487
34.1505
5.10133
34.96
5.9766
35.7645
6.86809
36.553
7.7566
37.312
8.54727
38.0208
9.10394
38.6168
9.38862
38.9833
9.58347
39.0745
9.78963
39.0707
9.98569
39.0821
10.1891
39.0812
10.3824
39.0898
10.5648
39.1026
10.7599
39.1001
10.9449
39.1105
11.1305
39.1188
11.317
39.1233
11.4913
39.1363
11.666
39.1472
11.846
39.1501
12.0141
39.1637
12.1874
39.1719
39.1794
12.3593
0.609741
29.7299
1.25071
30.4032
1.92407
31.1113
2.63043
31.8479
3.36969
32.6064
4.14078
33.3794
4.94148
34.1592
5.76798
34.938
6.61405
35.7069
7.46984
36.4562
8.31744
37.1732
9.09585
37.8384
9.66854
38.4106
9.97704
38.766
10.1825
38.8652
10.4095
38.8551
10.6267
38.864
10.8384
38.8782
11.0645
38.8765
11.2759
38.8888
11.4852
38.9011
11.6954
38.9085
11.8997
38.9191
12.1064
38.9295
12.3195
38.9341
12.5198
38.9499
12.7188
38.9646
12.9127
38.978
38.9896
13.1025
0.616594
29.1133
1.25901
29.7608
1.9285
30.4418
2.62505
31.1514
3.3483
31.8831
4.09725
32.6304
4.8701
33.3864
5.66412
34.144
6.47534
34.8957
7.29788
35.6337
8.12236
36.3488
8.93176
37.029
9.68605
37.6563
10.25
38.2021
10.581
38.5341
10.8184
38.6177
11.0582
38.6242
11.3099
38.6264
11.5475
38.6389
11.7779
38.6584
12.0175
38.6615
12.2528
38.6732
12.4864
38.6855
12.7192
38.6967
12.9411
38.7123
13.1538
38.7372
13.3707
38.7477
13.5912
38.7575
38.7719
13.8088
0.616556
28.4968
1.25642
29.121
1.9194
29.7788
2.60492
30.4659
3.3119
31.1761
4.03923
31.9031
4.78535
32.6403
5.54794
33.3814
6.3239
34.1198
7.10904
34.8486
7.8975
35.5603
8.68027
36.2462
9.44155
36.895
10.1531
37.4906
10.6897
37.9975
11.0263
38.2811
11.3156
38.3349
11.5931
38.349
11.8556
38.3765
12.1347
38.3793
12.4117
38.3844
12.6816
38.4033
12.9424
38.4247
13.204
38.4352
13.449
38.4673
13.7104
38.4758
13.9737
38.4845
14.2162
38.515
38.5377
14.4504
0.616394
27.8804
1.25305
28.4843
1.90969
29.1222
2.5859
29.7897
3.2803
30.4817
3.99091
31.1925
4.71589
31.9153
5.45326
32.644
6.20033
33.3727
6.95375
34.0951
7.70926
34.8048
8.46112
35.4944
9.20098
36.1552
9.91559
36.776
10.5712
37.3419
11.0531
37.7991
11.4023
37.9858
11.7152
38.0361
12.0431
38.0485
12.3772
38.0451
12.6746
38.0871
12.9641
38.1138
13.2772
38.1116
13.5707
38.1417
13.8771
38.1609
14.1824
38.1704
14.4487
38.2182
14.7126
38.2512
38.2496
15.0007
0.619715
27.2607
1.2574
27.8466
1.91239
28.4672
2.58412
29.1179
3.2718
29.7941
3.97365
30.4906
4.68712
31.2018
5.40981
31.9213
6.1395
32.643
6.87347
33.3612
7.60838
34.0699
8.34017
34.7626
9.06356
35.4318
9.77122
36.0683
10.4534
36.6597
11.0606
37.192
11.4901
37.5562
11.8526
37.6736
12.2333
37.6679
12.559
37.7194
12.898
37.7482
13.272
37.7398
13.607
37.7766
13.9274
37.8212
14.2645
37.8238
14.5627
37.8723
14.873
37.9078
15.2117
37.9124
37.9558
15.5055
0.627147
26.6335
1.2709
27.2029
1.9303
27.8078
2.60432
28.4439
3.292
29.1064
3.99241
29.7902
4.7038
30.4904
5.4235
31.2016
6.1489
31.9176
6.87769
32.6324
7.60715
33.3404
8.33404
34.0357
9.0543
34.7115
9.76257
35.36
10.451
35.9712
11.1087
36.5343
11.6535
37.0114
12.1116
37.2155
12.4724
37.3071
12.855
37.3367
13.2639
37.3393
13.6217
37.382
13.9831
37.4153
14.3766
37.4277
14.7254
37.4749
15.0696
37.5281
15.4276
37.5498
15.7454
37.5947
37.6277
16.0735
0.639518
25.994
1.29464
26.5477
1.96447
27.138
2.64791
27.7605
3.34366
28.4106
4.05046
29.0834
4.76724
29.7737
5.49238
30.4765
6.22324
31.1868
6.95701
31.8986
7.69113
32.6063
8.42258
33.3042
9.14779
33.9863
9.86231
34.6455
10.5604
35.2731
11.2365
35.8583
11.8588
36.3891
12.336
36.7383
12.7898
36.8533
13.2391
36.8874
13.6776
36.9008
14.108
36.9516
14.5128
37.0105
14.88
37.0605
15.2661
37.0888
15.6741
37.1202
16.0633
37.1605
16.4427
37.2154
37.2681
16.8023
0.654697
25.3393
1.32463
25.8778
2.00871
26.4539
2.70571
27.0635
3.41429
27.7021
4.13291
28.3648
4.86
29.0466
5.59421
29.7423
6.33386
30.4471
7.07637
31.1561
7.81901
31.8636
8.55928
32.564
9.29425
33.2514
10.0206
33.9191
10.7346
34.5591
11.4318
35.1611
12.1057
35.7151
12.687
36.157
13.1873
36.353
13.6747
36.4
14.1056
36.4698
14.5154
36.5418
14.9645
36.5615
15.4281
36.5968
15.8721
36.6448
16.2939
36.6984
16.6726
36.7818
17.0351
36.8529
36.8921
17.411
0.673688
24.6656
1.36241
25.1891
2.06504
25.7513
2.78031
26.3482
3.50682
26.9755
4.24307
27.6285
4.9874
28.3022
5.73806
28.9916
6.49353
29.6916
7.25216
30.3975
8.0115
31.1043
8.76899
31.8065
9.52206
32.4983
10.2677
33.1735
11.0021
33.8248
11.7196
34.4437
12.4076
35.0271
13.0299
35.5346
13.5783
35.8046
14.0661
35.9122
14.5569
35.979
15.0838
36.0149
15.5921
36.0531
16.0389
36.15
16.4786
36.2051
16.8976
36.2794
17.3336
36.3458
17.7735
36.413
36.4787
18.187
0.696251
23.9694
1.40769
24.4777
2.13311
25.0258
2.87121
25.6101
3.62059
26.2262
4.37973
26.8694
5.147
27.535
5.92065
28.218
6.69884
28.9134
7.47987
29.6165
8.26174
30.3224
9.04187
31.0263
9.81746
31.7227
10.5851
32.4058
11.3407
33.0692
12.0788
33.7056
12.7983
34.3077
13.4717
34.8612
14.0465
35.2298
14.5991
35.3596
15.144
35.434
15.6522
35.5068
16.1487
35.5566
16.6342
35.6646
17.0971
35.7421
17.5615
35.8151
18.0125
35.8947
18.4671
35.9584
36.0146
18.9312
0.721426
23.2479
1.45827
23.7408
2.20936
24.2748
2.97336
24.8461
3.74883
25.4507
4.53422
26.084
5.32782
26.7414
6.12782
27.418
6.93226
28.109
7.73906
28.8097
8.54614
29.5153
9.3512
30.2213
10.1513
30.9225
10.9433
31.6138
11.7233
32.2892
12.4871
32.9418
13.2291
33.5657
13.9421
34.1482
14.6139
34.558
15.1891
34.7845
15.7538
34.8693
16.292
34.9685
16.764
35.0846
17.2462
35.1824
17.7668
35.2214
18.2892
35.2927
18.7855
35.3984
19.2268
35.517
35.6503
19.5911
0.747302
22.5006
1.51045
22.9777
2.28821
23.497
3.07921
24.0551
3.88198
24.6479
4.69491
25.2711
5.51628
25.92
6.34422
26.59
7.17674
27.2765
8.01174
27.9747
8.84708
28.68
9.68052
29.3878
10.5097
30.0934
11.332
30.7915
12.1448
31.4764
12.9453
32.1413
13.7333
32.7777
14.4947
33.3867
15.1458
33.9069
15.7521
34.1782
16.3012
34.3203
16.8479
34.4218
17.4529
34.4796
18.0242
34.6111
18.5522
34.6934
19.0226
34.8223
19.4925
34.9286
19.9925
35.017
35.1772
20.4656
0.773279
21.7274
1.56286
22.1881
2.36753
22.6923
3.18594
23.2367
4.01661
23.8172
4.85796
24.4297
5.70826
25.0697
6.56566
25.7326
7.42819
26.4139
8.29379
27.1091
9.1603
27.8135
10.0255
28.5226
10.8871
29.2318
11.7427
29.9359
12.5896
30.6295
13.4247
31.3062
14.2421
31.9602
15.0367
32.5921
15.7877
33.156
16.4354
33.5305
17.0487
33.707
17.6154
33.8551
18.1229
33.972
18.6594
34.0746
19.1918
34.161
19.7198
34.2943
20.2137
34.4347
20.6599
34.5708
34.7413
21.0958
0.798506
20.9289
1.61381
21.3728
2.44477
21.8614
3.29009
22.3914
4.14835
22.959
5.01801
23.5601
5.89738
24.1903
6.78462
24.8454
7.67779
25.5208
8.57482
26.212
9.47352
26.9148
10.3716
27.6246
11.2664
28.337
12.1552
29.0472
13.0345
29.7502
13.8996
30.441
14.745
31.1148
15.5564
31.7808
16.2905
32.4219
16.9764
32.8447
17.6086
33.0747
18.2429
33.2208
18.8881
33.3268
19.4415
33.5212
19.9237
33.6788
20.4125
33.8056
20.9478
33.8993
21.4975
34.0211
34.2603
21.9785
0.821727
20.1071
1.66073
20.5338
2.51596
21.0061
3.38621
21.5211
4.27013
22.0751
5.16621
22.664
6.0728
23.2838
6.98805
23.9301
7.91001
24.5988
8.83654
25.2855
9.76536
25.986
10.694
26.696
11.6197
27.4112
12.5395
28.1274
13.4498
28.8399
14.3465
29.5443
15.2248
30.2365
16.0909
30.9147
16.9297
31.583
17.6438
32.1306
18.2801
32.4385
18.8461
32.6548
19.3695
32.8034
20.0004
32.8903
20.6324
33.0469
21.1842
33.2537
21.6196
33.464
22.0489
33.5917
33.7221
22.5871
0.841917
19.2652
1.70155
19.6741
2.57792
20.1298
3.46995
20.6291
4.37636
21.1686
5.2957
21.7446
6.22632
22.3531
7.16642
22.99
8.11399
23.6512
9.06684
24.3327
10.0226
25.0302
10.9787
25.7399
11.9323
26.4577
12.8801
27.1795
13.8187
27.9013
14.7439
28.6191
15.6514
29.329
16.5328
30.0334
17.3809
30.7348
18.2002
31.3113
18.9086
31.7301
19.6196
31.9438
20.2358
32.1872
20.7074
32.4187
21.1558
32.5985
21.7578
32.6517
22.3906
32.8312
22.8913
33.091
33.2855
23.3279
0.85855
18.4067
1.73516
18.7975
2.62901
19.2359
3.53913
19.719
4.46438
20.2434
5.40339
20.8056
6.3546
21.4019
7.31627
22.0284
8.28644
22.6811
9.26301
23.3561
10.2437
24.0496
11.2259
24.7576
12.2072
25.4764
13.1846
26.2021
14.1553
26.9307
15.1162
27.6581
16.0646
28.3806
17.0035
29.0945
17.9204
29.8179
18.7312
30.5005
19.4492
31.0121
20.0606
31.3323
20.7026
31.5452
21.4412
31.6801
22.0238
32.0158
22.4348
32.2407
22.9223
32.3437
23.4455
32.5678
32.7617
23.9693
0.871222
17.5354
1.76077
17.908
2.66798
18.3287
3.59208
18.7949
4.53205
19.3034
5.48667
19.851
6.4545
20.4341
7.43389
21.049
8.423
21.692
9.41978
22.3593
10.422
23.0473
11.4273
23.7523
12.4331
24.4706
13.4368
25.1984
14.4356
25.932
15.4263
26.6674
16.4064
27.4005
17.3713
28.1295
18.3271
28.8622
19.236
29.5915
19.9977
30.2505
20.7347
30.5953
21.2989
30.9811
21.7565
31.2225
22.4544
31.318
23.0768
31.6182
23.5758
31.8447
24.0577
32.0859
32.3443
24.4752
0.879699
16.6557
1.77788
17.0098
2.69408
17.4125
3.62773
17.8612
4.57801
18.3532
5.54385
18.8852
6.52398
19.454
7.51689
20.0561
8.52088
20.688
9.53402
21.3462
10.5542
22.0271
11.5791
22.7274
12.6063
23.4434
13.6331
24.1716
14.6566
24.9084
15.6737
25.6503
16.6805
26.3937
17.6742
27.1359
18.6495
27.8869
19.5955
28.6455
20.4376
29.4083
21.1212
29.9117
21.9215
30.1808
22.5301
30.6139
22.9346
30.9135
23.5267
31.0261
24.0734
31.2981
24.6011
31.5582
31.8699
25.0755
0.883781
15.772
1.78608
16.1075
2.70666
16.4919
3.64516
16.9227
4.60096
17.3973
5.5732
17.9129
6.56075
18.4664
7.56228
19.0545
8.57623
19.674
9.60083
20.3216
10.6341
20.9938
11.6739
21.6876
12.7177
22.3996
13.7629
23.1264
14.8067
23.8646
15.8458
24.6112
16.8765
25.363
17.8937
26.1187
18.8986
26.882
19.8691
27.675
20.8095
28.468
21.5691
29.152
22.1542
29.5957
22.9371
29.8309
23.5983
30.2524
24.0446
30.5797
24.5861
30.7565
25.0667
31.0776
31.418
25.5185
0.883467
14.8885
1.78536
15.2056
2.70567
15.5716
3.64426
15.9841
4.60072
16.4409
5.57436
16.9393
6.56425
17.4765
7.5692
18.0496
8.5878
18.6554
9.61843
19.2909
10.6592
19.9531
11.7081
20.6388
12.7627
21.345
13.8204
22.0687
14.8781
22.8069
15.9329
23.5565
16.9809
24.315
18.0189
25.0808
19.0437
25.8571
20.0555
26.6633
21.0223
27.5012
21.9382
28.2361
22.6678
28.8661
23.179
29.3197
23.8984
29.533
24.5347
29.9435
25.0007
30.2905
25.547
30.5313
30.9647
26.0003
0.878944
14.0096
1.7761
14.3085
2.69169
14.656
3.6258
15.05
4.57823
15.4884
5.54851
15.969
6.53587
16.4892
7.5393
17.0461
8.55757
17.6371
9.58915
18.2593
10.6323
18.9099
11.6849
19.5861
12.7449
20.2851
13.8097
21.0039
14.8765
21.74
15.9423
22.4907
17.0037
23.2536
18.0574
24.027
19.1029
24.8116
20.1418
25.6244
21.1705
26.4725
22.0917
27.3149
22.9729
27.9849
23.6968
28.5958
24.1575
29.0723
24.806
29.2949
25.3832
29.7133
25.8322
30.0822
30.4272
26.3697
0.870485
13.1391
1.75885
13.4201
2.66554
13.7494
3.59089
14.1247
4.53493
14.5444
5.49737
15.0066
6.47765
15.5089
7.47496
16.0488
8.48822
16.6239
9.51607
17.2315
10.5569
17.8691
11.6089
18.5341
12.6698
19.2242
13.7374
19.9363
14.8091
20.6682
15.8822
21.4176
16.9536
22.1822
18.0206
22.9601
19.0808
23.7514
20.141
24.5642
21.1983
25.4152
22.2143
26.2989
23.0682
27.1311
23.8979
27.7662
24.5995
28.3707
25.0263
28.8681
25.6175
29.1222
26.1409
29.5588
29.9634
26.6048
0.858391
12.2807
1.73422
12.5443
2.62816
12.8554
3.5408
13.212
4.47238
13.6128
5.42283
14.0561
6.39179
14.5399
7.37864
15.062
8.38251
15.62
9.40224
16.2118
10.4365
16.8349
11.4836
17.487
12.5417
18.166
13.6084
18.8696
14.6813
19.5954
15.7577
20.3411
16.835
21.1048
17.9105
21.8847
18.9825
22.6794
20.0538
23.4929
21.1304
24.3386
22.1834
25.2459
23.1674
26.1471
23.9596
26.9739
24.7347
27.5957
25.4049
28.1978
25.8129
28.7142
26.3467
29.025
29.5289
26.7812
0.84298
11.4377
1.70286
11.6844
2.58053
11.9777
3.47685
12.3157
4.39226
12.6974
5.32693
13.1215
6.28071
13.5861
7.25322
14.0895
8.24379
14.6295
9.25152
15.204
10.2752
15.8111
11.3135
16.4488
12.3645
17.115
13.4262
17.808
14.4961
18.5254
15.5719
19.2653
16.6509
20.0259
17.7302
20.8054
18.8073
21.6023
19.8834
22.4168
20.9659
23.256
22.0538
24.158
23.0691
25.1317
24.0073
26.0357
24.7428
26.8602
25.4536
27.487
26.0653
28.1025
26.4794
28.6109
29.0187
26.9895
0.824554
10.6131
1.66538
10.8436
2.5236
11.1195
3.40032
11.439
4.29621
11.8015
5.21164
12.206
6.14672
12.6511
7.10128
13.1349
8.07491
13.6558
9.0669
14.212
10.0763
14.8018
11.1017
15.4233
12.1417
16.075
13.1943
16.7554
14.2572
17.4625
15.3282
18.1944
16.4043
18.9497
17.4828
19.7269
18.5604
20.5246
19.635
21.3423
20.7087
22.1823
21.8028
23.0639
22.8888
24.0457
23.8455
25.0791
24.7414
25.9643
25.4413
26.7872
26.0995
27.4443
26.6468
28.0635
28.6522
27.0134
0.803393
9.80975
1.62236
10.0246
2.45825
10.2836
3.3124
10.5849
4.18571
10.9282
5.07877
11.313
5.99192
11.7379
6.92522
12.2016
7.87849
12.7026
8.85125
13.2393
9.84275
13.8103
10.852
14.4141
11.8776
15.0494
12.9182
15.7149
13.971
16.4096
15.0338
17.1317
16.1036
17.8799
17.1775
18.653
18.252
19.4502
19.3238
20.2705
20.3908
21.1152
21.4611
21.9937
22.5701
22.9367
23.6475
24.0016
24.5364
25.0754
25.3946
25.929
26.042
26.7968
26.6313
27.4742
28.1488
27.1348
0.779754
9.03
1.57432
9.23002
2.38529
9.47266
3.2142
9.75596
4.06218
10.0802
4.93006
10.4451
5.8184
10.8496
6.72752
11.2925
7.65751
11.7726
8.60813
12.2886
9.57892
12.8395
10.5691
13.4239
11.5775
14.041
12.6025
14.6898
13.6422
15.37
14.6939
16.08
15.755
16.8188
16.8222
17.5859
17.8917
18.3806
18.9598
19.2025
20.0229
20.0521
21.0823
20.9343
22.1533
21.8658
23.2771
22.8778
24.319
24.0335
25.1426
25.1054
25.9627
25.9767
26.5468
26.8901
27.6396
27.056
0.753869
8.27613
1.52176
8.46214
2.30545
8.68897
3.10672
8.95468
3.92691
9.26003
4.76707
9.60493
5.62801
9.98863
6.51031
10.4102
7.41431
10.8686
8.34008
11.3629
9.28737
11.8922
10.2556
12.4557
11.2439
13.0527
12.251
13.6827
13.2756
14.3454
14.3147
15.0409
15.3654
15.768
16.4246
16.5267
17.4883
17.3169
18.5523
18.1386
19.612
18.9923
20.6656
19.8807
21.7191
20.8122
22.7908
21.8061
23.9179
22.9064
24.8994
24.1238
25.6524
25.2238
26.4048
26.1377
27.1242
26.9202
0.725948
7.55018
1.46509
7.72299
2.21941
7.93465
2.99089
8.1832
3.78108
8.46984
4.59125
8.79476
5.42246
9.15742
6.27557
9.55707
7.15119
9.99296
8.04968
10.4644
8.9711
10.9708
9.91519
11.5116
10.8814
12.0866
11.8686
12.6954
12.8756
13.3384
13.9002
14.0162
14.9393
14.7289
15.9897
15.4764
17.0473
16.2593
18.1075
17.0783
19.1654
17.9344
20.2166
18.8296
21.2606
19.7682
22.3059
20.7608
23.3786
21.8337
24.4829
23.0195
25.3984
24.3083
26.0882
25.4479
26.4803
26.7322
0.696197
6.85398
1.40476
7.01443
2.12783
7.21157
2.86761
7.44342
3.62584
7.71162
4.404
8.0166
5.20342
8.358
6.02521
8.73527
6.87029
9.14788
7.73931
9.59537
8.63266
10.0774
9.55041
10.5939
10.4923
11.1447
11.4575
11.7302
12.445
12.3509
13.4534
13.0078
14.4798
13.7026
15.5207
14.4355
16.5722
15.2077
17.6295
16.021
18.687
16.8769
19.7391
17.7775
20.7811
18.7262
21.8127
19.7292
22.8486
20.7977
23.9094
21.9587
24.9595
23.2582
25.8024
24.605
25.8619
26.4207
0.664827
6.18916
1.34118
6.33808
2.03138
6.52137
2.7378
6.737
3.46235
6.98706
4.20676
7.2722
4.97257
7.59219
5.76117
7.94667
6.57376
8.33529
7.41132
8.75782
8.27455
9.21419
9.16388
9.70452
10.0794
10.2292
11.0207
10.7889
11.9869
11.3846
12.977
12.0176
13.9894
12.6902
15.0203
13.4046
16.0656
14.1624
17.1206
14.9661
18.1792
15.8183
19.2348
16.7219
20.2805
17.6805
21.3106
18.6991
22.3244
19.7839
23.3394
20.9436
24.3703
22.2273
25.3373
23.638
25.1055
26.0937
0.632065
5.55709
1.27483
5.69532
1.93077
5.86543
2.60244
6.06534
3.2919
6.2976
4.00107
6.56303
4.73173
6.86153
5.48553
7.19287
6.26393
7.55689
7.06822
7.95354
7.89944
8.38296
8.7584
8.84556
9.64555
9.34206
10.561
9.87351
11.5043
10.4413
12.4745
11.0474
13.4706
11.6941
14.49
12.3852
15.5286
13.1239
16.5814
13.9133
17.6424
14.7573
18.7041
15.6602
19.7581
16.6265
20.7955
17.6617
21.8083
18.771
22.7936
19.9584
23.7734
21.2475
24.7484
22.6631
24.2351
25.6188
0.598164
4.95893
1.20622
5.08726
1.82682
5.24483
2.46263
5.42953
3.11587
5.64435
3.78864
5.89026
4.48292
6.16725
5.20058
6.47521
5.94334
6.81412
6.71278
7.1841
7.51028
7.58546
8.337
8.01884
9.19385
8.48522
10.0813
8.98601
10.9996
9.5231
11.9481
10.0989
12.9258
10.7164
13.9314
11.3796
14.9619
12.0934
16.0123
12.8629
17.0764
13.6932
18.1465
14.5901
19.2129
15.56
20.2646
16.61
21.2894
17.7462
22.2748
18.9731
23.2191
20.3032
24.1387
21.7435
23.3287
25.0451
0.563402
4.39553
1.13593
4.51473
1.72038
4.66039
2.31956
4.83035
2.9358
5.02811
3.57133
5.25473
4.22832
5.51026
4.90883
5.79471
5.61479
6.10816
6.34805
6.45084
7.1103
6.82321
7.90307
7.22607
8.72766
7.66063
9.58507
8.1286
10.4759
8.63224
11.4004
9.17446
12.3578
9.75891
13.3474
10.39
14.3672
11.0736
15.4137
11.8164
16.4807
12.6262
17.5605
13.5103
18.6429
14.4777
19.7149
15.538
20.7613
16.6999
21.7644
17.97
22.7092
19.3583
23.5846
20.8682
22.4824
24.4308
0.528072
3.86745
1.06455
3.97825
1.61239
4.11254
2.17451
4.26824
2.75331
4.44931
3.35115
4.65689
3.97031
4.8911
4.61298
5.15204
5.28131
5.43983
5.97736
5.75479
6.7031
6.09747
7.46037
6.46879
8.25089
6.87012
9.07611
7.30338
9.93722
7.77113
10.835
8.2767
11.7696
8.82426
12.7407
9.41892
13.7472
10.0671
14.7868
10.7768
15.8551
11.5578
16.9445
12.4209
18.0447
13.3774
19.142
14.4407
20.2183
15.6235
21.2514
16.937
22.2193
18.3904
23.0913
19.9961
21.6972
23.8765
0.492475
3.37498
0.992683
3.47804
1.50379
3.60144
2.02878
3.74325
2.5701
3.90799
3.13015
4.09683
3.7113
4.30996
4.31583
4.5475
4.94605
4.80962
5.60418
5.09665
6.29244
5.40922
7.01296
5.74827
7.7678
6.11528
8.55886
6.51232
9.38786
6.94213
10.2562
7.40835
11.1649
7.91553
12.1145
8.46937
13.1045
9.07707
14.1337
9.74761
15.1998
10.4917
16.2969
11.3239
17.4152
12.2592
18.5407
13.3152
19.654
14.5103
20.7281
15.8628
21.7349
17.3836
22.6345
19.0965
20.9388
23.3929
0.456897
2.91808
0.920936
3.014
1.39553
3.12685
1.88367
3.2551
2.38782
3.40384
2.91037
3.57428
3.4537
3.76663
4.02016
3.98104
4.61214
4.21764
5.23203
4.47676
5.88219
4.75906
6.565
5.06545
7.28285
5.39743
8.038
5.75717
8.83267
6.14746
9.66885
6.57216
10.5484
7.03603
11.4725
7.54518
12.4423
8.1073
13.4574
8.73251
14.5168
9.43237
15.6172
10.2235
16.7515
11.1249
17.9057
12.1609
19.0607
13.3553
20.1855
14.738
21.2464
16.3227
22.1928
18.1501
20.1641
22.9675
0.421597
2.49648
0.849864
2.58574
1.28848
2.68823
1.74041
2.80317
2.20804
2.93621
2.69373
3.08859
3.1998
3.26057
3.7286
3.45224
4.28259
3.66365
4.86426
3.8951
5.47606
4.14725
6.1206
4.42092
6.80047
4.71755
7.51829
5.03935
8.27662
5.38914
9.07797
5.7708
9.92491
6.18909
10.8197
6.65044
11.7645
7.16249
12.7606
7.73641
13.8084
8.38452
14.906
9.12589
16.0507
9.98009
17.231
10.9807
18.4298
12.1565
19.6137
13.5541
20.7447
15.1917
21.7538
17.1409
19.3438
22.5741
0.386791
2.10969
0.779966
2.19256
1.18346
2.28474
1.60011
2.38653
2.0322
2.50411
2.48198
2.6388
2.95165
2.7909
3.44353
2.96035
3.96012
3.14706
4.50393
3.35129
5.07749
3.57369
5.68353
3.81488
6.32481
4.07627
7.00416
4.35999
7.72439
4.66891
8.48844
5.00675
9.29956
5.37798
10.1607
5.78927
11.0754
6.24777
12.0462
6.76568
13.076
7.35474
14.1641
8.03776
15.3117
8.83252
16.511
9.78134
17.7525
10.9151
18.9989
12.3077
20.2108
13.9798
21.2984
16.0534
18.4509
22.1913
0.352649
1.75704
0.711687
1.83353
1.08118
1.91524
1.46373
2.00397
1.86153
2.10632
2.27661
2.22372
2.71101
2.35651
3.16697
2.50439
3.64701
2.66702
4.15362
2.84468
4.68939
3.03792
5.25702
3.24725
5.85935
3.47394
6.49929
3.72005
7.17998
3.98822
7.90456
4.28217
8.67677
4.60577
9.50013
4.96591
10.3794
5.36854
11.3178
5.8272
12.3214
6.35115
13.3913
6.9679
14.5331
7.69069
15.7409
8.57358
17.0164
9.63952
18.32
11.0041
19.6208
12.679
20.8026
14.8715
17.4591
21.7944
0.319318
1.43773
0.645433
1.50741
0.982269
1.57841
1.3321
1.65414
1.69701
1.7414
2.0788
1.84193
2.47922
1.95609
2.90046
2.08315
3.34501
2.22247
3.81531
2.37437
4.3139
2.53934
4.84331
2.71784
5.40656
2.91068
6.00654
3.12007
6.64653
3.34824
7.32968
3.59901
8.06013
3.87532
8.84167
4.18437
9.68007
4.53014
10.5793
4.92798
11.5479
5.38253
12.5884
5.92741
13.7131
6.56598
14.9157
7.37096
16.2111
8.34412
17.5593
9.65587
18.9504
11.2879
20.2321
13.5898
16.3452
21.346
0.286958
1.15077
0.581602
1.21277
0.887274
1.27274
1.20586
1.33556
1.5394
1.40787
1.88934
1.492
2.25715
1.58828
2.64492
1.69538
3.05512
1.81227
3.49011
1.93938
3.95215
2.0773
4.44382
2.22616
4.96815
2.38635
5.52791
2.56031
6.12639
2.74976
6.76663
2.95878
7.45301
3.18893
8.18939
3.44799
8.98239
3.73715
9.83643
4.07394
10.7621
4.45683
11.763
4.92652
12.8573
5.47174
14.0389
6.1893
15.3366
7.04647
16.7089
8.28348
18.1818
9.81506
19.5597
12.2119
15.0912
20.8138
0.255815
0.894953
0.520644
0.947938
0.796726
0.996654
1.08556
1.04672
1.38914
1.10429
1.70855
1.17259
2.04503
1.2518
2.40053
1.33988
2.77754
1.43526
3.17828
1.53864
3.60473
1.65085
4.05947
1.77143
4.54543
1.90039
5.06524
2.0405
5.62212
2.19288
6.21901
2.3619
6.86022
2.54772
7.54975
2.75846
8.29465
2.99225
9.10014
3.26845
9.97721
3.57976
10.9306
3.97318
11.9815
4.42082
13.1272
5.04354
14.4094
5.7643
15.7874
6.90548
17.3302
8.2723
18.8095
10.7326
13.6594
20.2413
0.226313
0.66864
0.463134
0.711117
0.711221
0.748567
0.971696
0.786246
1.24644
0.829543
1.53629
0.88274
1.84248
0.945613
2.16687
1.01549
2.51201
1.09011
2.87994
1.17071
3.27224
1.25854
3.69141
1.35227
4.14036
1.45144
4.6214
1.55945
5.1377
1.67658
5.69223
1.80736
6.28894
1.95102
6.93203
2.11536
7.62791
2.29637
8.3832
2.51316
9.20836
2.7546
10.1109
3.07068
11.112
3.41968
12.2143
3.94123
13.4678
4.51078
14.8499
5.5234
16.4567
6.66549
18.1004
9.08889
11.9552
19.8046
0.199144
0.469496
0.40985
0.500411
0.631556
0.526861
0.864942
0.55286
1.11157
0.582915
1.37238
0.621931
1.64913
0.668866
1.94372
0.720895
2.25868
0.775153
2.59564
0.833749
2.9557
0.898489
3.34137
0.966595
3.75551
1.0373
4.1999
1.11507
4.67727
1.19921
5.1907
1.29393
5.74422
1.3975
6.34256
1.51702
6.99106
1.64787
7.69734
1.80688
8.4714
1.98053
9.32413
2.21796
10.275
2.46879
11.3396
2.87662
12.5585
3.29195
13.9792
4.10268
15.6315
5.01321
17.6688
7.05155
9.77025
19.8538
0.175282
0.294214
0.361794
0.313899
0.558908
0.329746
0.766476
0.345292
0.985696
0.363696
1.21803
0.389599
1.46637
0.42052
1.73242
0.454845
2.01876
0.488813
2.32634
0.526171
2.65587
0.568963
3.00986
0.612597
3.39104
0.656132
3.80017
0.705931
4.24002
0.75936
4.7134
0.820551
5.22495
0.885946
5.77885
0.963126
6.38154
1.04518
7.03894
1.14948
7.76243
1.25705
8.56318
1.4172
9.46156
1.57041
10.4845
1.85366
11.6667
2.10976
13.0972
2.67215
14.8295
3.28092
17.3912
4.4899
6.95181
20.2096
0.155633
0.138581
0.320204
0.149328
0.495074
0.154876
0.678557
0.16181
0.872163
0.170089
1.07799
0.183776
1.29975
0.198754
1.53838
0.216214
1.79653
0.230669
2.07456
0.248136
2.37393
0.269592
2.69696
0.289571
3.04474
0.308356
3.41713
0.333538
3.81818
0.358305
4.24987
0.388868
4.7171
0.418716
5.22274
0.457479
5.77392
0.494005
6.37615
0.547247
7.03989
0.59331
7.77892
0.678171
8.60979
0.739543
9.5689
0.894551
10.6866
0.992059
12.0573
1.3014
13.7581
1.58019
16.457
1.79102
3.76125
19.6475
0.138581
0.287909
0.442785
0.604595
0.774684
0.95846
1.15721
1.37343
1.6041
1.85223
2.12183
2.4114
2.71975
3.05329
3.4116
3.80046
4.21918
4.67666
5.17066
5.71791
6.31122
6.98939
7.72893
8.62348
9.61554
10.9169
12.4971
14.2881
18.0494
1.19753
54.1263
1.21079
54.127
1.22332
54.1277
1.23519
54.1284
1.24664
54.1288
1.2577
54.1292
1.26818
54.1298
1.27797
54.1305
1.28718
54.131
1.29603
54.1314
1.30457
54.1317
1.3126
54.1322
1.31982
54.133
1.32614
54.1339
1.33168
54.1347
1.33652
54.1354
1.3407
54.1361
1.34425
54.1367
1.34724
54.1373
1.34971
54.1378
1.35172
54.1382
1.3533
54.1387
1.35445
54.1391
1.35513
54.1396
1.35532
54.14
1.35497
54.1406
1.35406
54.1411
1.35258
54.1417
1.35053
54.1423
1.34791
54.1429
1.34473
54.1434
1.341
54.144
1.33674
54.1445
1.33193
54.145
1.32668
54.1455
1.32107
54.1458
1.31514
54.1462
1.30887
54.1465
1.30226
54.1468
1.29531
54.1472
1.28802
54.1475
1.28041
54.1478
1.27248
54.1482
1.26424
54.1485
1.2557
54.1488
1.24686
54.1491
1.23775
54.1493
1.22836
54.1496
1.21871
54.1499
1.20882
54.1501
1.19867
54.1504
1.18828
54.1506
1.17765
54.1509
1.16679
54.1511
1.15566
54.1514
1.14429
54.1516
1.13267
54.1519
1.1208
54.1521
1.10867
54.1524
1.09628
54.1526
1.08365
54.1529
1.07079
54.1531
1.05771
54.1533
1.04441
54.1535
1.03089
54.1538
1.01716
54.154
1.00321
54.1542
0.989047
54.1544
0.974677
54.1546
0.960109
54.1548
0.945342
54.155
0.930385
54.1552
0.915233
54.1554
0.899901
54.1556
0.884378
54.1558
0.868673
54.1559
0.85282
54.1561
0.836824
54.1562
0.820691
54.1564
0.804423
54.1565
0.78803
54.1566
0.771528
54.1567
0.754953
54.1568
0.738324
54.1569
0.72167
54.1569
0.705004
54.1569
0.68837
54.1569
0.67182
54.1568
0.655161
54.1569
0.638263
54.1571
0.621116
54.1574
0.603735
54.1576
0.586156
54.1578
0.568403
54.158
0.550513
54.1581
0.532509
54.1582
0.51443
54.1583
0.496304
54.1584
0.478168
54.1584
0.460051
54.1584
0.441984
54.1583
0.423995
54.1582
0.406089
54.1581
0.388285
54.158
0.370579
54.1579
0.352987
54.1578
0.335515
54.1577
0.318189
54.1576
0.30102
54.1574
0.284058
54.1572
0.267429
54.1569
0.251094
54.1566
0.235032
54.1563
0.219382
54.1559
0.204331
54.1553
0.189965
54.1546
0.176104
54.1541
0.162472
54.1539
0.148613
54.1541
0.134269
54.1546
0.119337
54.1552
0.103881
54.1557
0.0878695