/*--------------------------------*- C++ -*----------------------------------*\
| =========                 |                                                 |
| \\      /  F ield         | OpenFOAM: The Open Source CFD Toolbox           |
|  \\    /   O peration     | Version:  5.x                                   |
|   \\  /    A nd           | Web:      www.OpenFOAM.org                      |
|    \\/     M anipulation  |                                                 |
\*---------------------------------------------------------------------------*/
/*   Windows 32 and 64 bit porting by blueCAPE: http://www.bluecape.com.pt   *\
|  Based on Windows porting (2.0.x v4) by Symscape: http://www.symscape.com   |
\*---------------------------------------------------------------------------*/
FoamFile
{
    version     2.0;
    format      ascii;
    class       volVectorField;
    location    "190";
    object      U;
}
// * * * * * * * * * * * * * * * * * * * * * * * * * * * * * * * * * * * * * //

dimensions      [0 1 -1 0 0 0 0];

internalField   nonuniform List<vector> 
43900
(
(1.16164 -0.000717971 -1.77926e-027)
(1.16722 0.00214962 -4.7686e-027)
(1.16977 0.000355297 1.43667e-030)
(1.16845 0.00178075 2.7586e-030)
(1.16973 0.000788433 3.63924e-030)
(1.16993 0.00189367 3.63967e-030)
(1.17012 0.00115717 6.36732e-027)
(1.17001 0.0017579 -1.27168e-026)
(1.17038 0.00163474 9.56397e-030)
(1.17014 0.0017344 -1.26862e-026)
(1.17004 0.00191337 1.27089e-026)
(1.16998 0.00194093 1.14234e-029)
(1.16994 0.00201743 -1.26516e-026)
(1.16996 0.00208891 2.45496e-029)
(1.16998 0.00214965 2.52053e-029)
(1.17 0.00220169 2.58179e-029)
(1.17002 0.00224976 -2.51986e-026)
(1.17004 0.00229264 5.38924e-029)
(1.17005 0.00233235 2.52255e-026)
(1.17005 0.00236987 2.79191e-029)
(1.17005 0.0024051 2.83559e-029)
(1.17005 0.00243858 2.87662e-029)
(1.17004 0.00247054 2.91534e-029)
(1.17004 0.00250009 2.95195e-029)
(1.17003 0.00252891 2.98652e-029)
(1.17002 0.00255649 -2.49367e-026)
(1.17002 0.00258258 6.1017e-029)
(1.17001 0.00260758 6.1622e-029)
(1.17001 0.00263159 9.95586e-026)
(1.15879 0.0113891 0)
(1.16564 -0.00493052 0)
(1.17155 0.00900513 0)
(1.16669 -0.00016366 0)
(1.16869 0.00615399 0)
(1.16819 0.0027209 0)
(1.16848 0.00487701 0)
(1.16783 0.00456694 0)
(1.16779 0.00458524 0)
(1.16792 0.00520124 0)
(1.16817 0.00517735 0)
(1.16843 0.00541748 0)
(1.16862 0.00564603 0)
(1.16874 0.00582848 0)
(1.16883 0.0059827 0)
(1.16891 0.00613307 0)
(1.16897 0.00627936 0)
(1.16903 0.00641991 0)
(1.16906 0.00655188 0)
(1.16909 0.00667376 0)
(1.16912 0.00678846 0)
(1.16914 0.00689701 0)
(1.16917 0.00699765 0)
(1.1692 0.00709476 0)
(1.16922 0.0071848 0)
(1.16924 0.00726955 0)
(1.16926 0.00735189 0)
(1.16928 0.00743003 0)
(1.1693 0.00750358 0)
(1.10228 0.0321247 0)
(1.14498 -0.017593 0)
(1.16322 0.0287892 0)
(1.16344 -0.00373311 0)
(1.16657 0.0208578 0)
(1.1646 0.00396708 0)
(1.16618 0.015003 0)
(1.16679 0.00836709 0)
(1.16703 0.0118227 0)
(1.16703 0.0105065 0)
(1.16705 0.0107049 0)
(1.16719 0.0108507 0)
(1.16738 0.010882 0)
(1.16752 0.0109318 0)
(1.16762 0.0109889 0)
(1.16771 0.0110662 0)
(1.1678 0.0111509 0)
(1.16785 0.0112332 0)
(1.16792 0.0113127 0)
(1.16801 0.0113957 0)
(1.16807 0.0114766 0)
(1.16815 0.011553 0)
(1.16822 0.0116342 0)
(1.16828 0.011712 0)
(1.16835 0.0117909 0)
(1.1684 0.0118722 0)
(1.16845 0.0119457 0)
(1.16852 0.0120239 0)
(1.16857 0.0121037 1.74921e-027)
(1.04112 0.0199719 0)
(1.08705 -0.00677057 0)
(1.12999 0.0200704 0)
(1.15596 0.00804327 0)
(1.16359 0.0221367 0)
(1.16624 0.0105278 0)
(1.16494 0.0204337 0)
(1.16409 0.0134384 0)
(1.16497 0.0178669 0)
(1.16546 0.0155587 0)
(1.16596 0.0165168 0)
(1.16602 0.0163638 0)
(1.16598 0.0163511 0)
(1.16597 0.0163196 0)
(1.16603 0.016331 0)
(1.16612 0.0163852 0)
(1.16615 0.0164252 0)
(1.16627 0.0164671 0)
(1.16634 0.0165299 0)
(1.16641 0.0165936 0)
(1.16655 0.016662 0)
(1.16659 0.0167481 0)
(1.16666 0.0168217 0)
(1.16676 0.0169085 0)
(1.16677 0.0170018 0)
(1.16685 0.0170848 0)
(1.16692 0.0171859 0)
(1.16692 0.0172762 0)
(1.16699 0.0173674 1.86336e-027)
(1.00433 0.0100941 3.72997e-027)
(1.03989 -0.000970474 0)
(1.07681 0.0106901 0)
(1.1151 0.0126633 0)
(1.14533 0.0180498 0)
(1.16072 0.0169655 0)
(1.16379 0.0223982 0)
(1.1648 0.0180142 0)
(1.16398 0.0212819 0)
(1.16414 0.0196903 0)
(1.16395 0.0204027 0)
(1.16421 0.0205453 0)
(1.1643 0.0205669 0)
(1.1644 0.0206325 0)
(1.16442 0.0207706 0)
(1.16443 0.0208688 0)
(1.1646 0.020952 0)
(1.16458 0.0210646 0)
(1.16468 0.0211649 0)
(1.16482 0.0212747 0)
(1.16477 0.0214137 0)
(1.1649 0.0215201 0)
(1.16498 0.0216743 0)
(1.16494 0.0218212 0)
(1.1651 0.0219474 0)
(1.16514 0.0221208 0)
(1.16513 0.0222623 0)
(1.1653 0.0224145 0)
(1.16533 0.0225779 -7.84496e-027)
(0.977665 0.00678336 -3.89326e-027)
(1.00767 0.000540834 0)
(1.03902 0.00741435 0)
(1.07151 0.0107312 0)
(1.104 0.0145083 0)
(1.13436 0.017705 0)
(1.15431 0.0216322 0)
(1.16209 0.0214602 0)
(1.16312 0.0238068 0)
(1.16288 0.0223186 0)
(1.16314 0.0235523 0)
(1.16281 0.0234825 0)
(1.16292 0.0236639 0)
(1.16296 0.023931 0)
(1.16309 0.0241613 0)
(1.16331 0.024367 0)
(1.16315 0.0245956 0)
(1.16336 0.0247902 0)
(1.16342 0.0250064 0)
(1.16328 0.0252365 0)
(1.16354 0.0253947 0)
(1.16349 0.0256351 0)
(1.16345 0.0258269 0)
(1.16372 0.0259968 0)
(1.16364 0.0262456 0)
(1.16368 0.0264008 0)
(1.16395 0.0266049 0)
(1.16386 0.0268285 0)
(1.16397 0.0270013 4.14917e-027)
(0.955611 0.00510487 0)
(0.982061 0.00134584 0)
(1.00975 0.00621507 0)
(1.03848 0.00932325 0)
(1.06766 0.0125449 0)
(1.09654 0.0160538 0)
(1.12448 0.0197012 0)
(1.14729 0.0224 0)
(1.15818 0.0249946 0)
(1.16093 0.0251204 0)
(1.16066 0.0254095 0)
(1.16121 0.0260482 0)
(1.16109 0.0262041 0)
(1.16127 0.0265699 0)
(1.1613 0.0269315 0)
(1.161 0.0272855 0)
(1.16138 0.0275871 0)
(1.16126 0.0279245 0)
(1.16118 0.0282827 0)
(1.16156 0.0285604 0)
(1.16131 0.0289284 0)
(1.16138 0.0292087 0)
(1.1617 0.0294928 0)
(1.16145 0.0298826 0)
(1.16163 0.0300642 0)
(1.16189 0.0304104 0)
(1.16166 0.030732 0)
(1.16192 0.0309133 0)
(1.16213 0.03125 0)
(0.935108 0.00430318 0)
(0.959306 0.00177704 0)
(0.984667 0.00577701 0)
(1.011 0.00870593 0)
(1.03792 0.0116291 0)
(1.06497 0.0147925 0)
(1.0916 0.01819 0)
(1.11701 0.0215613 0)
(1.14006 0.0247324 0)
(1.15361 0.0268377 0)
(1.15753 0.0282344 0)
(1.15722 0.0280598 0)
(1.15768 0.0287394 0)
(1.15754 0.0291641 0)
(1.15746 0.029566 0)
(1.15806 0.0299931 0)
(1.15773 0.0304154 0)
(1.15775 0.0308847 0)
(1.1581 0.0312295 0)
(1.1577 0.0317764 0)
(1.15797 0.0320952 0)
(1.15824 0.0325193 0)
(1.15789 0.0330733 0)
(1.15827 0.0332838 0)
(1.1584 0.0338204 0)
(1.15817 0.034235 0)
(1.15865 0.034487 0)
(1.15869 0.0350114 0)
(1.15854 0.0353394 0)
(0.916263 0.00375595 0)
(0.938704 0.00210476 0)
(0.962231 0.00558051 0)
(0.98669 0.0083992 0)
(1.01179 0.0111774 0)
(1.03721 0.0141242 0)
(1.06258 0.0172664 0)
(1.08744 0.0205446 0)
(1.1112 0.0238591 0)
(1.13316 0.0268856 0)
(1.14824 0.0294083 0)
(1.15317 0.0309339 0)
(1.15275 0.0309583 0)
(1.15308 0.0317522 0)
(1.15338 0.0323226 0)
(1.15263 0.0329059 0)
(1.15288 0.0334397 0)
(1.15329 0.0338773 0)
(1.15286 0.0346318 0)
(1.15333 0.0350427 0)
(1.15343 0.0355456 0)
(1.1531 0.0362482 0)
(1.15372 0.0365222 0)
(1.15374 0.0372594 0)
(1.15361 0.0376706 0)
(1.15421 0.0380752 0)
(1.15408 0.0388234 0)
(1.15406 0.039077 0)
(1.15472 0.0395872 0)
(0.898208 0.00314487 0)
(0.91942 0.00250699 0)
(0.941646 0.00559967 0)
(0.964745 0.00837204 0)
(0.988482 0.0110972 0)
(1.0126 0.0139418 0)
(1.03681 0.0169449 0)
(1.0608 0.020081 0)
(1.0842 0.0233105 0)
(1.10654 0.0265626 0)
(1.12705 0.0296219 0)
(1.14266 0.0322556 0)
(1.14806 0.0340591 0)
(1.14755 0.0342441 0)
(1.14736 0.0351767 0)
(1.14828 0.0359838 0)
(1.14838 0.0364547 0)
(1.14775 0.0374684 0)
(1.14834 0.0379066 0)
(1.14848 0.0386765 0)
(1.1483 0.0394797 0)
(1.1491 0.0398729 0)
(1.14894 0.0409128 0)
(1.14893 0.0412919 0)
(1.14951 0.0419179 0)
(1.14946 0.0428688 0)
(1.14973 0.0430941 0)
(1.15038 0.0439434 0)
(1.15019 0.0446182 -1.08555e-026)
(0.880493 0.00298906 0)
(0.90068 0.00283638 0)
(0.921875 0.00587648 0)
(0.943913 0.00871487 0)
(0.966587 0.0114978 0)
(0.989671 0.0143717 0)
(1.01293 0.0173787 0)
(1.03611 0.0205021 0)
(1.05893 0.0237178 0)
(1.08106 0.0269986 0)
(1.10207 0.030285 0)
(1.12124 0.0333957 0)
(1.13681 0.0361787 0)
(1.14225 0.0380653 0)
(1.14223 0.0386816 0)
(1.14204 0.039411 0)
(1.14193 0.0404755 0)
(1.14309 0.040953 0)
(1.14329 0.0420227 0)
(1.14301 0.042922 0)
(1.14375 0.0433816 0)
(1.14356 0.0446841 0)
(1.14393 0.0450286 0)
(1.14461 0.0460134 0)
(1.14481 0.0469555 0)
(1.14502 0.0473555 0)
(1.1455 0.048547 0)
(1.14542 0.0491197 0)
(1.14602 0.0497432 1.14625e-026)
(0.862517 0.00290478 0)
(0.881853 0.00316998 0)
(0.902182 0.0062503 0)
(0.923343 0.00920226 0)
(0.945146 0.0120944 0)
(0.967392 0.0150574 0)
(0.989867 0.0181332 0)
(1.01235 0.0213088 0)
(1.03462 0.0245646 0)
(1.05641 0.0278813 0)
(1.07742 0.0312314 0)
(1.09724 0.034555 0)
(1.11519 0.0377235 0)
(1.13012 0.0405819 0)
(1.13534 0.0424791 0)
(1.13516 0.0435572 0)
(1.13598 0.0441142 0)
(1.1357 0.0454149 0)
(1.13549 0.0462515 0)
(1.13655 0.0470437 0)
(1.13672 0.0484974 0)
(1.13733 0.0488384 0)
(1.13763 0.0502215 0)
(1.1378 0.0510995 0)
(1.13783 0.0517098 0)
(1.1386 0.0531101 0)
(1.1391 0.0535468 0)
(1.13989 0.054543 0)
(1.14021 0.0555763 1.25334e-026)
(0.844405 0.00273357 0)
(0.863022 0.00350156 0)
(0.882628 0.00660758 0)
(0.903077 0.00965923 0)
(0.924182 0.0126587 0)
(0.945754 0.0157134 0)
(0.967607 0.0188611 0)
(0.989542 0.0220914 0)
(1.01135 0.0253874 0)
(1.03283 0.0287328 0)
(1.05373 0.0321078 0)
(1.07378 0.0354809 0)
(1.09259 0.03879 0)
(1.10955 0.0419486 0)
(1.12284 0.0448308 0)
(1.12715 0.0467045 0)
(1.12684 0.0480824 0)
(1.12726 0.0487475 0)
(1.12812 0.0502279 0)
(1.12839 0.051522 0)
(1.12845 0.0521484 0)
(1.12863 0.0540025 0)
(1.12926 0.0547423 0)
(1.12968 0.0557479 0)
(1.13052 0.0573374 0)
(1.1313 0.0578489 0)
(1.1315 0.0592778 0)
(1.13142 0.0604407 0)
(1.13224 0.0611003 -1.32434e-026)
(0.826358 0.0025883 0)
(0.844345 0.00382398 0)
(0.863316 0.00698482 0)
(0.883152 0.0101424 0)
(0.903694 0.0132639 0)
(0.924742 0.0164304 0)
(0.94611 0.0196725 0)
(0.967624 0.0229815 0)
(0.989098 0.0263417 0)
(1.01034 0.0297387 0)
(1.03115 0.0331565 0)
(1.0513 0.0365736 0)
(1.0705 0.0399537 0)
(1.08837 0.0432274 0)
(1.10436 0.0463711 0)
(1.11553 0.0492454 0)
(1.11823 0.0507958 0)
(1.11857 0.0526242 0)
(1.11935 0.0536185 0)
(1.1191 0.0549827 0)
(1.11943 0.0570893 0)
(1.12049 0.0577227 0)
(1.12106 0.0592116 0)
(1.12125 0.0610525 0)
(1.12229 0.0617163 0)
(1.12204 0.0635521 0)
(1.1224 0.0649309 0)
(1.1242 0.0655889 0)
(1.125 0.0673949 -1.45687e-026)
(0.808273 0.00250021 0)
(0.825706 0.00415864 0)
(0.844138 0.00743021 0)
(0.863438 0.0107249 0)
(0.883473 0.0139944 0)
(0.904093 0.0173092 0)
(0.925099 0.0206898 0)
(0.946304 0.0241244 0)
(0.967543 0.0275995 0)
(0.988644 0.0311016 0)
(1.00942 0.0346168 0)
(1.02968 0.038129 0)
(1.04919 0.0416151 0)
(1.06767 0.045034 0)
(1.08468 0.0483134 0)
(1.09959 0.0514985 0)
(1.10704 0.0544123 0)
(1.10929 0.0556613 0)
(1.1091 0.0575584 0)
(1.10923 0.0596486 0)
(1.11127 0.0604115 0)
(1.11176 0.0626132 0)
(1.1112 0.0646252 0)
(1.11264 0.0652955 0)
(1.11272 0.0676713 0)
(1.11356 0.0690242 0)
(1.11585 0.06992 0)
(1.11606 0.0722718 0)
(1.11558 0.0734122 1.53692e-026)
(0.790045 0.0024762 0)
(0.806976 0.00451866 0)
(0.824932 0.00795878 0)
(0.843784 0.0114382 0)
(0.86339 0.0148989 0)
(0.883607 0.0183996 0)
(0.904294 0.0219663 0)
(0.925267 0.0255865 0)
(0.946332 0.0292414 0)
(0.967327 0.0329195 0)
(0.988084 0.0366084 0)
(1.00842 0.0402938 0)
(1.02812 0.0439578 0)
(1.04694 0.0475722 0)
(1.06454 0.051081 0)
(1.08058 0.0545003 0)
(1.09354 0.0575579 0)
(1.09778 0.0605286 0)
(1.09778 0.0624013 0)
(1.1005 0.0635003 0)
(1.10035 0.0663503 0)
(1.0996 0.0681923 0)
(1.10202 0.0689993 0)
(1.1033 0.0724104 0)
(1.10354 0.0733838 0)
(1.10538 0.0748986 0)
(1.10541 0.0776489 0)
(1.10558 0.0785199 0)
(1.10861 0.0801615 0)
(0.77152 0.00252084 0)
(0.787981 0.00492021 0)
(0.805495 0.0085886 0)
(0.823937 0.0123057 0)
(0.843169 0.0160107 0)
(0.863042 0.0197539 0)
(0.883405 0.0235557 0)
(0.904122 0.027412 0)
(0.925027 0.0313079 0)
(0.945929 0.0352254 0)
(0.966668 0.0391517 0)
(0.98708 0.0430733 0)
(1.00698 0.0469732 0)
(1.02616 0.0508266 0)
(1.04434 0.0545868 0)
(1.06115 0.0581991 0)
(1.07573 0.0619166 0)
(1.08281 0.0649316 0)
(1.08776 0.0668387 0)
(1.08732 0.070363 0)
(1.08778 0.0715404 0)
(1.09059 0.073863 0)
(1.09062 0.0773993 0)
(1.09029 0.0781107 0)
(1.09255 0.0803363 0)
(1.09408 0.0832096 0)
(1.09528 0.0842897 0)
(1.09774 0.0870284 0)
(1.09736 0.0891429 0)
(0.752584 0.00262172 0)
(0.768595 0.00536032 0)
(0.785688 0.00930629 0)
(0.803743 0.0133066 0)
(0.822627 0.017299 0)
(0.842196 0.0213293 0)
(0.862298 0.025415 0)
(0.882781 0.0295474 0)
(0.903512 0.0337173 0)
(0.924337 0.0379117 0)
(0.945077 0.0421137 0)
(0.965572 0.0463095 0)
(0.985648 0.0504852 0)
(1.0051 0.0546236 0)
(1.0237 0.0586963 0)
(1.04111 0.0626292 0)
(1.05703 0.0664419 0)
(1.06953 0.070209 0)
(1.07174 0.074077 0)
(1.07404 0.0750812 0)
(1.07421 0.0788932 0)
(1.07489 0.0813511 0)
(1.07784 0.0823753 0)
(1.08105 0.0865574 0)
(1.08101 0.0886021 0)
(1.08116 0.0904433 0)
(1.08239 0.0936422 0)
(1.08349 0.0952135 0)
(1.08713 0.0971959 0)
(0.733159 0.00278467 4.43506e-026)
(0.748729 0.00585531 0)
(0.765413 0.010134 0)
(0.783097 0.0144712 0)
(0.80165 0.0188028 0)
(0.820933 0.0231738 0)
(0.840799 0.027601 0)
(0.861098 0.032075 0)
(0.881681 0.0365823 0)
(0.902416 0.0411146 0)
(0.923146 0.045659 0)
(0.943695 0.0501987 0)
(0.963902 0.0547219 0)
(0.983574 0.0592099 0)
(1.00247 0.0636346 0)
(1.02027 0.0679436 0)
(1.03662 0.0721815 0)
(1.04945 0.0763284 0)
(1.05753 0.0791189 0)
(1.05838 0.0838447 0)
(1.06256 0.0851167 0)
(1.06559 0.0884424 0)
(1.06437 0.0923391 0)
(1.06339 0.0943735 0)
(1.06592 0.0971392 0)
(1.06899 0.100166 0)
(1.07258 0.101991 0)
(1.07562 0.105125 0)
(1.07494 0.107707 0)
(0.713121 0.00300675 1.56423e-027)
(0.728249 0.00641462 0)
(0.744527 0.011085 0)
(0.761841 0.015818 0)
(0.780066 0.0205464 0)
(0.799065 0.0253172 0)
(0.818693 0.0301477 0)
(0.838805 0.0350279 0)
(0.859254 0.0399434 0)
(0.879893 0.0448816 0)
(0.900589 0.0498315 0)
(0.921192 0.0547812 0)
(0.941526 0.0597105 0)
(0.961419 0.0646037 0)
(0.980679 0.0694328 0)
(0.999099 0.074131 0)
(1.01655 0.0786131 0)
(1.03261 0.0831572 0)
(1.04078 0.0879546 0)
(1.04589 0.0901023 0)
(1.04566 0.094572 0)
(1.04509 0.0975806 0)
(1.04783 0.100089 0)
(1.05456 0.104488 0)
(1.05571 0.106774 0)
(1.05684 0.109199 0)
(1.05727 0.113069 0)
(1.05847 0.115224 0)
(1.06314 0.118215 0)
(0.692372 0.00328193 -5.13727e-026)
(0.707052 0.00703944 0)
(0.722917 0.0121572 0)
(0.739858 0.0173417 0)
(0.75775 0.0225212 0)
(0.776461 0.0277466 0)
(0.79585 0.0330362 0)
(0.815775 0.0383787 0)
(0.836093 0.0437584 0)
(0.856662 0.0491604 0)
(0.877344 0.0545724 0)
(0.897999 0.0599782 0)
(0.918476 0.0653616 0)
(0.938613 0.070703 0)
(0.958224 0.0759749 0)
(0.97708 0.081137 0)
(0.994894 0.0861277 0)
(1.01104 0.0911288 0)
(1.02304 0.0950413 0)
(1.02605 0.101749 0)
(1.03074 0.102388 0)
(1.03522 0.107882 0)
(1.03623 0.111159 0)
(1.03576 0.113581 0)
(1.0389 0.117125 0)
(1.04215 0.121222 0)
(1.04631 0.12382 0)
(1.04895 0.127637 0)
(1.04819 0.130416 0)
(0.670866 0.00359827 0)
(0.685088 0.00772066 0)
(0.700531 0.0133333 0)
(0.71709 0.0190164 0)
(0.734643 0.0246936 0)
(0.753061 0.0304207 0)
(0.772208 0.0362176 0)
(0.791945 0.0420721 0)
(0.812134 0.0479671 0)
(0.832636 0.053887 0)
(0.853314 0.0598167 0)
(0.874034 0.0657408 0)
(0.894655 0.0716442 0)
(0.915028 0.0775106 0)
(0.934987 0.083318 0)
(0.954347 0.0890217 0)
(0.97288 0.0945267 0)
(0.99035 0.100103 0)
(1.00287 0.105991 0)
(1.01213 0.108818 0)
(1.0127 0.114967 0)
(1.01449 0.117137 0)
(1.01935 0.121014 0)
(1.02606 0.126986 0)
(1.02564 0.129475 0)
(1.02662 0.133391 0)
(1.02888 0.136315 0)
(1.03338 0.140078 0)
(1.0419 0.143593 0)
(0.648598 0.00395203 -6.34506e-026)
(0.662349 0.00845793 0)
(0.677358 0.0146109 0)
(0.693523 0.0208384 0)
(0.710726 0.0270593 0)
(0.728841 0.033336 0)
(0.747737 0.0396907 0)
(0.767277 0.0461105 0)
(0.787327 0.0525773 0)
(0.807751 0.0590747 0)
(0.828414 0.0655869 0)
(0.849181 0.0720978 0)
(0.869912 0.0785905 0)
(0.890452 0.085048 0)
(0.910626 0.0914514 0)
(0.930226 0.0977738 0)
(0.949016 0.103935 0)
(0.967045 0.109966 0)
(0.983676 0.115194 0)
(0.991092 0.123179 0)
(0.998569 0.124057 0)
(1.00276 0.131522 0)
(1.00263 0.134059 0)
(1.00303 0.137644 0)
(1.0083 0.143012 0)
(1.01506 0.145539 0)
(1.01942 0.150631 0)
(1.02072 0.153158 0)
(1.0214 0.156989 5.84885e-026)
(0.62557 0.00433727 -2.07732e-027)
(0.638836 0.0092475 0)
(0.653395 0.0159826 0)
(0.669149 0.0227967 0)
(0.685984 0.0296042 0)
(0.703777 0.0364756 0)
(0.722401 0.0434358 0)
(0.741722 0.0504713 0)
(0.761611 0.0575628 0)
(0.781933 0.0646931 0)
(0.802559 0.0718453 0)
(0.823355 0.0790017 0)
(0.844187 0.0861437 0)
(0.864913 0.093251 0)
(0.885381 0.100297 0)
(0.905424 0.107235 0)
(0.924873 0.113971 0)
(0.943777 0.120699 0)
(0.960819 0.127187 0)
(0.973783 0.131445 0)
(0.976945 0.139465 0)
(0.981456 0.141567 0)
(0.987888 0.147921 0)
(0.994822 0.153644 0)
(0.994641 0.155917 0)
(0.995709 0.160656 0)
(0.999533 0.164316 0)
(1.00622 0.168711 0)
(1.01546 0.173754 1.15577e-027)
(0.601823 0.00474533 7.34673e-026)
(0.614588 0.0100786 0)
(0.628681 0.0174286 0)
(0.644004 0.0248618 0)
(0.660449 0.0322889 0)
(0.677898 0.0397894 0)
(0.696225 0.047391 0)
(0.715304 0.0550793 0)
(0.735007 0.0628337 0)
(0.755205 0.0706355 0)
(0.775771 0.0784664 0)
(0.796578 0.0863062 0)
(0.817495 0.0941334 0)
(0.838389 0.101925 0)
(0.859124 0.109657 0)
(0.879559 0.117294 0)
(0.899591 0.12474 0)
(0.919382 0.131837 0)
(0.93893 0.139157 0)
(0.951902 0.147288 0)
(0.961844 0.150123 0)
(0.966378 0.158089 0)
(0.966621 0.160808 0)
(0.969941 0.165054 0)
(0.979667 0.172313 0)
(0.986733 0.176257 0)
(0.989498 0.181145 0)
(0.99021 0.18339 0)
(0.994145 0.187763 -6.6805e-026)
(0.577433 0.00516842 0)
(0.589685 0.0109397 0)
(0.603294 0.0189283 0)
(0.618168 0.0270035 0)
(0.634203 0.0350738 0)
(0.651284 0.043228 0)
(0.669293 0.0514969 0)
(0.688108 0.059865 0)
(0.707605 0.0683101 0)
(0.727662 0.0768122 0)
(0.748156 0.0853512 0)
(0.768967 0.093905 0)
(0.789973 0.10245 0)
(0.811052 0.110959 0)
(0.832078 0.119402 0)
(0.852923 0.127744 0)
(0.873458 0.135931 0)
(0.893646 0.143941 0)
(0.9137 0.151512 0)
(0.931055 0.158596 0)
(0.939444 0.167741 0)
(0.94723 0.170497 0)
(0.956235 0.179411 0)
(0.959764 0.183672 0)
(0.95921 0.186453 0)
(0.963719 0.191515 0)
(0.972853 0.19671 0)
(0.980223 0.204162 0)
(0.983886 0.206175 0)
(0.552499 0.00560114 0)
(0.564225 0.0118227 0)
(0.577336 0.020467 0)
(0.591743 0.029201 0)
(0.607346 0.0379323 0)
(0.624037 0.04676 0)
(0.641704 0.0557182 0)
(0.660228 0.0647905 0)
(0.679493 0.0739542 0)
(0.699382 0.0831884 0)
(0.719777 0.0924725 0)
(0.740563 0.101784 0)
(0.761626 0.111099 0)
(0.782851 0.120392 0)
(0.804123 0.129638 0)
(0.825327 0.138803 0)
(0.846364 0.147831 0)
(0.867191 0.156596 0)
(0.887965 0.165781 0)
(0.905828 0.174135 0)
(0.921506 0.180538 0)
(0.926978 0.188799 0)
(0.931768 0.192213 0)
(0.940077 0.198397 0)
(0.952107 0.208743 0)
(0.951942 0.210365 0)
(0.954355 0.214575 0)
(0.961909 0.218906 0)
(0.967912 0.225151 7.89161e-026)
(0.527131 0.0060378 0)
(0.538323 0.0127193 0)
(0.550923 0.02203 0)
(0.564844 0.0314327 0)
(0.579993 0.0408364 0)
(0.596269 0.0503512 0)
(0.613564 0.0600142 0)
(0.631768 0.0698091 0)
(0.650767 0.0797123 0)
(0.670452 0.089703 0)
(0.690709 0.0997599 0)
(0.711428 0.10986 0)
(0.732499 0.119978 0)
(0.753809 0.130089 0)
(0.775244 0.140166 0)
(0.796685 0.150183 0)
(0.818013 0.160103 0)
(0.839173 0.169814 0)
(0.860783 0.179195 0)
(0.88179 0.188846 0)
(0.896925 0.198944 0)
(0.909977 0.202515 0)
(0.918715 0.214131 0)
(0.919616 0.215843 0)
(0.925963 0.220396 0)
(0.938325 0.231448 0)
(0.942397 0.233075 0)
(0.94961 0.240614 0)
(0.954619 0.242976 1.08263e-027)
(0.501449 0.00647304 0)
(0.512101 0.0136215 0)
(0.524177 0.0236029 0)
(0.537595 0.0336778 0)
(0.552268 0.043759 0)
(0.568102 0.0539679 0)
(0.584995 0.0643453 0)
(0.602843 0.0748747 0)
(0.621539 0.0855329 0)
(0.640979 0.096299 0)
(0.661055 0.107152 0)
(0.681662 0.118068 0)
(0.702693 0.129021 0)
(0.724043 0.139986 0)
(0.745602 0.150932 0)
(0.767259 0.161827 0)
(0.788895 0.172634 0)
(0.81041 0.183264 0)
(0.831978 0.194004 0)
(0.854228 0.203251 0)
(0.876988 0.214318 0)
(0.885122 0.222925 0)
(0.897944 0.226623 0)
(0.910785 0.240465 0)
(0.911365 0.242053 0)
(0.91694 0.246078 0)
(0.926583 0.255722 0)
(0.933346 0.257783 0)
(0.942713 0.266665 -1.80854e-025)
(0.47558 0.00690081 0)
(0.485689 0.0145204 0)
(0.497233 0.0251696 0)
(0.510132 0.0359125 0)
(0.524307 0.0466683 0)
(0.539672 0.05757 0)
(0.556131 0.0686616 0)
(0.573586 0.0799272 0)
(0.591939 0.0913437 0)
(0.611088 0.102891 0)
(0.630933 0.114547 0)
(0.651378 0.126291 0)
(0.672318 0.138095 0)
(0.693651 0.14993 0)
(0.71528 0.161767 0)
(0.737105 0.173573 0)
(0.759037 0.185302 0)
(0.781025 0.196868 0)
(0.803277 0.208198 0)
(0.825619 0.219982 0)
(0.848737 0.22964 0)
(0.869693 0.240763 0)
(0.873668 0.248653 0)
(0.885749 0.252307 0)
(0.900714 0.266699 0)
(0.902985 0.269058 0)
(0.910245 0.274126 0)
(0.919404 0.282545 0)
(0.927166 0.284792 -9.21436e-028)
(0.449655 0.00731606 0)
(0.459222 0.0154086 0)
(0.470227 0.0267164 0)
(0.482595 0.0381166 0)
(0.496254 0.0495374 0)
(0.511125 0.0611233 0)
(0.527122 0.0729215 0)
(0.544151 0.0849161 0)
(0.562121 0.097085 0)
(0.580938 0.109408 0)
(0.600507 0.121864 0)
(0.620737 0.134432 0)
(0.641535 0.147084 0)
(0.662806 0.159789 0)
(0.684453 0.172513 0)
(0.706391 0.185223 0)
(0.72854 0.197882 0)
(0.75086 0.210423 0)
(0.773478 0.222794 0)
(0.797431 0.234619 0)
(0.82058 0.247718 0)
(0.8413 0.258015 0)
(0.862197 0.268169 0)
(0.864365 0.27712 0)
(0.875009 0.280646 0)
(0.890697 0.293098 0)
(0.894655 0.297334 0)
(0.904819 0.302352 0)
(0.91613 0.311967 1.03443e-025)
(0.4238 0.0077148 0)
(0.432829 0.0162807 0)
(0.443294 0.0282334 0)
(0.455122 0.0402757 0)
(0.46825 0.0523476 0)
(0.482608 0.064605 0)
(0.498116 0.0770977 0)
(0.514689 0.0898105 0)
(0.532242 0.102722 0)
(0.550688 0.115813 0)
(0.569939 0.129064 0)
(0.589911 0.142451 0)
(0.610517 0.155945 0)
(0.631672 0.169517 0)
(0.653295 0.183136 0)
(0.675299 0.196761 0)
(0.697612 0.210354 0)
(0.72019 0.22387 0)
(0.743073 0.237242 0)
(0.766769 0.250681 0)
(0.792569 0.262789 0)
(0.815037 0.277819 0)
(0.8329 0.287161 0)
(0.855004 0.297523 0)
(0.856968 0.307646 0)
(0.866976 0.31011 0)
(0.88317 0.321855 0)
(0.888257 0.326402 0)
(0.901111 0.332266 1.1126e-025)
(0.398136 0.00809357 0)
(0.406635 0.0171325 0)
(0.416561 0.0297129 0)
(0.427843 0.0423782 0)
(0.440428 0.0550838 0)
(0.454255 0.0679963 0)
(0.469251 0.081168 0)
(0.485339 0.0945849 0)
(0.502441 0.108227 0)
(0.520478 0.122076 0)
(0.539372 0.136114 0)
(0.559044 0.150316 0)
(0.579415 0.164653 0)
(0.6004 0.179098 0)
(0.621929 0.193618 0)
(0.643931 0.208177 0)
(0.666338 0.222736 0)
(0.689099 0.237249 0)
(0.712225 0.251651 0)
(0.736078 0.265984 0)
(0.760691 0.280716 0)
(0.787692 0.293363 0)
(0.809242 0.309062 0)
(0.825032 0.318016 0)
(0.848184 0.327872 0)
(0.850889 0.339254 0)
(0.861392 0.341092 0)
(0.877701 0.352019 0)
(0.884531 0.356975 -1.18255e-025)
(0.372773 0.00844914 0)
(0.380754 0.0179601 0)
(0.390145 0.0311474 0)
(0.400879 0.0444135 0)
(0.412913 0.0577319 0)
(0.426193 0.0712797 0)
(0.440655 0.0851114 0)
(0.456232 0.0992141 0)
(0.472851 0.11357 0)
(0.490442 0.128163 0)
(0.508934 0.142976 0)
(0.528253 0.157985 0)
(0.548336 0.17317 0)
(0.569105 0.1885 0)
(0.590483 0.203931 0)
(0.61241 0.219435 0)
(0.634824 0.234975 0)
(0.657672 0.250512 0)
(0.680936 0.265984 0)
(0.704785 0.281351 0)
(0.729878 0.296782 0)
(0.755548 0.312997 0)
(0.783165 0.325633 0)
(0.804402 0.341799 0)
(0.818947 0.350443 0)
(0.842948 0.360002 0)
(0.846606 0.372035 0)
(0.858603 0.373862 0)
(0.874036 0.383616 1.26416e-025)
(0.347814 0.00877855 0)
(0.355292 0.0187598 0)
(0.364156 0.0325302 0)
(0.374342 0.0463714 0)
(0.385817 0.0602788 0)
(0.398538 0.0744393 0)
(0.412449 0.0889091 0)
(0.427489 0.103678 0)
(0.443595 0.118729 0)
(0.460702 0.134051 0)
(0.478746 0.149628 0)
(0.497663 0.165439 0)
(0.517394 0.181465 0)
(0.537879 0.197667 0)
(0.559046 0.214014 0)
(0.580837 0.230472 0)
(0.603194 0.247001 0)
(0.626062 0.26356 0)
(0.649402 0.280107 0)
(0.67326 0.296567 0)
(0.697903 0.31302 0)
(0.725231 0.329538 0)
(0.751642 0.347071 0)
(0.779651 0.359485 0)
(0.800932 0.375424 0)
(0.814602 0.384523 0)
(0.83913 0.392997 0)
(0.844129 0.405046 0)
(0.858936 0.407822 -2.68513e-025)
(0.323352 0.00907909 0)
(0.330343 0.0195276 0)
(0.33869 0.0338537 0)
(0.348332 0.0482413 0)
(0.359246 0.0627107 0)
(0.371398 0.077458 0)
(0.38474 0.0925409 0)
(0.39922 0.107951 0)
(0.414781 0.123677 0)
(0.431368 0.139708 0)
(0.448924 0.156032 0)
(0.467395 0.172631 0)
(0.486728 0.189479 0)
(0.506875 0.206548 0)
(0.527766 0.22381 0)
(0.549351 0.24122 0)
(0.571582 0.258738 0)
(0.59441 0.27632 0)
(0.617791 0.293918 0)
(0.641716 0.311474 0)
(0.666311 0.328922 0)
(0.692259 0.346512 0)
(0.722712 0.364019 0)
(0.749195 0.382708 0)
(0.776902 0.394127 0)
(0.798874 0.41099 0)
(0.812859 0.41982 0)
(0.836864 0.428511 0)
(0.844228 0.439469 4.06088e-028)
(0.29947 0.00934815 0)
(0.305995 0.0202588 0)
(0.313838 0.0351098 0)
(0.32294 0.0500113 0)
(0.333292 0.0650123 0)
(0.344868 0.0803168 0)
(0.357628 0.0959837 0)
(0.371526 0.112008 0)
(0.386516 0.128381 0)
(0.402548 0.145097 0)
(0.419575 0.162147 0)
(0.43755 0.179514 0)
(0.456428 0.197174 0)
(0.476173 0.215115 0)
(0.496736 0.233295 0)
(0.518062 0.251661 0)
(0.540113 0.270179 0)
(0.562849 0.288794 0)
(0.586233 0.307454 0)
(0.610246 0.326094 0)
(0.634941 0.344648 0)
(0.660719 0.363084 0)
(0.688594 0.381908 0)
(0.722367 0.400717 0)
(0.74798 0.419485 0)
(0.775453 0.431272 0)
(0.798999 0.447841 0)
(0.813088 0.456275 0)
(0.837732 0.465736 7.65425e-028)
(0.276246 0.00958335 0)
(0.282325 0.020948 0)
(0.289679 0.0362888 0)
(0.29825 0.0516681 0)
(0.308041 0.0671666 0)
(0.319035 0.082995 0)
(0.331201 0.0992135 0)
(0.3445 0.115821 0)
(0.358891 0.132813 0)
(0.374335 0.15019 0)
(0.390793 0.167945 0)
(0.408226 0.186067 0)
(0.426598 0.204537 0)
(0.445879 0.223335 0)
(0.466051 0.242419 0)
(0.487055 0.261754 0)
(0.508866 0.281287 0)
(0.531456 0.300965 0)
(0.5548 0.320723 0)
(0.57888 0.340492 0)
(0.603717 0.360193 0)
(0.629521 0.37977 0)
(0.657008 0.39921 0)
(0.686999 0.419796 0)
(0.723961 0.439064 0)
(0.747697 0.45841 0)
(0.776431 0.470108 0)
(0.801113 0.486089 0)
(0.815778 0.493959 1.60532e-025)
(0.253747 0.00978246 0)
(0.259404 0.0215885 0)
(0.266286 0.0373797 0)
(0.274336 0.0531964 0)
(0.283569 0.0691538 0)
(0.293979 0.0854687 0)
(0.30554 0.102202 0)
(0.318221 0.119357 0)
(0.331989 0.136937 0)
(0.346812 0.154945 0)
(0.362659 0.173381 0)
(0.379502 0.192236 0)
(0.397315 0.211498 0)
(0.416076 0.231139 0)
(0.435782 0.251145 0)
(0.456405 0.271472 0)
(0.47791 0.292051 0)
(0.500291 0.312831 0)
(0.523534 0.333741 0)
(0.547635 0.3547 0)
(0.572606 0.375622 0)
(0.59855 0.396417 0)
(0.625837 0.417075 0)
(0.65525 0.437657 0)
(0.688062 0.46013 0)
(0.726551 0.479123 0)
(0.750166 0.499531 0)
(0.780305 0.510224 0)
(0.80638 0.525447 -1.67869e-025)
(0.232038 0.00994345 0)
(0.237295 0.0221728 0)
(0.243723 0.03837 0)
(0.251263 0.0545787 0)
(0.259945 0.070952 0)
(0.269769 0.087711 0)
(0.280717 0.104918 0)
(0.292764 0.122581 0)
(0.305884 0.140711 0)
(0.320054 0.159317 0)
(0.33525 0.178406 0)
(0.351455 0.197975 0)
(0.368653 0.218015 0)
(0.386832 0.238508 0)
(0.405989 0.259435 0)
(0.426145 0.280756 0)
(0.447268 0.302418 0)
(0.469366 0.32435 0)
(0.492442 0.346478 0)
(0.516507 0.368713 0)
(0.541579 0.390954 0)
(0.567718 0.413077 0)
(0.595097 0.435095 0)
(0.624177 0.456691 0)
(0.656071 0.478954 0)
(0.691502 0.502466 0)
(0.731377 0.521278 0)
(0.756561 0.542857 0)
(0.787849 0.550743 1.78755e-025)
(0.211174 0.0100645 0)
(0.216057 0.0226926 0)
(0.222049 0.0392461 0)
(0.229093 0.0557963 0)
(0.237229 0.0725374 0)
(0.246468 0.0896929 0)
(0.256796 0.107326 0)
(0.268194 0.125453 0)
(0.280643 0.144091 0)
(0.294127 0.163258 0)
(0.308632 0.182967 0)
(0.324148 0.203223 0)
(0.34067 0.224024 0)
(0.3582 0.245358 0)
(0.376743 0.2672 0)
(0.396335 0.289537 0)
(0.416998 0.312312 0)
(0.438719 0.335448 0)
(0.461536 0.358871 0)
(0.485481 0.382479 0)
(0.510591 0.40616 0)
(0.536917 0.429765 0)
(0.564563 0.453229 0)
(0.593774 0.476362 0)
(0.625047 0.499124 0)
(0.659694 0.523015 0)
(0.698403 0.546319 0)
(0.738941 0.566494 0)
(0.767904 0.585819 0)
(0.191207 0.0101444 0)
(0.19574 0.0231392 0)
(0.201316 0.0399937 0)
(0.207877 0.0568301 0)
(0.215477 0.0738856 0)
(0.224133 0.0913851 0)
(0.233835 0.109394 0)
(0.244571 0.127934 0)
(0.256327 0.147033 0)
(0.269094 0.166717 0)
(0.282866 0.187007 0)
(0.297643 0.207916 0)
(0.31343 0.229452 0)
(0.330241 0.251611 0)
(0.348096 0.274377 0)
(0.367026 0.297727 0)
(0.387103 0.321634 0)
(0.408353 0.346039 0)
(0.430809 0.370834 0)
(0.454534 0.39592 0)
(0.479593 0.421171 0)
(0.506054 0.446424 0)
(0.534007 0.471522 0)
(0.563612 0.496342 0)
(0.595117 0.520507 0)
(0.628955 0.544768 0)
(0.667334 0.568776 0)
(0.709073 0.593345 0)
(0.751268 0.612265 1.91755e-025)
(0.172181 0.0101821 0)
(0.176387 0.0235042 0)
(0.181567 0.0405993 0)
(0.18766 0.0576618 0)
(0.194733 0.0749738 0)
(0.202809 0.0927599 0)
(0.211882 0.111087 0)
(0.221945 0.129985 0)
(0.232989 0.149492 0)
(0.245011 0.169643 0)
(0.258012 0.190469 0)
(0.272 0.211993 0)
(0.286991 0.234231 0)
(0.30301 0.257192 0)
(0.320093 0.280871 0)
(0.338283 0.305248 0)
(0.357649 0.330308 0)
(0.378291 0.355998 0)
(0.400265 0.382234 0)
(0.423648 0.408903 0)
(0.448542 0.435863 0)
(0.475047 0.462941 0)
(0.503273 0.489918 0)
(0.533369 0.516622 0)
(0.5655 0.542663 0)
(0.599801 0.568132 0)
(0.637367 0.592865 0)
(0.67953 0.617421 0)
(0.725268 0.642285 -5.61334e-027)
(0.154133 0.0101774 0)
(0.158037 0.0237796 0)
(0.16284 0.0410506 0)
(0.16848 0.0582753 0)
(0.175036 0.0757821 0)
(0.182537 0.0937936 0)
(0.19098 0.112378 0)
(0.20036 0.131575 0)
(0.210675 0.151433 0)
(0.221926 0.171996 0)
(0.234121 0.193305 0)
(0.247274 0.215395 0)
(0.26141 0.238295 0)
(0.276566 0.262024 0)
(0.292791 0.286592 0)
(0.310146 0.311995 0)
(0.328708 0.338207 0)
(0.348595 0.365203 0)
(0.369934 0.39293 0)
(0.392829 0.421272 0)
(0.417409 0.450079 0)
(0.443826 0.479164 0)
(0.472234 0.508278 0)
(0.50281 0.537161 0)
(0.535711 0.565434 0)