/*--------------------------------*- C++ -*----------------------------------*\
| =========                 |                                                 |
| \\      /  F ield         | OpenFOAM: The Open Source CFD Toolbox           |
|  \\    /   O peration     | Version:  5.x                                   |
|   \\  /    A nd           | Web:      www.OpenFOAM.org                      |
|    \\/     M anipulation  |                                                 |
\*---------------------------------------------------------------------------*/
/*   Windows 32 and 64 bit porting by blueCAPE: http://www.bluecape.com.pt   *\
|  Based on Windows porting (2.0.x v4) by Symscape: http://www.symscape.com   |
\*---------------------------------------------------------------------------*/
FoamFile
{
    version     2.0;
    format      ascii;
    class       volScalarField;
    location    "210";
    object      epsilon;
}
// * * * * * * * * * * * * * * * * * * * * * * * * * * * * * * * * * * * * * //

dimensions      [0 2 -3 0 0 0 0];

internalField   nonuniform List<scalar> 
43900
(
0.00152925
0.0015191
0.00151979
0.00151971
0.00151968
0.00151967
0.00151967
0.00151967
0.00151967
0.00151967
0.00151967
0.00151968
0.00151968
0.00151968
0.00151968
0.00151968
0.00151968
0.00151969
0.00151969
0.00151969
0.00151969
0.00151969
0.00151969
0.00151969
0.00151969
0.00151969
0.00151969
0.00151969
0.00151969
0.00041272
3.81439e-005
3.16666e-005
3.1522e-005
3.27325e-005
3.27964e-005
3.28053e-005
3.27859e-005
3.2788e-005
3.27926e-005
3.27951e-005
3.2798e-005
3.27999e-005
3.2802e-005
3.28042e-005
3.28064e-005
3.2808e-005
3.28099e-005
3.28112e-005
3.28121e-005
3.28132e-005
3.28137e-005
3.28143e-005
3.28151e-005
3.28153e-005
3.28157e-005
3.28162e-005
3.28163e-005
3.28165e-005
0.0507994
0.00573738
0.000287665
1.13674e-005
1.70345e-006
1.32796e-006
1.327e-006
1.40974e-006
1.41876e-006
1.41681e-006
1.41601e-006
1.41647e-006
1.4171e-006
1.41754e-006
1.4179e-006
1.41825e-006
1.41859e-006
1.41887e-006
1.41911e-006
1.41932e-006
1.41949e-006
1.41966e-006
1.41981e-006
1.41994e-006
1.42006e-006
1.42018e-006
1.42027e-006
1.42038e-006
1.42045e-006
0.146375
0.0436612
0.00963152
0.00130929
8.23352e-005
3.34256e-006
3.36191e-007
1.21832e-007
1.08345e-007
1.16401e-007
1.20037e-007
1.19903e-007
1.1942e-007
1.19514e-007
1.19665e-007
1.19695e-007
1.1972e-007
1.19755e-007
1.19788e-007
1.19815e-007
1.19842e-007
1.19867e-007
1.19889e-007
1.19911e-007
1.1993e-007
1.19947e-007
1.19966e-007
1.1998e-007
1.19992e-007
0.198128
0.0846853
0.0339284
0.0112788
0.00264691
0.000353321
2.16608e-005
9.024e-007
7.735e-008
2.12651e-008
1.63709e-008
1.76651e-008
1.86983e-008
1.85765e-008
1.83953e-008
1.84412e-008
1.84806e-008
1.84862e-008
1.84903e-008
1.84948e-008
1.84992e-008
1.85043e-008
1.85088e-008
1.8512e-008
1.85159e-008
1.852e-008
1.85226e-008
1.85259e-008
1.85288e-008
0.222773
0.10896
0.053103
0.0249326
0.0103816
0.00324439
0.00067079
6.96141e-005
3.62523e-006
1.64879e-007
1.66556e-008
5.0784e-009
4.14622e-009
4.57507e-009
4.7809e-009
4.69135e-009
4.6507e-009
4.65919e-009
4.6639e-009
4.66472e-009
4.6658e-009
4.6673e-009
4.66812e-009
4.66893e-009
4.67007e-009
4.67095e-009
4.67173e-009
4.67273e-009
4.67334e-009
0.235364
0.12421
0.0663842
0.0354232
0.0184152
0.00890847
0.00354137
0.000952036
0.000144021
1.02949e-005
4.9396e-007
2.56702e-008
3.55728e-009
1.61927e-009
1.57487e-009
1.7295e-009
1.73888e-009
1.71802e-009
1.71553e-009
1.71665e-009
1.71733e-009
1.71776e-009
1.71807e-009
1.71836e-009
1.71873e-009
1.71917e-009
1.71945e-009
1.71974e-009
1.71998e-009
0.238272
0.131486
0.0738883
0.0419314
0.023728
0.0131227
0.0068349
0.00308905
0.000982522
0.000192249
1.7883e-005
9.57287e-007
4.73994e-008
3.42832e-009
9.46693e-010
7.09405e-010
7.99035e-010
8.35859e-010
8.29692e-010
8.2645e-010
8.26189e-010
8.26368e-010
8.26523e-010
8.26633e-010
8.26857e-010
8.27016e-010
8.27149e-010
8.27388e-010
8.27498e-010
0.237928
0.13585
0.0791566
0.0467998
0.0278492
0.0164921
0.0095506
0.00524752
0.00257339
0.000936639
0.00020843
2.28897e-005
1.384e-006
7.31128e-008
4.42965e-009
7.63215e-010
4.16549e-010
4.26234e-010
4.49524e-010
4.51963e-010
4.52233e-010
4.52439e-010
4.52549e-010
4.52698e-010
4.52812e-010
4.52867e-010
4.52974e-010
4.53143e-010
4.53255e-010
0.234108
0.136649
0.0816032
0.049612
0.0305262
0.0188648
0.0115853
0.00695687
0.00397345
0.00204037
0.000809863
0.000194068
2.35155e-005
1.56838e-006
8.9498e-008
5.45483e-009
6.27449e-010
2.807e-010
2.55214e-010
2.67086e-010
2.67932e-010
2.6773e-010
2.67761e-010
2.67853e-010
2.67933e-010
2.68001e-010
2.6807e-010
2.68198e-010
2.68283e-010
0.227677
0.13527
0.0821915
0.0509475
0.0320615
0.02037
0.0129709
0.00819334
0.00505407
0.00296399
0.001567
0.000652844
0.000162086
2.0675e-005
1.49658e-006
9.29961e-008
5.95807e-009
5.7539e-010
2.13477e-010
1.70682e-010
1.77315e-010
1.79344e-010
1.79479e-010
1.79533e-010
1.79592e-010
1.79646e-010
1.79713e-010
1.79782e-010
1.79847e-010
0.220208
0.132706
0.0818362
0.051511
0.0329753
0.0213725
0.0139496
0.00910339
0.00587993
0.00370078
0.00221028
0.00118912
0.000505998
0.000125914
1.62793e-005
1.25503e-006
8.45808e-008
5.77154e-009
5.3237e-010
1.76593e-010
1.37144e-010
1.36483e-010
1.37087e-010
1.37226e-010
1.37268e-010
1.37318e-010
1.37379e-010
1.3744e-010
1.37487e-010
0.211682
0.129151
0.0806426
0.0513858
0.0333443
0.0219514
0.0145947
0.0097472
0.00649201
0.00426788
0.00272566
0.0016458
0.000890638
0.000377406
9.08495e-005
1.14287e-005
9.13237e-007
6.54579e-008
4.72711e-009
4.54507e-010
1.49603e-010
1.22528e-010
1.19637e-010
1.19599e-010
1.19605e-010
1.19615e-010
1.19637e-010
1.19662e-010
1.19697e-010
0.202253
0.124681
0.0786703
0.0507003
0.0332527
0.0221568
0.0149449
0.0101555
0.00691394
0.00468074
0.00311741
0.00200858
0.00121631
0.000653097
0.00026676
5.95714e-005
7.01345e-006
5.6826e-007
4.26288e-008
3.23825e-009
3.46476e-010
1.34471e-010
1.18445e-010
1.16896e-010
1.16804e-010
1.16806e-010
1.16803e-010
1.16803e-010
1.1682e-010
0.192215
0.119518
0.0760796
0.0494844
0.0327973
0.0220696
0.0150494
0.0103661
0.00717517
0.00496179
0.00340076
0.00228356
0.00147503
0.000887372
0.000464709
0.000174261
3.429e-005
3.68046e-006
3.00283e-007
2.33302e-008
1.88705e-009
2.52877e-010
1.29287e-010
1.20041e-010
1.19383e-010
1.19372e-010
1.19319e-010
1.1932e-010
1.19322e-010
0.181791
0.113884
0.0730384
0.0478796
0.0320028
0.0217496
0.0149742
0.01042
0.00730716
0.00513487
0.00359314
0.00248198
0.00167069
0.00107322
0.000633241
0.00031544
0.000100767
1.66232e-005
1.63858e-006
1.36931e-007
1.11906e-008
1.0125e-009
2.01723e-010
1.37872e-010
1.32802e-010
1.32415e-010
1.32163e-010
1.32141e-010
1.32146e-010
0.17116
0.107944
0.0696938
0.0460015
0.0309709
0.0212174
0.0147484
0.0103623
0.00733825
0.00522298
0.00371326
0.00261866
0.00181395
0.00121596
0.000769279
0.000437712
0.000199324
5.0007e-005
6.80008e-006
6.47729e-007
5.66254e-008
4.96859e-009
5.74413e-010
2.05701e-010
1.74674e-010
1.7193e-010
1.71064e-010
1.70763e-010
1.70761e-010
0.160457
0.101823
0.0661526
0.0439433
0.0297807
0.020544
0.0143907
0.0102058
0.00729884
0.00524636
0.00377799
0.00270759
0.00191592
0.00132332
0.000876191
0.00053876
0.000288168
0.000111777
2.18036e-005
2.53996e-006
2.43093e-007
2.24953e-008
2.2694e-009
4.49634e-010
2.86763e-010
2.71231e-010
2.6812e-010
2.66983e-010
2.6699e-010
0.149802
0.0956281
0.0624995
0.0417713
0.028488
0.0197819
0.0139531
0.00997115
0.007197
0.00522487
0.00380167
0.0027601
0.00198551
0.00140209
0.000958436
0.000619722
0.000362937
0.000173942
5.1954e-005
8.03815e-006
8.8005e-007
8.82191e-008
9.00584e-009
1.31267e-009
5.76186e-010
5.03421e-010
4.92875e-010
4.87988e-010
4.86291e-010
0.139282
0.0894369
0.0587997
0.0395375
0.0271334
0.0189634
0.0134662
0.00969183
0.00705002
0.00516589
0.00379578
0.0027876
0.00203323
0.00146136
0.00102332
0.000685764
0.000426162
0.000230171
9.11456e-005
1.97999e-005
2.62342e-006
2.91035e-007
3.15549e-008
4.16889e-009
1.33317e-009
1.03289e-009
9.92657e-010
9.76737e-010
9.7179e-010
0.128953
0.083302
0.0550975
0.0372777
0.0257456
0.0181117
0.0129489
0.00938559
0.0068783
0.00508145
0.00377062
0.00279616
0.00206407
0.00150572
0.00107509
0.000740464
0.00048014
0.00027988
0.000131129
3.93954e-005
6.70313e-006
8.41522e-007
9.90523e-008
1.30177e-008
3.34224e-009
2.25141e-009
2.10922e-009
2.05221e-009
2.02743e-009
0.118859
0.0772621
0.0514241
0.0350168
0.0243442
0.0172422
0.0124134
0.00906243
0.00669131
0.00498224
0.00372839
0.00279288
0.00208467
0.00154099
0.00111872
0.000787937
0.000527947
0.000324833
0.000169766
6.27599e-005
1.3569e-005
2.0285e-006
2.68165e-007
3.7504e-008
8.66024e-009
5.08827e-009
4.60393e-009
4.46758e-009
4.41626e-009
0.109043
0.071349
0.0478035
0.0327724
0.0229423
0.0163651
0.0118679
0.008729
0.00649493
0.00487508
0.00367979
0.00278306
0.00209907
0.00157062
0.00115737
0.000831164
0.000572374
0.000367572
0.000208127
9.07334e-005
2.55867e-005
4.61535e-006
6.75739e-007
1.00757e-007
2.28935e-008
1.24757e-008
1.06883e-008
1.0076e-008
9.87392e-009
0.0995486
0.0655924
0.0442558
0.0305585
0.0215498
0.0154871
0.0113173
0.00838917
0.00629218
0.00476206
0.00362562
0.00276733
0.00210884
0.00159648
0.00119285
0.000871706
0.000614585
0.000408694
0.000245654
0.000120755
4.06549e-005
8.89042e-006
1.50977e-006
2.49419e-007
5.69942e-008
3.01338e-008
2.83486e-008
2.73864e-008
2.50902e-008
0.0904176
0.0600201
0.0407991
0.0283868
0.0201743
0.0146137
0.0107653
0.00804567
0.00608525
0.00464521
0.00356837
0.00274947
0.00211685
0.00162108
0.00122759
0.000911987
0.000657006
0.000450547
0.00028453
0.000153828
6.14932e-005
1.60676e-005
3.12522e-006
5.67211e-007
1.34904e-007
6.80857e-008
5.58387e-008
5.55913e-008
5.79791e-008
0.0816891
0.0546564
0.0374486
0.0262668
0.0188215
0.0137481
0.0102138
0.0076995
0.00587466
0.00452484
0.00350827
0.00272954
0.00212352
0.00164502
0.00126225
0.000952714
0.000700364
0.000493869
0.00032548
0.000190053
8.74218e-005
2.79897e-005
6.36764e-006
1.25264e-006
2.87951e-007
1.28732e-007
9.93001e-008
9.22457e-008
8.83294e-008
0.0734006
0.0495249
0.034219
0.0242072
0.0174966
0.012893
0.00966408
0.00735098
0.00566024
0.00440052
0.00344474
0.00270703
0.00212849
0.00166809
0.00129681
0.000993982
0.000744822
0.000538788
0.000368576
0.000229394
0.000119054
4.46776e-005
1.18978e-005
2.61881e-006
5.98939e-007
2.07276e-007
1.42023e-007
1.29297e-007
1.25995e-007
0.065586
0.0446473
0.0311239
0.0222164
0.0162044
0.012051
0.00911723
0.00700035
0.00544165
0.0042716
0.00337705
0.00268123
0.00213107
0.00168984
0.00133095
0.00103567
0.000790441
0.000585519
0.000414039
0.000271403
0.00015536
6.898e-005
2.14322e-005
5.26056e-006
1.23976e-006
3.64784e-007
1.9002e-007
1.61401e-007
1.54817e-007
0.0582727
0.0400426
0.0281759
0.0203026
0.0149499
0.0112252
0.00857472
0.0066481
0.00521878
0.00413759
0.0033045
0.00265121
0.00213028
0.00170946
0.00136415
0.00107743
0.000837029
0.000634051
0.00046214
0.000316964
0.000195513
9.95494e-005
3.7649e-005
1.04226e-005
2.57856e-006
6.97769e-007
2.8065e-007
1.95957e-007
1.8159e-007
0.0514804
0.0357257
0.0253858
0.0184732
0.0137381
0.0104183
0.00803823
0.00629496
0.00499172
0.0039982
0.00322656
0.00261661
0.00212649
0.00172663
0.00139586
0.00111878
0.000884233
0.000684138
0.000512684
0.000365886
0.000241072
0.000136719
6.06359e-005
2.00778e-005
5.38384e-006
1.42471e-006
4.7143e-007
2.52559e-007
2.10092e-007
0.0452197
0.0317068
0.0227618
0.0167344
0.0125734
0.0096335
0.00750953
0.00594182
0.00476069
0.00385318
0.00314274
0.00257664
0.00211809
0.00174044
0.00142534
0.00115902
0.000931442
0.000735279
0.000565256
0.000417714
0.000290275
0.000181591
9.2751e-005
3.59281e-005
1.0948e-005
3.01628e-006
8.97822e-007
3.71797e-007
2.46921e-007
0.0394925
0.0279913
0.0203098
0.0150913
0.0114597
0.00887353
0.00699045
0.00558968
0.00452607
0.00370241
0.00305248
0.00253038
0.00210382
0.00174973
0.00145155
0.0011972
0.000977755
0.000786674
0.000619184
0.000471942
0.000342788
0.000230372
0.000135073
6.1595e-005
2.14593e-005
6.42319e-006
1.87212e-006
6.44479e-007
3.25747e-007
0.0342927
0.0245805
0.0180334
0.0135478
0.0104005
0.00814112
0.00648295
0.00523978
0.00428846
0.00354597
0.00295544
0.00247721
0.00208313
0.00175295
0.00147315
0.00123211
0.00102207
0.000837302
0.000673552
0.000527806
0.000398077
0.000283228
0.000182584
9.9285e-005
4.08243e-005
1.34551e-005
4.07506e-006
1.28489e-006
5.08655e-007
0.029607
0.0214709
0.0159335
0.0121065
0.00939861
0.00743881
0.005989
0.00489352
0.00404869
0.00338419
0.00285153
0.0024167
0.00205545
0.00175029
0.00148935
0.00126268
0.00106331
0.000886122
0.000727372
0.000584373
0.000455317
0.000339179
0.000235469
0.000144416
7.22567e-005
2.7283e-005
8.85027e-006
2.77957e-006
9.45116e-007
0.0254158
0.0186558
0.014009
0.0107687
0.00845628
0.00676887
0.00551059
0.00455242
0.00380782
0.00321771
0.00274108
0.002349
0.00202084
0.00174175
0.00150015
0.00128856
0.00110082
0.000932354
0.000779826
0.000640833
0.00051374
0.000397584
0.000291955
0.000197078
0.000114069
5.23179e-005
1.88706e-005
6.16146e-006
1.98707e-006
0.0216946
0.0161247
0.0122567
0.00953452
0.00757497
0.0061332
0.00504955
0.00421804
0.00356704
0.00304733
0.00262449
0.0022741
0.00197862
0.00172513
0.00150357
0.00130854
0.00113369
0.000975186
0.000830133
0.000696433
0.000572629
0.000457831
0.00035162
0.000254198
0.000166211
9.03831e-005
3.81801e-005
1.3578e-005
4.42033e-006
0.0184149
0.0138647
0.0106714
0.00840286
0.00675548
0.00553335
0.0046076
0.00389193
0.00332761
0.00287394
0.00250227
0.00219212
0.00192864
0.00170084
0.00150043
0.00132222
0.00116114
0.00101372
0.00087739
0.000750291
0.000631127
0.000519088
0.00041378
0.000315232
0.000224136
0.000141473
7.21406e-005
2.89499e-005
9.99952e-006
0.0155454
0.0118607
0.00924653
0.00737157
0.00599789
0.00497044
0.0041862
0.00357557
0.0030908
0.00269853
0.0023751
0.00210348
0.00187122
0.00166916
0.00149055
0.00132915
0.00118262
0.00104725
0.000920771
0.000801511
0.000688302
0.0005804
0.000477441
0.000379392
0.000286674
0.000200294
0.000121662
5.82587e-005
2.21951e-005
0.0130532
0.010096
0.00797424
0.00643754
0.00530165
0.00444518
0.0037866
0.00327033
0.00285788
0.00252215
0.00224377
0.00200866
0.00180646
0.00162945
0.00147169
0.00132793
0.00119695
0.00107471
0.000959243
0.000849083
0.000743164
0.000640789
0.000541605
0.000445575
0.000352967
0.000264544
0.000181285
0.000105936
4.66558e-005
0.0109042
0.00855248
0.00684552
0.00559681
0.00466557
0.00395784
0.00340979
0.00297745
0.0026301
0.00234592
0.00210915
0.00190826
0.00173468
0.00158195
0.00144515
0.00132041
0.00120423
0.00109563
0.000992062
0.000892126
0.000794787
0.000699338
0.000605384
0.00051285
0.000421949
0.000333256
0.000247376
0.000166809
9.08391e-005
0.00906443
0.00721168
0.00585058
0.00484467
0.00408786
0.00350827
0.00305647
0.00269804
0.00240868
0.00217097
0.00197221
0.00180301
0.00165634
0.00152685
0.00141042
0.00130387
0.00120307
0.00110892
0.00101821
0.000929634
0.000842185
0.000755113
0.00066794
0.000580477
0.00049285
0.000405554
0.000318876
0.000235306
0.000152841
0.0075004
0.00605458
0.00497904
0.00417583
0.00356619
0.00309589
0.00272706
0.00243302
0.00219475
0.00199845
0.00183398
0.00169377
0.00157207
0.00146448
0.00136753
0.00127851
0.00119498
0.00111427
0.00103702
0.000960743
0.000884406
0.000807169
0.00072841
0.000647759
0.00056515
0.000480933
0.000395331
0.000309913
0.000225809
0.00617967
0.00506232
0.00422015
0.00358445
0.00309778
0.00271973
0.00242166
0.00218311
0.00198932
0.00182948
0.00169556
0.00158149
0.00148263
0.00139538
0.00131685
0.00124477
0.00117732
0.00111138
0.00104781
0.000984551
0.000920427
0.000854451
0.00078581
0.000713882
0.000638307
0.000559125
0.000476543
0.000390991
0.000305956
0.00507141
0.00421644
0.00356306
0.00306442
0.00267943
0.00237846
0.0021401
0.00194883
0.00179331
0.00166516
0.00155806
0.00146723
0.00138893
0.00132024
0.00125881
0.00120272
0.00115038
0.00110029
0.0010493
0.000999907
0.000949053
0.000895726
0.000838942
0.000777804
0.000711572
0.000639813
0.000562494
0.000479248
0.000393429
0.00414681
0.00349922
0.00299703
0.00260941
0.00230768
0.00207044
0.00188191
0.00173046
0.00160747
0.00150649
0.00142262
0.00135209
0.00129198
0.00123994
0.00119407
0.00115279
0.00111475
0.00107876
0.00104295
0.00100623
0.000969253
0.000929704
0.000886421
0.00083821
0.000783896
0.000722433
0.000653207
0.000575274
0.000490308
0.00337942
0.00289404
0.00251169
0.00221311
0.00197886
0.00179378
0.0016464
0.0015281
0.0014324
0.00135439
0.00129031
0.00123726
0.00119294
0.00115552
0.0011235
0.00109561
0.00107076
0.00104797
0.00102647
0.00100323
0.000979957
0.00095498
0.000926619
0.00089342
0.000853785
0.000805963
0.000748461
0.000679573
0.000598892
0.00274538
0.0023855
0.0020972
0.00186934
0.00168925
0.00154643
0.00143266
0.00134163
0.00126854
0.00120968
0.00116221
0.00112391
0.00109304
0.00106819
0.00104822
0.00103213
0.00101909
0.00100837
0.000999211
0.000990808
0.000979924
0.00097008
0.000957699
0.00094126
0.000919069
0.000888654
0.000847409
0.000792401
0.000721122
0.00222346
0.00195965
0.00174443
0.0015722
0.00143516
0.00132624
0.00123965
0.00117082
0.00111623
0.00107313
0.00103939
0.00101335
0.000993718
0.000979443
0.000969695
0.000963694
0.000960907
0.000960968
0.000962831
0.000966758
0.000971201
0.000974376
0.000978272
0.000979059
0.000976735
0.000968152
0.000948457
0.000912975
0.000858078
0.00179511
0.00160404
0.00144505
0.00131617
0.00121306
0.0011311
0.00106629
0.00101539
0.00097583
0.000945581
0.000923082
0.000907123
0.000896733
0.00089119
0.000889986
0.000892286
0.000898148
0.000907404
0.000919363
0.000934038
0.000951276
0.000969196
0.000988391
0.00100779
0.00102645
0.00104146
0.00104529
0.00103689
0.0010089
0.00144437
0.00130776
0.00119161
0.00109623
0.00101967
0.000959048
0.000911681
0.000875278
0.000847972
0.000828262
0.000815009
0.000807358
0.00080455
0.000806142
0.00081163
0.000821264
0.000834498
0.000851409
0.000871868
0.000895972
0.00092388
0.000955486
0.00098958
0.00102693
0.00106714
0.00110741
0.00114321
0.00116596
0.00116368
0.00115769
0.00106137
0.000977601
0.000907989
0.000852193
0.000808576
0.000775391
0.000751007
0.000734029
0.000723276
0.000717904
0.000717362
0.000720677
0.000728351
0.000739971
0.000755548
0.000775059
0.000798682
0.000826579
0.00085914
0.000896802
0.000940119
0.000989459
0.00104332
0.00110445
0.00117008
0.00124024
0.00130027
0.00134252
0.000923804
0.000856978
0.000797569
0.000747846
0.000708574
0.000678982
0.000657985
0.000644315
0.000636806
0.000634387
0.000636296
0.000642003
0.000651486
0.000664688
0.000681771
0.000702981
0.000728533
0.000758825
0.000794194
0.000835595
0.000883466
0.000939359
0.00100129
0.00107347
0.00115574
0.00124654
0.00135435
0.0014515
0.00155933
0.000733601
0.000688189
0.000647248
0.0006133
0.000587916
0.000570924
0.000561669
0.000558947
0.000561441
0.000567931
0.000577828
0.000590539
0.000606287
0.00062547
0.000648718
0.000676596
0.000709602
0.000748578
0.000793923
0.000846066
0.000905297
0.000975327
0.00105474
0.00115123
0.00126122
0.00138728
0.00154382
0.00167834
0.00188694
0.000580111
0.000550282
0.000523811
0.00050327
0.000490902
0.000486925
0.000490903
0.000501364
0.000516747
0.000535144
0.000555568
0.000577682
0.00060205
0.0006296
0.000661167
0.00069842
0.000742301
0.000794552
0.000855271
0.000928513
0.00101152
0.00111427
0.00122622
0.00137285
0.00152905
0.00172467
0.00196658
0.00216671
0.0025787
0.000458507
0.000440297
0.000426026
0.000418256
0.000419912
0.000431321
0.000452914
0.00048243
0.000517408
0.000554203
0.000591549
0.000629193
0.000668258
0.000711091
0.000760404
0.000819384
0.000889918
0.000976642
0.00107894
0.00120803
0.00135405
0.00155033
0.00175225
0.00205632
0.00233517
0.00277001
0.00321657
0.00367087
0.00462026
0.000365923
0.000356856
0.000353988
0.00035986
0.000378141
0.000410681
0.000457706
0.000516885
0.000585663
0.000660112
0.000736423
0.00081328
0.000892393
0.000978621
0.00107826
0.00120048
0.00135115
0.00154536
0.00178298
0.00210161
0.0024728
0.00301446
0.00357404
0.00452555
0.00533152
0.00693866
0.00819229
0.0104893
0.0132957
0.000300684
0.00029934
0.000307978
0.000329582
0.000369392
0.000430763
0.000516857
0.000629476
0.000767247
0.000926048
0.00110056
0.0012879
0.00149088
0.00172036
0.00199321
0.00233725
0.0027768
0.003364
0.00411852
0.00516243
0.00646603
0.00837473
0.0105923
0.0141763
0.0178385
0.0246684
0.030932
0.0445293
0.0568388
0.000261027
0.000266476
0.000287538
0.000327746
0.000394856
0.000497324
0.000645225
0.000848999
0.00111714
0.00145429
0.00186175
0.00234212
0.00290739
0.00358638
0.00442741
0.00550781
0.00691675
0.0087973
0.0112778
0.0146382
0.0190646
0.0251583
0.0331257
0.0444212
0.0591379
0.0811941
0.110549
0.160889
0.222133
0.000244624
0.000256153
0.000291
0.000352755
0.000454771
0.000612798
0.000849227
0.00119264
0.00167584
0.00233287
0.00319733
0.00430516
0.00570697
0.007485
0.00976497
0.012727
0.0166157
0.0217452
0.0285506
0.0375549
0.0496849
0.0657367
0.087996
0.117399
0.16104
0.21828
0.317276
0.442988
0.675366
0.00151969
0.00151969
0.00151969
0.00151969
0.00151969
0.00151969
0.00151969
0.00151969
0.00151969
0.00151969
0.00151969
0.00151969
0.00151969
0.00151969
0.00151969
0.0015197
0.0015197
0.0015197
0.0015197
0.0015197
0.0015197
0.0015197
0.0015197
0.0015197
0.0015197
0.0015197
0.0015197
0.0015197
0.0015197
0.0015197
0.0015197
0.0015197
0.0015197
0.0015197
0.0015197
0.0015197
0.0015197
0.0015197
0.0015197
0.0015197
0.0015197
0.0015197
0.0015197
0.0015197
0.0015197
0.0015197
0.0015197
0.0015197
0.0015197
0.0015197
0.0015197
0.0015197
0.0015197
0.0015197
0.0015197
0.0015197
0.0015197
0.0015197
0.0015197
0.0015197
0.0015197
0.0015197
0.0015197
0.0015197
0.0015197
0.0015197
0.0015197
0.00151971
0.00151971
0.00151971
0.00151971
0.00151971
0.00151971
0.00151971
0.00151971
0.00151971
0.00151971
0.00151971
0.00151971
0.00151971
0.00151971
0.00151971
0.00151971
0.00151971
0.00151971
0.00151971
0.00151971
0.00151971
0.00151971
0.00151971
0.00151971
0.00151971
0.00151971
0.00151971
0.00151971
0.00151971
0.00151971
0.00151971
0.00151971
0.00151971
0.00151971
0.00151971
0.00151971
0.00151971
0.00151971
0.00151971
0.00151971
0.00151971
0.00151971
0.00151971
0.00151971
0.00151971
0.00151971
0.00151971
0.00151971
0.00151971
0.00151971
0.0015197
0.0015197
0.0015197
0.00151971
0.00151971
0.00151971
0.00151971
0.00151971
0.00151971
0.00151971
0.00151971
0.00151971
0.00151971
0.00151971
0.00151971
0.00151971
0.00151971
0.00151971
0.00151972
0.00151972
0.00151973
0.00154205
3.28168e-005
3.28169e-005
3.28173e-005
3.28179e-005
3.28181e-005
3.28178e-005
3.28178e-005
3.28185e-005
3.28192e-005
3.28194e-005
3.28191e-005
3.28188e-005
3.28194e-005
3.28205e-005
3.28215e-005
3.28222e-005
3.28228e-005
3.28232e-005
3.28236e-005
3.28238e-005
3.28239e-005
3.28239e-005
3.28239e-005
3.28238e-005
3.28238e-005
3.28239e-005
3.28241e-005
3.28243e-005
3.28246e-005
3.2825e-005
3.28253e-005
3.28256e-005
3.28259e-005
3.28262e-005
3.28265e-005
3.28267e-005
3.2827e-005
3.28273e-005
3.28276e-005
3.28279e-005
3.28281e-005
3.28284e-005
3.28287e-005
3.28289e-005
3.28292e-005
3.28295e-005
3.28297e-005
3.283e-005
3.28302e-005
3.28305e-005
3.28307e-005
3.2831e-005
3.28312e-005
3.28315e-005
3.28317e-005
3.2832e-005
3.28323e-005
3.28326e-005
3.28329e-005
3.28331e-005
3.28334e-005
3.28337e-005
3.28339e-005
3.28342e-005
3.28344e-005
3.28347e-005
3.28349e-005
3.28351e-005
3.28354e-005
3.28356e-005
3.28358e-005
3.28361e-005
3.28363e-005
3.28365e-005
3.28367e-005
3.28369e-005
3.28371e-005
3.28373e-005
3.28376e-005
3.28378e-005
3.2838e-005
3.28382e-005
3.28383e-005
3.28385e-005
3.28387e-005
3.28388e-005
3.28389e-005
3.2839e-005
3.28392e-005
3.28393e-005
3.28394e-005
3.28395e-005
3.28395e-005
3.28396e-005
3.28396e-005
3.28396e-005
3.28395e-005
3.28395e-005
3.28394e-005
3.28393e-005
3.28392e-005
3.28391e-005
3.28389e-005
3.28388e-005
3.28386e-005
3.28385e-005
3.28383e-005
3.28381e-005
3.28379e-005
3.28377e-005
3.28375e-005
3.28373e-005
3.2837e-005
3.28367e-005
3.28363e-005
3.28359e-005
3.28354e-005
3.2835e-005
3.28349e-005
3.2835e-005
3.28353e-005
3.28356e-005
3.2836e-005
3.28363e-005
3.28366e-005
3.28371e-005
3.28372e-005
3.28379e-005
3.28382e-005
3.28388e-005
3.28401e-005
3.28407e-005
3.28422e-005
3.28459e-005
3.28442e-005
3.2849e-005
3.28635e-005
3.28613e-005
3.37051e-005
1.42054e-006
1.42067e-006
1.42077e-006
1.42084e-006
1.42091e-006
1.42101e-006
1.4211e-006
1.42117e-006
1.4212e-006
1.42125e-006
1.42133e-006
1.42142e-006
1.4215e-006
1.42153e-006
1.42156e-006
1.42159e-006
1.42164e-006
1.42169e-006
1.42174e-006
1.4218e-006
1.42185e-006
1.42192e-006
1.42198e-006
1.42206e-006
1.42213e-006
1.4222e-006
1.42227e-006
1.42233e-006
1.42239e-006
1.42245e-006
1.4225e-006
1.42256e-006
1.42261e-006
1.42267e-006
1.42272e-006
1.42277e-006
1.42282e-006
1.42286e-006
1.42292e-006
1.42297e-006
1.42302e-006
1.42307e-006
1.42312e-006
1.42318e-006
1.42323e-006
1.42328e-006
1.42333e-006
1.42338e-006
1.42344e-006
1.42349e-006
1.42354e-006
1.42359e-006
1.42364e-006
1.42369e-006
1.42374e-006
1.42379e-006
1.42383e-006
1.42388e-006
1.42393e-006
1.42397e-006
1.42401e-006
1.42405e-006
1.42409e-006
1.42413e-006
1.42417e-006
1.42421e-006
1.42425e-006
1.42429e-006
1.42433e-006
1.42436e-006
1.4244e-006
1.42444e-006
1.42447e-006
1.4245e-006
1.42454e-006
1.42457e-006
1.4246e-006
1.42463e-006
1.42465e-006
1.42468e-006
1.4247e-006
1.42473e-006
1.42475e-006
1.42477e-006
1.4248e-006
1.42482e-006
1.42484e-006
1.42485e-006
1.42488e-006
1.42491e-006
1.42493e-006
1.42496e-006
1.42498e-006
1.425e-006
1.42501e-006
1.42503e-006
1.42504e-006
1.42504e-006
1.42505e-006
1.42505e-006
1.42505e-006
1.42504e-006
1.42504e-006
1.42503e-006
1.42501e-006
1.425e-006
1.42497e-006
1.42495e-006
1.42492e-006
1.42489e-006
1.42485e-006
1.42481e-006
1.42477e-006
1.42472e-006
1.42467e-006
1.42461e-006
1.42456e-006
1.42453e-006
1.42451e-006
1.42449e-006
1.42448e-006
1.42446e-006
1.42441e-006
1.4244e-006
1.42433e-006
1.42432e-006
1.42427e-006
1.42421e-006
1.42421e-006
1.42422e-006
1.42418e-006
1.42437e-006
1.42412e-006
1.42456e-006
1.42518e-006
1.42659e-006
1.33429e-006
1.34443e-006
8.61408e-006
1.2001e-007
1.20027e-007
1.20043e-007
1.20061e-007
1.20077e-007
1.20088e-007
1.20098e-007
1.2011e-007
1.20128e-007
1.20143e-007
1.20153e-007
1.20159e-007
1.20168e-007
1.20183e-007
1.20202e-007
1.20218e-007
1.20232e-007
1.20245e-007
1.20258e-007
1.2027e-007
1.20282e-007
1.20293e-007
1.20304e-007
1.20314e-007
1.20324e-007
1.20334e-007
1.20345e-007
1.20356e-007
1.20369e-007
1.20382e-007
1.20395e-007
1.20408e-007
1.20421e-007
1.20434e-007
1.20447e-007
1.20459e-007
1.20471e-007
1.20483e-007
1.20495e-007
1.20507e-007
1.20519e-007
1.2053e-007
1.20542e-007
1.20554e-007
1.20566e-007
1.20577e-007
1.20589e-007
1.206e-007
1.20611e-007
1.20623e-007
1.20634e-007
1.20644e-007
1.20655e-007
1.20665e-007
1.20676e-007
1.20686e-007
1.20696e-007
1.20706e-007
1.20715e-007
1.20725e-007
1.20735e-007
1.20744e-007
1.20754e-007
1.20763e-007
1.20772e-007
1.20781e-007
1.2079e-007
1.20799e-007
1.20808e-007
1.20816e-007
1.20825e-007
1.20833e-007
1.20841e-007
1.20849e-007
1.20856e-007
1.20864e-007
1.20871e-007
1.20878e-007
1.20884e-007
1.20891e-007
1.20897e-007
1.20903e-007
1.20909e-007
1.20914e-007
1.2092e-007
1.20924e-007
1.20929e-007
1.20933e-007
1.20937e-007
1.20943e-007
1.20948e-007
1.20953e-007
1.20958e-007
1.20962e-007
1.20967e-007
1.2097e-007
1.20974e-007
1.20977e-007
1.2098e-007
1.20982e-007
1.20983e-007
1.20984e-007
1.20984e-007
1.20984e-007
1.20983e-007
1.20981e-007
1.20979e-007
1.20976e-007
1.20972e-007
1.20967e-007
1.20961e-007
1.20954e-007
1.20946e-007
1.20937e-007
1.20927e-007
1.20916e-007
1.20906e-007
1.20896e-007
1.20887e-007
1.20878e-007
1.20868e-007
1.20858e-007
1.20841e-007
1.20831e-007
1.2081e-007
1.20796e-007
1.20779e-007
1.20764e-007
1.20732e-007
1.20754e-007
1.20771e-007
1.20527e-007
1.2075e-007
1.21542e-007
1.18276e-007
1.09991e-007
3.57445e-007
3.66117e-005
0.00329787
1.85316e-008
1.85357e-008
1.85396e-008
1.85425e-008
1.85448e-008
1.85479e-008
1.85523e-008
1.85554e-008
1.8558e-008
1.85597e-008
1.85623e-008
1.85667e-008
1.85702e-008
1.85736e-008
1.85763e-008
1.85787e-008
1.85815e-008
1.85844e-008
1.85874e-008
1.85905e-008
1.85937e-008
1.8597e-008
1.86004e-008
1.8604e-008
1.86079e-008
1.86119e-008
1.86158e-008
1.86196e-008
1.86233e-008
1.8627e-008
1.86307e-008
1.86344e-008
1.86381e-008
1.86419e-008
1.86457e-008
1.86495e-008
1.86533e-008
1.86571e-008
1.86609e-008
1.86646e-008
1.86684e-008
1.86722e-008
1.86759e-008
1.86796e-008
1.86832e-008
1.86868e-008
1.86904e-008
1.8694e-008
1.86975e-008
1.8701e-008
1.87044e-008
1.87078e-008
1.87112e-008
1.87145e-008
1.87178e-008
1.8721e-008
1.87243e-008
1.87274e-008
1.87306e-008
1.87337e-008
1.87368e-008
1.874e-008
1.87431e-008
1.87461e-008
1.87491e-008
1.87521e-008
1.8755e-008
1.87578e-008
1.87606e-008
1.87634e-008
1.87661e-008
1.87687e-008
1.87713e-008
1.87738e-008
1.87763e-008
1.87787e-008
1.87811e-008
1.87834e-008
1.87856e-008
1.87878e-008
1.87899e-008
1.87919e-008
1.87938e-008
1.87957e-008
1.87975e-008
1.87992e-008
1.88008e-008
1.88023e-008
1.88038e-008
1.88052e-008
1.88067e-008
1.88081e-008
1.88095e-008
1.88108e-008
1.8812e-008
1.88132e-008
1.88143e-008
1.88153e-008
1.88162e-008
1.8817e-008
1.88177e-008
1.88183e-008
1.88187e-008
1.88189e-008
1.8819e-008
1.88189e-008
1.88187e-008
1.88182e-008
1.88176e-008
1.88167e-008
1.88156e-008
1.8814e-008
1.8812e-008
1.88097e-008
1.88071e-008
1.88042e-008
1.88012e-008
1.87982e-008
1.87952e-008
1.8792e-008
1.87886e-008
1.87847e-008
1.87799e-008
1.87755e-008
1.87693e-008
1.87637e-008
1.87566e-008
1.87506e-008
1.87453e-008
1.87382e-008
1.86449e-008
1.90056e-008
1.88e-008
1.65012e-008
2.10641e-008
2.48738e-007
2.32002e-005
0.00143583
0.0237316
4.67433e-009
4.67554e-009
4.67639e-009
4.67738e-009
4.67869e-009
4.6797e-009
4.68054e-009
4.68121e-009
4.68228e-009
4.68366e-009
4.68474e-009
4.68578e-009
4.68639e-009
4.68734e-009
4.68866e-009
4.69007e-009
4.69132e-009
4.69256e-009
4.69382e-009
4.69506e-009
4.69635e-009
4.69769e-009
4.69907e-009
4.70045e-009
4.70181e-009
4.70311e-009
4.70442e-009
4.70579e-009
4.70723e-009
4.70872e-009
4.71023e-009
4.71174e-009
4.71326e-009
4.71478e-009
4.71629e-009
4.7178e-009
4.71933e-009
4.72086e-009
4.72239e-009
4.7239e-009
4.72541e-009
4.72692e-009
4.72842e-009
4.72992e-009
4.73142e-009
4.73291e-009