/*--------------------------------*- C++ -*----------------------------------*\
| =========                 |                                                 |
| \\      /  F ield         | OpenFOAM: The Open Source CFD Toolbox           |
|  \\    /   O peration     | Version:  5.x                                   |
|   \\  /    A nd           | Web:      www.OpenFOAM.org                      |
|    \\/     M anipulation  |                                                 |
\*---------------------------------------------------------------------------*/
/*   Windows 32 and 64 bit porting by blueCAPE: http://www.bluecape.com.pt   *\
|  Based on Windows porting (2.0.x v4) by Symscape: http://www.symscape.com   |
\*---------------------------------------------------------------------------*/
FoamFile
{
    version     2.0;
    format      ascii;
    class       volScalarField;
    location    "210";
    object      k;
}
// * * * * * * * * * * * * * * * * * * * * * * * * * * * * * * * * * * * * * //

dimensions      [0 2 -2 0 0 0 0];

internalField   nonuniform List<scalar> 
43900
(
0.000985509
0.000989443
0.00099025
0.000990179
0.000990128
0.000990118
0.00099012
0.000990116
0.000990118
0.000990122
0.000990124
0.000990126
0.000990128
0.000990129
0.000990131
0.000990132
0.000990134
0.000990135
0.000990136
0.000990137
0.000990138
0.000990138
0.000990138
0.000990139
0.000990139
0.000990139
0.00099014
0.00099014
0.00099014
0.00164415
5.58792e-005
3.89319e-005
3.81742e-005
4.08163e-005
4.09711e-005
4.09882e-005
4.09496e-005
4.09515e-005
4.0957e-005
4.09603e-005
4.09641e-005
4.09667e-005
4.09695e-005
4.09725e-005
4.09753e-005
4.09774e-005
4.09799e-005
4.09815e-005
4.09827e-005
4.09841e-005
4.09848e-005
4.09856e-005
4.09866e-005
4.0987e-005
4.09876e-005
4.09882e-005
4.09883e-005
4.09887e-005
0.294149
0.0538545
0.00407036
0.000116277
4.95989e-006
3.08378e-006
2.97856e-006
3.34521e-006
3.38126e-006
3.37333e-006
3.36916e-006
3.37031e-006
3.37214e-006
3.37317e-006
3.37397e-006
3.37479e-006
3.37559e-006
3.37627e-006
3.37682e-006
3.37733e-006
3.37773e-006
3.37813e-006
3.3785e-006
3.37879e-006
3.3791e-006
3.37937e-006
3.3796e-006
3.37985e-006
3.38002e-006
0.879277
0.375866
0.119574
0.0236543
0.00204879
8.04737e-005
3.91555e-006
5.84921e-007
4.55268e-007
5.05598e-007
5.35075e-007
5.341e-007
5.29901e-007
5.30474e-007
5.31533e-007
5.316e-007
5.31644e-007
5.31791e-007
5.31931e-007
5.3205e-007
5.32168e-007
5.32275e-007
5.32371e-007
5.32466e-007
5.32547e-007
5.32624e-007
5.32701e-007
5.32764e-007
5.32817e-007
1.29147
0.74013
0.395307
0.176798
0.0560413
0.010196
0.000792891
3.47721e-005
1.54665e-006
2.11287e-007
1.26863e-007
1.33994e-007
1.49038e-007
1.47361e-007
1.44586e-007
1.45271e-007
1.45825e-007
1.45856e-007
1.45877e-007
1.4591e-007
1.45944e-007
1.45982e-007
1.46015e-007
1.46039e-007
1.46068e-007
1.46098e-007
1.46118e-007
1.46143e-007
1.46163e-007
1.54496
0.981698
0.614271
0.367494
0.196685
0.0811046
0.0219863
0.00294957
0.000178494
8.21969e-006
4.28416e-007
8.09201e-008
5.22914e-008
5.78381e-008
6.3276e-008
6.09827e-008
5.99126e-008
6.01311e-008
6.02303e-008
6.02402e-008
6.02526e-008
6.02692e-008
6.02799e-008
6.02906e-008
6.03027e-008
6.0313e-008
6.03231e-008
6.03341e-008
6.03414e-008
1.71687
1.15373
0.775749
0.515439
0.331451
0.198468
0.0997733
0.034206
0.00665051
0.000571425
2.9685e-005
1.46748e-006
1.05937e-007
3.50566e-008
2.82833e-008
3.3406e-008
3.42822e-008
3.34181e-008
3.33215e-008
3.33746e-008
3.3394e-008
3.34015e-008
3.34073e-008
3.34121e-008
3.34188e-008
3.34273e-008
3.34321e-008
3.34363e-008
3.34403e-008
1.81099
1.25656
0.877534
0.612378
0.422438
0.283216
0.178977
0.100073
0.041186
0.0101388
0.001141
6.65533e-005
3.38095e-006
1.91659e-007
3.2332e-008
1.99018e-008
2.09715e-008
2.30477e-008
2.27245e-008
2.24803e-008
2.24543e-008
2.24577e-008
2.24613e-008
2.24637e-008
2.24687e-008
2.24719e-008
2.24751e-008
2.24806e-008
2.24834e-008
1.87921
1.33511
0.957217
0.689182
0.494918
0.351118
0.242507
0.159018
0.0940513
0.0433797
0.0120674
0.00160975
0.000107071
5.90243e-006
3.39251e-007
3.40144e-008
1.57204e-008
1.37333e-008
1.51505e-008
1.56172e-008
1.56351e-008
1.56327e-008
1.56356e-008
1.5641e-008
1.56429e-008
1.56429e-008
1.56465e-008
1.56529e-008
1.56571e-008
1.90548
1.37592
1.00475
0.739204
0.545229
0.400608
0.290607
0.205329
0.138089
0.0844167
0.0416707
0.012383
0.00181335
0.000132927
7.92611e-006
4.78603e-007
3.99694e-008
1.38573e-008
1.05502e-008
1.06694e-008
1.08426e-008
1.08835e-008
1.08899e-008
1.08943e-008
1.08968e-008
1.08991e-008
1.09019e-008
1.0907e-008
1.09101e-008
1.90832
1.39418
1.03113
0.769847
0.578029
0.43443
0.324818
0.239534
0.171958
0.117554
0.0733049
0.0375266
0.0114577
0.00174712
0.000137882
8.91666e-006
5.76054e-007
4.6287e-008
1.19144e-008
9.11116e-009
8.72057e-009
8.72603e-009
8.73023e-009
8.73168e-009
8.73255e-009
8.73384e-009
8.73645e-009
8.73852e-009
8.74071e-009
1.90021
1.40166
1.04728
0.790716
0.601454
0.459242
0.350404
0.265565
0.198228
0.143866
0.0993446
0.0625907
0.0324844
0.00986315
0.00150244
0.000124781
8.70588e-006
6.01932e-007
4.88487e-008
1.12577e-008
8.65773e-009
8.36644e-009
8.33858e-009
8.33751e-009
8.33751e-009
8.33759e-009
8.33799e-009
8.3391e-009
8.34114e-009
1.87892
1.39734
1.05268
0.802049
0.616397
0.476397
0.36895
0.285029
0.21833
0.164409
0.120134
0.0833215
0.0525418
0.0270761
0.00789474
0.00114948
9.75578e-005
7.19738e-006
5.25687e-007
4.50723e-008
1.09283e-008
8.54624e-009
8.38198e-009
8.37173e-009
8.3717e-009
8.37173e-009
8.3719e-009
8.37256e-009
8.37429e-009
1.84561
1.38248
1.04898
0.804989
0.623746
0.486692
0.381246
0.298724
0.233045
0.179896
0.136198
0.0997599
0.069054
0.0430996
0.0214672
0.00575723
0.000766633
6.49749e-005
4.98547e-006
3.80404e-007
3.5861e-008
1.05587e-008
8.72857e-009
8.59929e-009
8.5911e-009
8.59109e-009
8.58968e-009
8.58971e-009
8.59072e-009
1.80265
1.35808
1.03711
0.801178
0.624785
0.491191
0.388227
0.307523
0.243205
0.191106
0.148231
0.112422
0.0821386
0.0563126
0.0342854
0.0158096
0.0036855
0.000434191
3.65139e-005
2.8824e-006
2.31241e-007
2.62515e-008
1.0644e-008
9.46738e-009
9.37794e-009
9.37269e-009
9.36417e-009
9.36219e-009
9.3622e-009
1.75215
1.32661
1.01822
0.791212
0.621043
0.491183
0.390999
0.312395
0.249674
0.198805
0.1569
0.121863
0.0921746
0.066749
0.0448536
0.0260838
0.0103364
0.00196883
0.000205867
1.75253e-005
1.44525e-006
1.26932e-007
2.08539e-008
1.24416e-008
1.17621e-008
1.17022e-008
1.1667e-008
1.16547e-008
1.16547e-008
1.69587
1.28967
0.994339
0.776297
0.61266
0.48775
0.390575
0.314181
0.2532
0.203697
0.162873
0.128707
0.0997203
0.0748375
0.053301
0.0346234
0.0185961
0.00571459
0.000860753
8.45652e-005
7.48301e-006
6.58831e-007
7.22743e-008
2.26263e-008
1.84042e-008
1.79914e-008
1.78705e-008
1.78044e-008
1.77861e-008
1.6353
1.24867
0.96671
0.757965
0.600881
0.480786
0.387487
0.313603
0.254443
0.206401
0.166744
0.133514
0.105282
0.0810031
0.0599222
0.0415249
0.0255239
0.0118293
0.00268603
0.000334383
3.26468e-005
3.05309e-006
3.08044e-007
5.86952e-008
3.61868e-008
3.3886e-008
3.3454e-008
3.32055e-008
3.31203e-008
1.57167
1.20474
0.936383
0.737179
0.586891
0.471701
0.382025
0.311128
0.254013
0.207485
0.169027
0.136757
0.109302
0.0856503
0.0650622
0.0470158
0.0311809
0.0174147
0.00623442
0.00106651
0.000120447
1.22075e-005
1.25843e-006
1.8641e-007
8.30896e-008
7.23587e-008
7.08007e-008
6.99848e-008
6.94802e-008
1.50595
1.15877
0.904147
0.714647
0.571315
0.461179
0.375228
0.307113
0.2523
0.207369
0.170189
0.138917
0.112248
0.0892206
0.0691255
0.0514498
0.0358492
0.0221509
0.0103547
0.00260219
0.000363347
4.0889e-005
4.47967e-006
6.0968e-007
2.07093e-007
1.6306e-007
1.56858e-007
1.5442e-007
1.52981e-007
1.43877
1.11138
0.870573
0.690889
0.554624
0.449642
0.367497
0.302228
0.249574
0.206453
0.170494
0.14022
0.114353
0.0919658
0.0723763
0.0550865
0.039752
0.0261725
0.0142463
0.00498922
0.000925853
0.000119164
1.41982e-005
1.92342e-006
5.3608e-007
3.76219e-007
3.53669e-007
3.45093e-007
3.40044e-007
1.37064
1.06301
0.836068
0.666271
0.537151
0.437397
0.359122
0.29675
0.246286
0.204835
0.17027
0.141032
0.115971
0.0942164
0.0751216
0.0582085
0.0431382
0.0296956
0.0177705
0.00767519
0.001859
0.000288302
3.86447e-005
5.55826e-006
1.40071e-006
8.78312e-007
8.01825e-007
7.79245e-007
7.68355e-007
1.30194
1.014
0.800925
0.641051
0.519126
0.424653
0.350299
0.290868
0.242636
0.202902
0.169685
0.141485
0.117237
0.0961243
0.0775332
0.0610071
0.0462175
0.0329457
0.0210809
0.0106306
0.00339183
0.000650556
9.73875e-005
1.49547e-005
3.6968e-006
2.17507e-006
1.90022e-006
1.79826e-006
1.75853e-006
1.23305
0.964637
0.76537
0.615411
0.500701
0.411542
0.341145
0.284692
0.238722
0.200719
0.168836
0.141696
0.11828
0.0978189
0.0797357
0.0635983
0.0490913
0.0359985
0.0242013
0.0136239
0.00525136
0.00124366
0.00021725
3.70246e-005
9.21527e-006
5.29928e-006
4.96621e-006
4.77807e-006
4.45198e-006
1.16428
0.915163
0.729586
0.589493
0.481988
0.398157
0.331743
0.278299
0.234623
0.198385
0.16787
0.141804
0.11923
0.0994331
0.0818698
0.0661329
0.0519216
0.0390252
0.0273179
0.0167131
0.00763893
0.00220232
0.000446342
8.37156e-005
2.18348e-005
1.22098e-005
1.04744e-005
1.0403e-005
1.06342e-005
1.09594
0.865787
0.693719
0.563396
0.463057
0.384545
0.322126
0.271714
0.230361
0.195919
0.1668
0.14182
0.120121
0.10101
0.0839847
0.0686645
0.0547661
0.042087
0.0304971
0.0199142
0.0104244
0.00371271
0.000897347
0.000182832
4.5446e-005
2.28638e-005
1.84284e-005
1.73754e-005
1.67443e-005
1.02833
0.816712
0.657902
0.537206
0.443956
0.370732
0.312303
0.264935
0.225928
0.193308
0.165617
0.141767
0.120955
0.102554
0.0860903
0.0712085
0.0576427
0.0452006
0.0337551
0.0232339
0.0135913
0.00574251
0.00164761
0.00037643
9.13863e-005
3.56247e-005
2.62168e-005
2.42879e-005
2.37005e-005
0.961751
0.768143
0.622267
0.511005
0.424731
0.356737
0.302276
0.257954
0.221308
0.190536
0.164305
0.14162
0.121726
0.10406
0.0881854
0.0737694
0.0605628
0.0483831
0.0371047
0.0266548
0.0169951
0.00847506
0.00288814
0.000742053
0.000182686
5.89548e-005
3.43522e-005
3.0265e-005
2.92484e-005
0.896512
0.720282
0.58695
0.484875
0.40543
0.342581
0.292048
0.250758
0.216481
0.187577
0.162833
0.141339
0.122405
0.105511
0.0902578
0.0763399
0.0635258
0.0516433
0.0405712
0.0302331
0.0205661
0.0116944
0.0048702
0.00143691
0.000369158
0.000106569
4.78143e-005
3.62534e-005
3.4163e-005
0.832889
0.673323
0.552078
0.4589
0.386101
0.328288
0.281622
0.24334
0.211429
0.184407
0.161172
0.140898
0.122959
0.106876
0.0922839
0.0789023
0.0665177
0.0549704
0.0441459
0.0339707
0.0243963
0.0153507
0.00754661
0.00268717
0.000751257
0.000208436
7.54655e-005
4.4831e-005
3.91879e-005
0.771138
0.627447
0.517778
0.433161
0.366794
0.313883
0.271006
0.235691
0.206132
0.180997
0.159291
0.140266
0.123353
0.108117
0.094226
0.0814218
0.0695083
0.0583373
0.0478013
0.0378302
0.0283842
0.0194245
0.0110233
0.00466089
0.00149082
0.000426512
0.00013547
6.22935e-005
4.48387e-005
0.711485
0.582819
0.484166
0.40774
0.347558
0.299391
0.260206
0.227803
0.200572
0.177319
0.157152
0.139394
0.123523
0.109181
0.0960353
0.0838523
0.0724532
0.0617019
0.0514985
0.0417754
0.0324947
0.0236312
0.015187
0.00765139
0.00284994
0.000882488
0.000268882
0.000100606
5.64129e-005
0.654125
0.539587
0.451351
0.382712
0.328446
0.284844
0.249235
0.219674
0.194731
0.173346
0.154717
0.138238
0.123441
0.110013
0.097647
0.0861272
0.0752887
0.0650057
0.0551846
0.0457608
0.0366962
0.027974
0.0195625
0.0116381
0.00522288
0.00180022
0.000563776
0.000187977
8.20549e-005
0.599223
0.497881
0.419435
0.358154
0.309511
0.270276
0.23811
0.211306
0.188604
0.169062
0.151971
0.136793
0.123118
0.110614
0.0990473
0.0882186
0.0779756
0.0682014
0.0588081
0.0497334
0.0409383
0.0324058
0.0241251
0.0160782
0.00876068
0.00355023
0.00119076
0.000387466
0.000141295
0.546911
0.457816
0.388509
0.334137
0.290807
0.255723
0.226854
0.202711
0.182188
0.164456
0.148889
0.13501
0.12245
0.110894
0.100171
0.0900749
0.0804694
0.0712476
0.062328
0.0536515
0.0451789
0.0368905
0.0287802
0.0208502
0.0131241
0.00650987
0.00245926
0.000829727
0.000279593
0.497292
0.419486
0.358657
0.310731
0.272386
0.241225
0.215494
0.193901
0.175483
0.159516
0.145448
0.132854
0.1214
0.110815
0.100963
0.0916376
0.0827127
0.0740903
0.0656946
0.0574694
0.0493757
0.0413912
0.0335073
0.0257333
0.0180737
0.0106806
0.00483743
0.00177721
0.000596884
0.450443
0.382972
0.329954
0.288001
0.254305
0.226824
0.204058
0.184894
0.168499
0.154242
0.14164
0.130321
0.119992
0.110433
0.101442
0.0928996
0.0846823
0.0766963
0.0688686
0.0611443
0.0534841
0.0458631
0.0382694
0.030705
0.0231914
0.0157383
0.00869586
0.00366268
0.00130509
0.406416
0.348341
0.302466
0.266009
0.236616
0.212565
0.192581
0.175713
0.161246
0.148633
0.137456
0.127388
0.118173
0.109608
0.101475
0.0937694
0.0863063
0.0790025
0.0717912
0.0646198
0.0574486
0.0502508
0.0430113
0.0357262
0.0284078
0.0210852
0.0137821
0.00712802
0.00281329
0.365241
0.315642
0.276254
0.244815
0.219375
0.198494
0.1811
0.166385
0.15374
0.142696
0.132891
0.12404
0.115918
0.108343
0.101164
0.0942599
0.0875633
0.0809703
0.074415
0.067844
0.0612157
0.0544996
0.0476768
0.040739
0.0336889
0.0265499
0.0193394
0.0121785
0.00573383
0.326925
0.284914
0.251367
0.224473
0.202634
0.18466
0.169656
0.156943
0.146005
0.136444
0.127947
0.12027
0.113214
0.106621
0.100366
0.0942531
0.088365
0.0825257
0.0766729
0.0707541
0.0647256
0.058553
0.0522119
0.0456888
0.0389803
0.0320987
0.0250471
0.0179686
0.0105727
0.291452
0.256177
0.227847
0.205035
0.186448
0.171115
0.158295
0.147425
0.138072
0.129897
0.122636
0.116077
0.110048
0.104411
0.0990471
0.093849
0.0887035
0.0836339
0.0785159
0.0732942
0.0679208
0.0623552
0.0565654
0.0505293
0.0442363
0.0376901
0.0308776
0.0239359
0.0166373
0.258786
0.229437
0.205724
0.186543
0.170866
0.157908
0.147067
0.137876
0.129976
0.123084
0.116976
0.111471
0.106421
0.101705
0.0972195
0.092883
0.0885392
0.0842441
0.0798861
0.0754022
0.0707377
0.0658444
0.0606809
0.0552135
0.0494197
0.0432914
0.0368134
0.0300365
0.0230706
0.228863
0.20468
0.185015
0.169033
0.155933
0.145092
0.136023
0.128345
0.121764
0.116044
0.110998
0.106472
0.102341
0.0984998
0.0948575
0.0913365
0.0878612
0.0842722
0.0807104
0.0770055
0.0731028
0.0689484
0.0644908
0.0596832
0.0544867
0.0488749
0.0428289
0.0363265
0.0295957
0.201596
0.181872
0.165721
0.15253
0.141691
0.132715
0.125216
0.118886
0.113487
0.108824
0.104742
0.101114
0.0978327
0.0948085
0.0919635
0.0892284
0.08654
0.0838102
0.080952
0.0780457
0.0749445
0.0715884
0.0679159
0.0638652
0.0593778
0.0544027
0.048903
0.0428192
0.0363024
0.176879
0.160963
0.147829
0.13705
0.128172
0.120822
0.114698
0.109555
0.105201
0.101478
0.0982597
0.09544
0.092931
0.0906572
0.0885524
0.0865574
0.0846178
0.082687
0.0806294
0.0784622
0.076188
0.0736784
0.0708637
0.0676682
0.0640122
0.0598151
0.0550069
0.0495012
0.0433225
0.15458
0.141882
0.131314
0.122594
0.1154
0.109453
0.104519
0.100408
0.0969666
0.0940682
0.0916102
0.0895071
0.0876871
0.0860883
0.0846563
0.0833419
0.0820992
0.0808853
0.0796521
0.0782491
0.0767614
0.0751293
0.0732314
0.0709825
0.0682832
0.0650209
0.0610841
0.0563464
0.0507187
0.134555
0.124545
0.116135
0.109155
0.103392
0.098642
0.094728
0.0915036
0.088848
0.0866617
0.0848629
0.0833834
0.0821661
0.0811617
0.080327
0.0796228
0.0790127
0.0784617
0.0779307
0.0773764
0.0766355
0.0758574
0.0749098
0.0736796
0.0720537
0.0698854
0.067027
0.0632928
0.0584897
0.116648
0.108857
0.102241
0.0967181
0.0921582
0.0884187
0.0853693
0.0828983
0.080912
0.0793328
0.0780966
0.0771501
0.0764493
0.0759565
0.0756378
0.0754657
0.0754112
0.0754532
0.0755604
0.0757077
0.0758266
0.0758126
0.0757867
0.0756185
0.0751646
0.07422
0.0726447
0.0701914
0.0665521
0.100697
0.0947154
0.0895755
0.0852595
0.0817032
0.0788115
0.07649
0.0746548
0.0732338
0.0721668
0.0714043
0.0709054
0.0706377
0.0705752
0.0706863
0.0709645
0.0713923
0.0719454
0.0726093
0.0733697
0.0742027
0.0750726
0.0758309
0.0766844
0.0774016
0.0777479
0.077607
0.0767681
0.0747079
0.0865402
0.0820168
0.0780798
0.0747574
0.0720351
0.0698538
0.0681464
0.0668492
0.0659055
0.065269
0.0649014
0.0647712
0.0648573
0.0651377
0.0656139
0.0662612
0.0670754
0.068047
0.0691718
0.0704472
0.0718699
0.0734513
0.0751162
0.076776
0.0786298
0.0803576
0.0818484
0.082579
0.0821787
0.0740279
0.0706647
0.0677022
0.0651978
0.0631743
0.0615976
0.0604185
0.0595855
0.0590504
0.0587776
0.058737
0.0588961
0.0592663
0.0598277
0.0605768
0.0615068
0.0626187
0.0639131
0.0653951
0.0670735
0.0689621
0.0710838
0.0734596
0.076022
0.0787402
0.0817354
0.0848517
0.0874548
0.0891618
0.0630271
0.0605785
0.0584082
0.0565892
0.0551702
0.0541314
0.0534299
0.0530163
0.0528396
0.0528771
0.0530885
0.0534868
0.0540639
0.0548206
0.0557615
0.0568893
0.0582103
0.0597325
0.0614676
0.0634338
0.0656559
0.0681732
0.0710345
0.0742722
0.0779161
0.0818051
0.0864328
0.0907781
0.095261
0.0534366
0.0517082
0.0501972
0.0489808
0.0481221
0.0476034
0.0473685
0.0473609
0.0475087
0.0478031
0.048214
0.0487624
0.0494624
0.0503295
0.0513778
0.0526189
0.0540636
0.0557262
0.0576203
0.059776
0.0622178
0.0650078
0.0681911
0.0718601
0.0761239
0.0809505
0.0867378
0.0924727
0.10001
0.0452024
0.0440501
0.0431196
0.0424807
0.0421957
0.0422348
0.042496
0.0429073
0.0433707
0.0438666
0.0443973
0.0450055
0.0457336
0.0466193
0.0476916
0.0489733
0.0504779
0.0522274
0.0542288
0.0565301
0.0591325
0.0621555
0.0655658
0.0696204
0.0742747
0.0797783
0.0867313
0.093405
0.104581
0.0383317
0.0376603
0.0372864
0.0372602
0.0376187
0.0383036
0.0391516
0.0400316
0.0408261
0.0415047
0.0420977
0.042687
0.0433587
0.0441862
0.0452234
0.0465154
0.0480794
0.049958
0.0521377
0.0547255
0.0576362
0.0611929
0.0650358
0.0700005
0.0750993
0.0817818
0.0895991
0.0976251
0.114157
0.0328885
0.0326443
0.0328473
0.0335083
0.0346448
0.0361142
0.0377064
0.0392228
0.0405017
0.0414835
0.0422143
0.0428247
0.0434664
0.0442786
0.0453668
0.0468298
0.0486956
0.051079
0.0539217
0.057526
0.0615621
0.0669861
0.0724205
0.0808082
0.0877914
0.100306
0.110344
0.126282
0.148412
0.0289481
0.0291009
0.0299237
0.0313832
0.0334497
0.0359282
0.0385498
0.0410618
0.043251
0.0450034
0.0463517
0.0474581
0.0485546
0.0498954
0.0517068
0.0542536
0.0576598
0.0622992
0.0680722
0.0758794
0.0848886
0.0977498
0.110854
0.132171
0.149628
0.184643
0.208675
0.266414
0.296691
0.0265184
0.0270403
0.0285398
0.030903
0.0340876
0.0378724
0.042
0.0461896
0.0501893
0.0538377
0.0571418
0.060289
0.0636083
0.0675271
0.0724991
0.0791001
0.0877026
0.0990987
0.113333
0.131984
0.154247
0.184034
0.217515
0.26543
0.314375
0.395144
0.468958
0.624766
0.716298
0.0255132
0.0263712
0.0286025
0.0319693
0.0364917
0.0419549
0.0481316
0.0547767
0.0616741
0.0686871
0.0758534
0.08342
0.091826
0.101682
0.113706
0.128784
0.147659
0.171489
0.200851
0.237737
0.282525
0.33927
0.407214
0.496431
0.602197
0.752063
0.933345
1.2152
1.4984
0.00099014
0.00099014
0.00099014
0.000990141
0.000990141
0.00099014
0.00099014
0.000990141
0.000990142
0.000990142
0.000990141
0.000990141
0.000990141
0.000990142
0.000990143
0.000990144
0.000990144
0.000990145
0.000990145
0.000990145
0.000990145
0.000990145
0.000990145
0.000990145
0.000990145
0.000990145
0.000990145
0.000990145
0.000990145
0.000990146
0.000990146
0.000990146
0.000990146
0.000990147
0.000990147
0.000990147
0.000990147
0.000990147
0.000990148
0.000990148
0.000990148
0.000990148
0.000990148
0.000990149
0.000990149
0.000990149
0.000990149
0.000990149
0.00099015
0.00099015
0.00099015
0.00099015
0.00099015
0.000990151
0.000990151
0.000990151
0.000990151
0.000990151
0.000990152
0.000990152
0.000990152
0.000990152
0.000990152
0.000990153
0.000990153
0.000990153
0.000990153
0.000990153
0.000990154
0.000990154
0.000990154
0.000990154
0.000990154
0.000990154
0.000990155
0.000990155
0.000990155
0.000990155
0.000990155
0.000990155
0.000990156
0.000990156
0.000990156
0.000990156
0.000990156
0.000990156
0.000990156
0.000990156
0.000990157
0.000990157
0.000990157
0.000990157
0.000990157
0.000990157
0.000990157
0.000990157
0.000990157
0.000990157
0.000990157
0.000990157
0.000990156
0.000990156
0.000990156
0.000990156
0.000990156
0.000990156
0.000990156
0.000990156
0.000990155
0.000990155
0.000990155
0.000990155
0.000990155
0.000990154
0.000990154
0.000990154
0.000990153
0.000990153
0.000990153
0.000990153
0.000990153
0.000990154
0.000990154
0.000990154
0.000990155
0.000990155
0.000990155
0.000990156
0.000990156
0.000990157
0.000990158
0.000990158
0.00099016
0.000990162
0.000990162
0.000990166
0.000990165
0.000990174
0.00100826
4.09891e-005
4.09892e-005
4.09897e-005
4.09905e-005
4.09908e-005
4.09905e-005
4.09907e-005
4.09915e-005
4.09924e-005
4.09926e-005
4.09922e-005
4.0992e-005
4.09927e-005
4.09941e-005
4.09953e-005
4.09961e-005
4.09968e-005
4.09973e-005
4.09978e-005
4.09981e-005
4.09983e-005
4.09984e-005
4.09983e-005
4.09983e-005
4.09983e-005
4.09985e-005
4.09988e-005
4.09991e-005
4.09995e-005
4.09999e-005
4.10004e-005
4.10008e-005
4.10012e-005
4.10015e-005
4.10019e-005
4.10022e-005
4.10026e-005
4.1003e-005
4.10033e-005
4.10037e-005
4.1004e-005
4.10044e-005
4.10047e-005
4.10051e-005
4.10054e-005
4.10057e-005
4.10061e-005
4.10064e-005
4.10067e-005
4.1007e-005
4.10074e-005
4.10077e-005
4.1008e-005
4.10084e-005
4.10087e-005
4.1009e-005
4.10094e-005
4.10098e-005
4.10101e-005
4.10105e-005
4.10108e-005
4.10112e-005
4.10115e-005
4.10118e-005
4.10121e-005
4.10124e-005
4.10127e-005
4.1013e-005
4.10133e-005
4.10136e-005
4.10139e-005
4.10142e-005
4.10145e-005
4.10147e-005
4.1015e-005
4.10153e-005
4.10155e-005
4.10158e-005
4.10161e-005
4.10163e-005
4.10166e-005
4.10168e-005
4.1017e-005
4.10172e-005
4.10174e-005
4.10176e-005
4.10178e-005
4.10179e-005
4.10181e-005
4.10182e-005
4.10184e-005
4.10185e-005
4.10186e-005
4.10186e-005
4.10186e-005
4.10186e-005
4.10186e-005
4.10185e-005
4.10185e-005
4.10183e-005
4.10182e-005
4.1018e-005
4.10179e-005
4.10177e-005
4.10175e-005
4.10173e-005
4.10171e-005
4.10169e-005
4.10166e-005
4.10163e-005
4.1016e-005
4.10158e-005
4.10155e-005
4.10151e-005
4.10145e-005
4.1014e-005
4.10134e-005
4.10129e-005
4.10128e-005
4.10129e-005
4.10133e-005
4.10136e-005
4.1014e-005
4.10145e-005
4.10148e-005
4.10154e-005
4.10155e-005
4.10163e-005
4.10167e-005
4.10174e-005
4.1019e-005
4.10198e-005
4.10214e-005
4.10263e-005
4.10238e-005
4.10297e-005
4.10628e-005
4.1054e-005
4.13381e-005
3.38024e-006
3.38055e-006
3.38079e-006
3.38096e-006
3.38114e-006
3.38137e-006
3.38159e-006
3.38174e-006
3.38184e-006
3.38197e-006
3.38215e-006
3.38237e-006
3.38253e-006
3.38263e-006
3.3827e-006
3.3828e-006
3.38292e-006
3.38304e-006
3.38317e-006
3.3833e-006
3.38345e-006
3.3836e-006
3.38376e-006
3.38393e-006
3.38411e-006
3.38428e-006
3.38443e-006
3.38458e-006
3.38473e-006
3.38486e-006
3.385e-006
3.38514e-006
3.38527e-006
3.38541e-006
3.38553e-006
3.38565e-006
3.38577e-006
3.38589e-006
3.38601e-006
3.38613e-006
3.38626e-006
3.38638e-006
3.38651e-006
3.38664e-006
3.38676e-006
3.38689e-006
3.38701e-006
3.38714e-006
3.38726e-006
3.38738e-006
3.3875e-006
3.38763e-006
3.38775e-006
3.38786e-006
3.38798e-006
3.3881e-006
3.38821e-006
3.38832e-006
3.38842e-006
3.38853e-006
3.38863e-006
3.38872e-006
3.38882e-006
3.38891e-006
3.38901e-006
3.38911e-006
3.3892e-006
3.38929e-006
3.38938e-006
3.38947e-006
3.38956e-006
3.38964e-006
3.38973e-006
3.38981e-006
3.38989e-006
3.38996e-006
3.39003e-006
3.3901e-006
3.39016e-006
3.39022e-006
3.39028e-006
3.39034e-006
3.39039e-006
3.39045e-006
3.3905e-006
3.39055e-006
3.39059e-006
3.39063e-006
3.39069e-006
3.39076e-006
3.39082e-006
3.39088e-006
3.39094e-006
3.39098e-006
3.39102e-006
3.39106e-006
3.39108e-006
3.3911e-006
3.39112e-006
3.39112e-006
3.39112e-006
3.39111e-006
3.3911e-006
3.39108e-006
3.39105e-006
3.39101e-006
3.39096e-006
3.3909e-006
3.39084e-006
3.39076e-006
3.39067e-006
3.39057e-006
3.39048e-006
3.39036e-006
3.39023e-006
3.3901e-006
3.38998e-006
3.3899e-006
3.38985e-006
3.38981e-006
3.38977e-006
3.38973e-006
3.3896e-006
3.38958e-006
3.38939e-006
3.38937e-006
3.38925e-006
3.38909e-006
3.38908e-006
3.3891e-006
3.38897e-006
3.38957e-006
3.38887e-006
3.3894e-006
3.39315e-006
3.39838e-006
2.9957e-006
3.13504e-006
4.42299e-005
5.32892e-007
5.32967e-007
5.33035e-007
5.33112e-007
5.33179e-007
5.33227e-007
5.33272e-007
5.33328e-007
5.33402e-007
5.33461e-007
5.33503e-007
5.33534e-007
5.33579e-007
5.33645e-007
5.33721e-007
5.33787e-007
5.33845e-007
5.33901e-007
5.33955e-007
5.34007e-007
5.34058e-007
5.34107e-007
5.34153e-007
5.34198e-007
5.34242e-007
5.34288e-007
5.34338e-007
5.34391e-007
5.34446e-007
5.34502e-007
5.34559e-007
5.34616e-007
5.34673e-007
5.34731e-007
5.34787e-007
5.34841e-007
5.34893e-007
5.34946e-007
5.34998e-007
5.35049e-007
5.35101e-007
5.35153e-007
5.35205e-007
5.35256e-007
5.35307e-007
5.35358e-007
5.35408e-007
5.35458e-007
5.35507e-007
5.35555e-007
5.35603e-007
5.3565e-007
5.35696e-007
5.35741e-007
5.35786e-007
5.3583e-007
5.35873e-007
5.35915e-007
5.35957e-007
5.35999e-007
5.36041e-007
5.36083e-007
5.36124e-007
5.36165e-007
5.36206e-007
5.36246e-007
5.36285e-007
5.36324e-007
5.36362e-007
5.36399e-007
5.36435e-007
5.36471e-007
5.36505e-007
5.3654e-007
5.36573e-007
5.36605e-007
5.36636e-007
5.36666e-007
5.36695e-007
5.36723e-007
5.36751e-007
5.36777e-007
5.36802e-007
5.36825e-007
5.36848e-007
5.36869e-007
5.36888e-007
5.36906e-007
5.36925e-007
5.36948e-007
5.3697e-007
5.36992e-007
5.37014e-007
5.37034e-007
5.37053e-007
5.3707e-007
5.37086e-007
5.371e-007
5.37112e-007
5.37122e-007
5.3713e-007
5.37135e-007
5.37137e-007
5.37137e-007
5.37134e-007
5.37127e-007
5.37118e-007
5.37106e-007
5.3709e-007
5.37071e-007
5.37044e-007
5.37012e-007
5.36978e-007
5.3694e-007
5.36896e-007
5.36848e-007
5.36803e-007
5.36761e-007
5.36722e-007
5.36683e-007
5.36638e-007
5.36592e-007
5.36518e-007
5.36475e-007
5.3638e-007
5.3632e-007
5.3624e-007
5.36174e-007
5.36033e-007
5.36129e-007
5.36389e-007
5.34425e-007
5.3611e-007
5.42447e-007
5.15475e-007
4.75762e-007
3.46627e-006
0.000447385
0.0255771
1.46184e-007
1.46215e-007
1.46243e-007
1.46263e-007
1.46282e-007
1.46306e-007
1.46336e-007
1.46357e-007
1.46375e-007
1.46389e-007
1.46411e-007
1.46442e-007
1.46466e-007
1.46488e-007
1.46507e-007
1.46526e-007
1.46547e-007
1.46568e-007
1.46591e-007
1.46613e-007
1.46637e-007
1.46661e-007
1.46687e-007
1.46714e-007
1.46743e-007
1.46772e-007
1.468e-007
1.46828e-007
1.46856e-007
1.46883e-007
1.46911e-007
1.46939e-007
1.46967e-007
1.46995e-007
1.47024e-007
1.47052e-007
1.4708e-007
1.47108e-007
1.47137e-007
1.47165e-007
1.47193e-007
1.47221e-007
1.47249e-007
1.47276e-007
1.47303e-007
1.4733e-007
1.47357e-007
1.47384e-007
1.4741e-007
1.47436e-007
1.47462e-007
1.47487e-007
1.47512e-007
1.47537e-007
1.47562e-007
1.47586e-007
1.4761e-007
1.47634e-007
1.47657e-007
1.4768e-007
1.47704e-007
1.47728e-007
1.47751e-007
1.47774e-007
1.47796e-007
1.47819e-007
1.4784e-007
1.47862e-007
1.47883e-007
1.47903e-007
1.47924e-007
1.47943e-007
1.47963e-007
1.47982e-007
1.48e-007
1.48018e-007
1.48036e-007
1.48053e-007
1.4807e-007
1.48087e-007
1.48102e-007
1.48117e-007
1.48132e-007
1.48146e-007
1.4816e-007
1.48172e-007
1.48185e-007
1.48196e-007
1.48207e-007
1.48218e-007
1.48228e-007
1.48239e-007
1.48249e-007
1.48259e-007
1.48268e-007
1.48277e-007
1.48285e-007
1.48293e-007
1.483e-007
1.48306e-007
1.48312e-007
1.48316e-007
1.48319e-007
1.48322e-007
1.48323e-007
1.48322e-007
1.48321e-007
1.48318e-007
1.48314e-007
1.48308e-007
1.48299e-007
1.48287e-007
1.48273e-007
1.48255e-007
1.48236e-007
1.48214e-007
1.48191e-007
1.48168e-007
1.48145e-007
1.48122e-007
1.48096e-007
1.48067e-007
1.48032e-007
1.47999e-007
1.47953e-007
1.4791e-007
1.47858e-007
1.47811e-007
1.4779e-007
1.47747e-007
1.46277e-007
1.51935e-007
1.48264e-007
1.24954e-007
1.99857e-007
4.61171e-006
0.00042662
0.0180135
0.184541
6.0353e-008
6.03664e-008
6.03769e-008
6.03891e-008
6.04034e-008
6.04141e-008
6.04228e-008
6.04318e-008
6.04452e-008
6.04607e-008
6.04719e-008
6.04818e-008
6.04896e-008
6.05014e-008
6.05171e-008
6.05326e-008
6.05467e-008
6.0561e-008
6.05754e-008
6.05897e-008
6.06046e-008
6.062e-008
6.06356e-008
6.06512e-008
6.06662e-008
6.06808e-008
6.06961e-008
6.07119e-008
6.07284e-008
6.07453e-008
6.07625e-008
6.07798e-008
6.07972e-008
6.08145e-008
6.08319e-008
6.08494e-008
6.08671e-008
6.08848e-008
6.09025e-008
6.092e-008
6.09376e-008
6.09552e-008
6.09727e-008
6.09901e-008
6.10074e-008
6.10246e-008
6.10418e-008
6.10588e-008
6.10757e-008
6.10925e-008
6.11092e-008
6.11257e-008
6.11421e-008
6.11584e-008
6.11746e-008
6.11906e-008
6.12065e-008
6.12223e-008
6.12379e-008
6.12535e-008
6.12691e-008
6.12845e-008
6.12997e-008
6.13147e-008
6.13294e-008
6.13438e-008
6.13581e-008
6.1372e-008
6.13856e-008
6.13991e-008
6.14122e-008
6.14251e-008
6.14378e-008
6.14502e-008
6.14623e-008
6.14742e-008
6.14858e-008
6.14972e-008
6.15082e-008
6.15191e-008
6.15296e-008
6.15398e-008
6.15498e-008
6.15593e-008
6.15686e-008
6.15776e-008
6.15862e-008
6.15946e-008
6.16024e-008
6.16094e-008
6.16161e-008
6.16225e-008
6.16287e-008
6.16346e-008
6.16403e-008
6.16456e-008
6.16505e-008
6.16552e-008
6.16594e-008
6.16632e-008
6.16666e-008
6.16694e-008
6.16717e-008
6.16734e-008
6.16746e-008
6.16751e-008
6.1675e-008
6.1674e-008
6.16722e-008
6.16695e-008
6.16661e-008
6.1661e-008
6.16537e-008
6.16448e-008
6.16346e-008
6.16231e-008
6.16105e-008
6.15971e-008
6.15839e-008
6.15703e-008
6.15554e-008
6.15387e-008
6.15197e-008
6.14992e-008
6.14753e-008
6.14493e-008
6.14249e-008
6.13901e-008
6.13032e-008
6.07501e-008
6.48043e-008
5.39814e-008
5.81149e-008
2.7269e-007
1.33009e-005
0.000763644
0.019359
0.15267
0.577803
3.34471e-008
3.34542e-008
3.34605e-008
3.34658e-008
3.34709e-008
3.34757e-008
3.34831e-008
3.34916e-008
3.34982e-008
3.35034e-008
3.35085e-008
3.35161e-008
3.35259e-008
3.3534e-008
3.35419e-008
3.35486e-008
3.3556e-008
3.35634e-008
3.35712e-008
3.358e-008
3.35893e-008
3.35982e-008
3.36068e-008
3.36152e-008
3.36237e-008
3.36329e-008
3.36426e-008
3.36522e-008
3.36617e-008
3.36713e-008
3.3681e-008
3.36907e-008
3.37005e-008
3.37105e-008
3.37207e-008
3.3731e-008
3.37412e-008
3.37516e-008
3.3762e-008
3.37723e-008
3.37826e-008
3.37928e-008
3.3803e-008
3.38132e-008
3.38233e-008
3.38334e-008
3.38436e-008
3.38536e-008
3.38637e-008
3.38736e-008
3.38835e-008
3.38934e-008
3.39032e-008
3.39129e-008
3.39227e-008
3.39323e-008
3.39418e-008
3.39512e-008