/*--------------------------------*- C++ -*----------------------------------*\
| =========                 |                                                 |
| \\      /  F ield         | OpenFOAM: The Open Source CFD Toolbox           |
|  \\    /   O peration     | Version:  5.x                                   |
|   \\  /    A nd           | Web:      www.OpenFOAM.org                      |
|    \\/     M anipulation  |                                                 |
\*---------------------------------------------------------------------------*/
/*   Windows 32 and 64 bit porting by blueCAPE: http://www.bluecape.com.pt   *\
|  Based on Windows porting (2.0.x v4) by Symscape: http://www.symscape.com   |
\*---------------------------------------------------------------------------*/
FoamFile
{
    version     2.0;
    format      ascii;
    class       volScalarField;
    location    "210";
    object      nut;
}
// * * * * * * * * * * * * * * * * * * * * * * * * * * * * * * * * * * * * * //

dimensions      [0 2 -1 0 0 0 0];

internalField   nonuniform List<scalar> 
43900
(
5.7159e-005
5.80014e-005
5.80695e-005
5.80644e-005
5.80596e-005
5.80587e-005
5.80589e-005
5.80586e-005
5.80588e-005
5.80591e-005
5.80592e-005
5.80594e-005
5.80595e-005
5.80596e-005
5.80597e-005
5.80599e-005
5.806e-005
5.80601e-005
5.80602e-005
5.80602e-005
5.80603e-005
5.80603e-005
5.80603e-005
5.80604e-005
5.80604e-005
5.80604e-005
5.80604e-005
5.80604e-005
5.80604e-005
0.000589482
7.36745e-006
4.30776e-006
4.16071e-006
4.58068e-006
4.60652e-006
4.60911e-006
4.60315e-006
4.60327e-006
4.60386e-006
4.60426e-006
4.60471e-006
4.60502e-006
4.60536e-006
4.60571e-006
4.60604e-006
4.60629e-006
4.60658e-006
4.60677e-006
4.60691e-006
4.60708e-006
4.60717e-006
4.60726e-006
4.60737e-006
4.60742e-006
4.60749e-006
4.60757e-006
4.60759e-006
4.60763e-006
0.153292
0.045496
0.00518349
0.000107045
1.29974e-006
6.44503e-007
6.01708e-007
7.14415e-007
7.25256e-007
7.22847e-007
7.21474e-007
7.2173e-007
7.22196e-007
7.22408e-007
7.22565e-007
7.22743e-007
7.22915e-007
7.23057e-007
7.23176e-007
7.23282e-007
7.23368e-007
7.23454e-007
7.23532e-007
7.23596e-007
7.23663e-007
7.23721e-007
7.2377e-007
7.23824e-007
7.2386e-007
0.475365
0.291215
0.133605
0.0384614
0.00458829
0.00017437
4.10433e-006
2.5274e-007
1.72174e-007
1.9765e-007
2.14663e-007
2.1412e-007
2.11619e-007
2.1191e-007
2.12488e-007
2.12488e-007
2.12479e-007
2.12534e-007
2.12589e-007
2.12635e-007
2.12681e-007
2.12723e-007
2.12761e-007
2.12797e-007
2.12829e-007
2.12859e-007
2.12888e-007
2.12913e-007
2.12934e-007
0.757645
0.582171
0.414523
0.249421
0.106788
0.0264808
0.00261213
0.000120588
2.78335e-006
1.88938e-007
8.84789e-008
9.1474e-008
1.06913e-007
1.05206e-007
1.0228e-007
1.02994e-007
1.0356e-007
1.03573e-007
1.03579e-007
1.03601e-007
1.03624e-007
1.03649e-007
1.03671e-007
1.03688e-007
1.03708e-007
1.03726e-007
1.0374e-007
1.03757e-007
1.0377e-007
0.964303
0.796037
0.639504
0.487499
0.335368
0.182473
0.0648577
0.0112477
0.000790958
3.68798e-005
9.91778e-007
1.16046e-007
5.93541e-008
6.5807e-008
7.53723e-008
7.13441e-008
6.94641e-008
6.98443e-008
7.00041e-008
7.00149e-008
7.00275e-008
7.00436e-008
7.0056e-008
7.00687e-008
7.00798e-008
7.00905e-008
7.01022e-008
7.01129e-008
7.01205e-008
1.12714
0.964488
0.815869
0.675008
0.536914
0.397942
0.252987
0.11061
0.0276392
0.00285455
0.000160556
7.55021e-006
2.83937e-007
6.83067e-008
4.57149e-008
5.80724e-008
6.08289e-008
5.85031e-008
5.82494e-008
5.83973e-008
5.84422e-008
5.84535e-008
5.84634e-008
5.84703e-008
5.84812e-008
5.84962e-008
5.85033e-008
5.85083e-008
5.85138e-008
1.23881
1.08076
0.937982
0.8049
0.676874
0.550116
0.421799
0.291778
0.155382
0.0481232
0.00655201
0.000416427
2.17044e-005
9.64315e-007
9.93802e-008
5.02494e-008
4.95377e-008
5.71958e-008
5.60162e-008
5.50337e-008
5.4924e-008
5.49289e-008
5.49359e-008
5.49407e-008
5.49499e-008
5.4955e-008
5.49617e-008
5.49731e-008
5.49792e-008
1.33581
1.1809
1.04178
0.913413
0.791581
0.672782
0.55419
0.433694
0.309361
0.180819
0.0628796
0.0101887
0.000745497
4.28855e-005
2.33838e-006
1.36434e-007
5.33952e-008
3.98238e-008
4.59562e-008
4.85675e-008
4.86497e-008
4.86127e-008
4.86188e-008
4.86364e-008
4.86358e-008
4.863e-008
4.86411e-008
4.8663e-008
4.86765e-008
1.39584
1.24688
1.1134
0.991251
0.876451
0.765651
0.656063
0.545416
0.431908
0.314334
0.192971
0.0711114
0.012585
0.00101395
6.31757e-005
3.7793e-006
2.2915e-007
6.1568e-008
3.92522e-008
3.83591e-008
3.94897e-008
3.98181e-008
3.98606e-008
3.98792e-008
3.98851e-008
3.98919e-008
3.99026e-008
3.9921e-008
3.99306e-008
1.43955
1.29324
1.16424
1.04696
0.937903
0.833855
0.732071
0.630256
0.526559
0.419603
0.30863
0.194138
0.0728936
0.0132875
0.0011433
7.69453e-005
5.0126e-006
3.35118e-007
5.9846e-008
4.37727e-008
3.85998e-008
3.8211e-008
3.82191e-008
3.82202e-008
3.82153e-008
3.82151e-008
3.82237e-008
3.82271e-008
3.82324e-008
1.47576
1.33241
1.20621
1.0924
0.987322
0.888118
0.792171
0.697239
0.601454
0.503345
0.401868
0.296508
0.187691
0.0695342
0.0124797
0.00111656
8.06484e-005
5.64997e-006
4.03399e-007
6.4591e-008
4.91897e-008
4.61579e-008
4.56489e-008
4.55909e-008
4.5577e-008
4.55614e-008
4.55455e-008
4.55374e-008
4.55439e-008
1.50098
1.36066
1.23673
1.12668
1.02552
0.930506
0.839426
0.750138
0.660828
0.570011
0.476543
0.379647
0.278966
0.174826
0.061744
0.0104052
0.000937957
7.12245e-005
5.26141e-006
4.02273e-007
7.18471e-008
5.36482e-008
5.2853e-008
5.27406e-008
5.27379e-008
5.27337e-008
5.27262e-008
5.27232e-008
5.27296e-008
1.51575
1.37964
1.25884
1.1503
1.05301
0.962153
0.875311
0.790827
0.706962
0.622257
0.53554
0.445929
0.352839
0.255984
0.155479
0.0500764
0.00754198
0.000668631
5.24751e-005
4.02181e-006
3.34051e-007
7.4616e-008
5.78909e-008
5.69336e-008
5.68697e-008
5.68688e-008
5.68517e-008
5.68521e-008
5.68572e-008
1.52152
1.38888
1.27239
1.16743
1.07119
0.983896
0.901351
0.821079
0.741919
0.662448
0.58149
0.498121
0.411657
0.321623
0.227656
0.129087
0.0356507
0.00461001
0.000399602
3.20503e-005
2.55028e-006
2.45268e-007
7.88675e-008
6.72007e-008
6.63e-008
6.62321e-008
6.61409e-008
6.61126e-008
6.61117e-008
1.51989
1.39079
1.27755
1.17673
1.08467
0.998341
0.918862
0.842914
0.767785
0.692733
0.616615
0.538506
0.457688
0.373631
0.285936
0.194118
0.0954245
0.0209867
0.0023278
0.000201871
1.67986e-005
1.43215e-006
1.94026e-007
1.01046e-007
9.37575e-008
9.30775e-008
9.26945e-008
9.25132e-008
9.25103e-008
1.51226
1.38676
1.27678
1.17903
1.09076
1.00912
0.930903
0.857326
0.78628
0.714976
0.642964
0.569339
0.493382
0.414537
0.332375
0.246487
0.156145
0.0587736
0.00980586
0.000993647
8.89987e-005
7.86244e-006
8.18437e-007
2.23992e-007
1.74521e-007
1.69441e-007
1.68019e-007
1.67072e-007
1.66731e-007
1.49995
1.37812
1.27142
1.17665
1.09115
1.01265
0.93902
0.86727
0.798306
0.730816
0.662343
0.592533
0.520684
0.446254
0.368824
0.288048
0.203466
0.11267
0.0297807
0.00396191
0.000394595
3.72931e-005
3.76321e-006
6.89586e-007
4.10978e-007
3.81017e-007
3.75673e-007
3.71689e-007
3.69774e-007
1.48405
1.36598
1.26262
1.17087
1.08817
1.0123
0.941364
0.873725
0.80687
0.74155
0.676365
0.609844
0.541536
0.470894
0.3975
0.321021
0.241096
0.156918
0.0673311
0.0127356
0.00148364
0.000152031
1.58262e-005
2.38247e-006
1.07838e-006
9.36037e-007
9.15335e-007
9.0332e-007
8.93446e-007
1.46543
1.35121
1.25125
1.16256
1.08265
1.00941
0.940997
0.875856
0.812617
0.74918
0.686763
0.623048
0.557714
0.490248
0.420251
0.347404
0.271411
0.191855
0.105872
0.030779
0.00452916
0.000517024
5.72359e-005
8.02466e-006
2.89525e-006
2.31677e-006
2.23079e-006
2.19722e-006
2.16742e-006
1.44475
1.33448
1.238
1.15242
1.07531
1.00465
0.938679
0.875892
0.815002
0.754917
0.693819
0.632853
0.570182
0.505535
0.438521
0.368833
0.296205
0.220273
0.1393
0.0568672
0.0115093
0.00151867
0.000183166
2.55772e-005
7.73861e-006
5.65808e-006
5.33722e-006
5.22269e-006
5.13296e-006
1.4225
1.31628
1.22337
1.14095
1.0667
0.998623
0.935051
0.874538
0.815849
0.757923
0.699839
0.640956
0.580633
0.518437
0.453996
0.387012
0.317232
0.244325
0.167414
0.0844771
0.022922
0.00368777
0.000501209
7.41385e-005
2.03897e-005
1.36449e-005
1.25682e-005
1.22326e-005
1.20313e-005
1.39903
1.29697
1.20772
1.12854
1.05718
0.991729
0.930564
0.872308
0.815792
0.760034
0.70422
0.647349
0.589307
0.529464
0.467461
0.403011
0.335873
0.265764
0.192172
0.112096
0.0404666
0.00825291
0.00126319
0.000199766
5.37257e-005
3.41292e-005
3.04048e-005
2.88842e-005
2.81873e-005
1.37457
1.27678
1.19128
1.11542
1.04702
0.984237
0.925506
0.869508
0.815128
0.761424
0.707602
0.652978
0.597063
0.539418
0.479692
0.417603
0.352914
0.285374
0.214584
0.138338
0.0610482
0.0156576
0.00281351
0.000494644
0.0001341
8.38732e-005
7.83e-005
7.50261e-005
7.1096e-005
1.34928
1.25586
1.17421
1.10175
1.03638
0.976317
0.92007
0.866369
0.814152
0.762529
0.710755
0.658217
0.604402
0.548908
0.491402
0.431608
0.369292
0.304223
0.236053
0.163426
0.0854045
0.0271677
0.00573716
0.00111202
0.000318063
0.000197061
0.000176834
0.000175209
0.000175541
1.32327
1.23431
1.15657
1.08759
1.02531
0.968043
0.914337
0.862985
0.812976
0.763466
0.713743
0.663175
0.611535
0.558215
0.502917
0.445394
0.385427
0.322796
0.257179
0.1878
0.111872
0.0443229
0.0113811
0.00240171
0.000645529
0.00036547
0.000307801
0.000294555
0.000285675
1.2966
1.21215
1.13841
1.07295
1.01384
0.95942
0.908313
0.859364
0.811612
0.764258
0.716632
0.668188
0.618613
0.567449
0.51437
0.459122
0.401493
0.341281
0.278223
0.21179
0.139644
0.0664287
0.0205346
0.00486977
0.00125494
0.000551056
0.000435557
0.000410614
0.00040124
1.26928
1.18941
1.1197
1.05784
1.00193
0.950415
0.901962
0.855472
0.810037
0.764903
0.719457
0.673218
0.625766
0.576723
0.525864
0.472904
0.417624
0.359823
0.299266
0.235602
0.167321
0.0937141
0.0350277
0.00942064
0.00242278
0.000857521
0.000558922
0.00051076
0.000497312
1.24133
1.16607
1.10044
1.0422
0.989543
0.940972
0.895222
0.851247
0.808188
0.765342
0.722141
0.678144
0.633003
0.586114
0.537463
0.486806
0.433912
0.378569
0.320556
0.259535
0.194702
0.123641
0.0566999
0.017829
0.00475651
0.00146484
0.00073315
0.000603641
0.000578448
1.21276
1.14211
1.08057
1.02597
0.976599
0.931011
0.888007
0.846599
0.805975
0.765476
0.724573
0.682834
0.639878
0.595393
0.5491
0.500815
0.450351
0.397519
0.342116
0.283861
0.2222
0.15512
0.084531
0.032368
0.00943467
0.00274449
0.00108723
0.000716203
0.000657863
1.18353
1.11749
1.06004
1.0091
0.963016
0.920434
0.880212
0.841413
0.803276
0.765183
0.726634
0.687213
0.646541
0.604466
0.560615
0.514793
0.466832
0.416564
0.363812
0.308348
0.249797
0.187002
0.117909
0.0544184
0.0182707
0.00542792
0.00183965
0.00093934
0.000732808
1.15361
1.09216
1.03878
0.991477
0.948691
0.909127
0.871708
0.835553
0.799946
0.764308
0.728162
0.691102
0.652725
0.613152
0.571836
0.528575
0.483201
0.435558
0.385489
0.332809
0.277231
0.218165
0.15368
0.0855415
0.0340642
0.0109121
0.00347561
0.00141345
0.000879264
1.12296
1.06604
1.0167
0.973015
0.933509
0.896961
0.862356
0.828866
0.795818
0.762664
0.728951
0.694285
0.658329
0.621382
0.582522
0.541845
0.499137
0.454216
0.406918
0.357072
0.304451
0.248665
0.188637
0.122778
0.0601374
0.0216774
0.00701976
0.00247505
0.00119132
1.09151
1.03907
0.993711
0.953597
0.917343
0.883797
0.852007
0.821196
0.790735
0.760118
0.728933
0.69686
0.663714
0.629149
0.592829
0.554714
0.514637
0.472428
0.427917
0.380933
0.331275
0.278651
0.222457
0.161102
0.0955961
0.041578
0.0144189
0.00486107
0.00190113
1.05918
1.01114
0.969699
0.933104
0.90006
0.86949
0.840502
0.812373
0.78452
0.756474
0.727859
0.698375
0.667772
0.63543
0.60199
0.566689
0.529406
0.490006
0.448344
0.404261
0.357579
0.308064
0.255337
0.198529
0.135899
0.0729014
0.0288448
0.0100561
0.00354063
1.02592
0.982168
0.944558
0.91141
0.88152
0.853883
0.827673
0.802217
0.776975
0.751508
0.72546
0.69852
0.67038
0.640646
0.610156
0.577566
0.543114
0.506615
0.467901
0.426812
0.383174
0.336785
0.287374
0.234457
0.176879
0.113592
0.0551613
0.0209356
0.00725384
0.991635
0.952064
0.91818
0.88839
0.86158
0.83682
0.813347
0.79054
0.7679
0.745022
0.721574
0.697275
0.671893
0.645317
0.617255
0.587442
0.555831
0.522244
0.486511
0.448461
0.40792
0.364694
0.318549
0.269172
0.215965
0.157575
0.0943383
0.0417055
0.01533
0.956271
0.920744
0.890465
0.863925
0.840103
0.818145
0.797351
0.777152
0.757091
0.736795
0.715958
0.694322
0.671665
0.647782
0.621745
0.595376
0.566867
0.53638
0.503772
0.468882
0.431541
0.391562
0.348729
0.30278
0.253355
0.19977
0.140514
0.0784909
0.0320933
0.919784
0.888147
0.861329
0.837912
0.816966
0.797715
0.779522
0.76187
0.744343
0.726601
0.708361
0.68938
0.669444
0.648342
0.625857
0.60217
0.576515
0.54904
0.519559
0.487883
0.453819
0.417171
0.377724
0.335229
0.289389
0.239812
0.185681
0.126005
0.0634199
0.882157
0.854234
0.830716
0.810274
0.792071
0.77541
0.759718
0.74453
0.72947
0.71423
0.69855
0.682207
0.665
0.646752
0.62734
0.605517
0.583572
0.559447
0.53332
0.505032
0.474399
0.441219
0.405276
0.366329
0.324095
0.278253
0.228245
0.174202
0.11075
0.843408
0.819006
0.798604
0.780967
0.765354
0.751146
0.737832
0.725
0.712314
0.699498
0.686317
0.672563
0.658048
0.642593
0.626006
0.60795
0.588617
0.567684
0.544906
0.52008
0.492993
0.463421
0.431128
0.395863
0.357344
0.315244
0.269096
0.219134
0.162993
0.803598
0.782502
0.765012
0.749993
0.736797
0.724883
0.713803
0.703195
0.692766
0.682269
0.671494
0.660252
0.64837
0.635682
0.622029
0.60731
0.590409
0.573231
0.553859
0.532602
0.509205
0.483411
0.454957
0.423565
0.388937
0.35072
0.308527
0.262
0.212139
0.762828
0.744804
0.730007
0.717401
0.706433
0.696636
0.687626
0.679091
0.670775
0.662465
0.653973
0.645133
0.635787
0.625781
0.614963
0.603172
0.59012
0.575107
0.559525
0.54206
0.522542
0.50073
0.476345
0.449077
0.418595
0.384509
0.346429
0.303754
0.257656
0.72124
0.706039
0.693701
0.683293
0.674351
0.666483
0.659364
0.65273
0.646365
0.640084
0.633726
0.627144
0.620198
0.612751
0.604661
0.595777
0.585916
0.574549
0.562081
0.548252
0.532637
0.514936
0.494826
0.471955
0.445935
0.416323
0.382644
0.344318
0.301472
0.679015
0.666377
0.656256
0.647821
0.640697
0.634561
0.629145
0.624231
0.619637
0.615208
0.610809
0.606313
0.601599
0.596547
0.591033
0.584925
0.578082
0.570415
0.561003
0.550637
0.538987
0.525507
0.50986
0.491654
0.470447
0.445724
0.416895
0.383354
0.344509
0.636365
0.626023
0.617875
0.61119
0.605675
0.601074
0.597171
0.593788
0.590777
0.588012
0.585378
0.582772
0.580091
0.577236
0.5741
0.570575
0.566539
0.561865
0.556276
0.549289
0.541155
0.531945
0.520879
0.507562
0.491498
0.472099
0.448672
0.420473
0.386571
0.593529
0.585215
0.5788
0.573647
0.569542
0.566285
0.56371
0.561674
0.560059
0.558763
0.557692
0.556762
0.555893
0.555002
0.554005
0.552821
0.551345
0.549464
0.547019
0.543839
0.539398
0.533864
0.52734
0.519072
0.508401
0.494633
0.477143
0.454994
0.426965
0.550769
0.544223
0.539311
0.535489
0.53261
0.530528
0.529113
0.528254
0.527855
0.527834
0.528116
0.528634
0.52933
0.530143
0.530989
0.531866
0.532639
0.533199
0.53368
0.533587
0.532815
0.530883
0.528408
0.525641
0.520586
0.512083
0.500763
0.485681
0.464557
0.508371
0.503346
0.499733
0.497069
0.495267
0.494221
0.493829
0.493997
0.494643
0.4957
0.497108
0.49881
0.500787
0.50301
0.505278
0.50795
0.510737
0.51339
0.516107
0.518694
0.520926
0.523352
0.523607
0.525154
0.525296
0.522368
0.518572
0.51153
0.497881
0.46666
0.462936
0.460455
0.458826
0.458007
0.457913
0.458444
0.459503
0.461004
0.462902
0.465145
0.467671
0.470552
0.473691
0.477394
0.481147
0.485226
0.489466
0.493912
0.498512
0.503177
0.508179
0.513167
0.516598
0.52143
0.524791
0.527395
0.526378
0.52231
0.426031
0.423427
0.421974
0.421335
0.421488
0.422327
0.423703
0.425481
0.427538
0.429895
0.432514
0.435188
0.438648
0.442289
0.446314
0.450636
0.455319
0.460309
0.465638
0.471283
0.477272
0.483728
0.490842
0.498544
0.505231
0.513865
0.522466
0.52939
0.532942
0.387006
0.385399
0.384966
0.385388
0.386604
0.388404
0.390476
0.392612
0.394598
0.396664
0.398643
0.40105
0.403786
0.406923
0.410462
0.414344
0.418593
0.423177
0.428162
0.4334
0.439137
0.445286
0.453544
0.462493
0.472756
0.483165
0.496441
0.510962
0.523765
0.350315
0.349666
0.350374
0.352064
0.354501
0.357225
0.359536
0.36117
0.361814
0.362125
0.362068
0.36238
0.363174
0.364487
0.366216
0.368296
0.370713
0.373358
0.37637
0.380095
0.384841
0.389962
0.396781
0.403698
0.413518
0.425125
0.438594
0.458553
0.477057
0.316996
0.317359
0.319461
0.322719
0.326425
0.329703
0.331087
0.330485
0.32761
0.323624
0.319315
0.315562
0.312666
0.310676
0.30961
0.309061
0.308933
0.308971
0.309456
0.309752
0.311115
0.312039
0.315522
0.317754
0.324716
0.332129
0.344257
0.362395
0.381721
0.288411
0.289912
0.293702
0.298738
0.303314
0.306142
0.304598
0.298961
0.289924
0.279748
0.26963
0.260645
0.253192
0.24711
0.242061
0.237655
0.233781
0.229995
0.226751
0.223122
0.2208
0.217381
0.217246
0.214463
0.217368
0.217308
0.224625
0.233666
0.253852
0.266036
0.268759
0.274317
0.28081
0.28567
0.285821
0.279566
0.267872
0.252082
0.234626
0.217789
0.202951
0.190544
0.180308
0.171789
0.164412
0.15795
0.151948
0.146765
0.141716
0.137936
0.133968
0.13207
0.129862
0.130105
0.130503
0.133764
0.13683
0.149097
0.250826
0.25462
0.261669
0.268952
0.272608
0.269696
0.258771
0.241068
0.219432
0.196833
0.175695
0.157391
0.142318
0.13024
0.120722
0.113343
0.107757
0.103837
0.101261
0.100377
0.100301
0.102684
0.104413
0.110905
0.112957
0.124385
0.1267
0.143453
0.139382
0.242468
0.246949
0.254946
0.262245
0.264849
0.259567
0.246054
0.226165
0.202935
0.179377
0.157844
0.139672
0.125247
0.114431
0.106846
0.102239
0.100084
0.100468
0.102502
0.107102
0.112318
0.12116
0.128545
0.142742
0.150409
0.173072
0.179041
0.218348
0.207882
0.239483
0.244345
0.253022
0.260756
0.263534
0.258518
0.245516
0.226425
0.204275
0.182012
0.161959
0.145477
0.132974
0.12432
0.119163
0.117284
0.118098
0.121717
0.127168
0.135447
0.144588
0.157589
0.169599
0.188928
0.202669
0.233204
0.247109
0.300019
0.2992
5.80604e-005
5.80604e-005
5.80605e-005
5.80605e-005
5.80605e-005
5.80605e-005
5.80605e-005
5.80605e-005
5.80606e-005
5.80606e-005
5.80606e-005
5.80605e-005
5.80606e-005
5.80606e-005
5.80607e-005
5.80608e-005
5.80608e-005
5.80608e-005
5.80608e-005
5.80609e-005
5.80609e-005
5.80609e-005
5.80608e-005
5.80608e-005
5.80608e-005
5.80608e-005
5.80608e-005
5.80609e-005
5.80609e-005
5.80609e-005
5.80609e-005
5.80609e-005
5.80609e-005
5.8061e-005
5.8061e-005
5.8061e-005
5.8061e-005
5.8061e-005
5.8061e-005
5.80611e-005
5.80611e-005
5.80611e-005
5.80611e-005
5.80611e-005
5.80611e-005
5.80611e-005
5.80612e-005
5.80612e-005
5.80612e-005
5.80612e-005
5.80612e-005
5.80612e-005
5.80612e-005
5.80613e-005
5.80613e-005
5.80613e-005
5.80613e-005
5.80613e-005
5.80613e-005
5.80614e-005
5.80614e-005
5.80614e-005
5.80614e-005
5.80614e-005
5.80614e-005
5.80615e-005
5.80615e-005
5.80615e-005
5.80615e-005
5.80615e-005
5.80615e-005
5.80615e-005
5.80615e-005
5.80616e-005
5.80616e-005
5.80616e-005
5.80616e-005
5.80616e-005
5.80616e-005
5.80616e-005
5.80617e-005
5.80617e-005
5.80617e-005
5.80617e-005
5.80617e-005
5.80617e-005
5.80617e-005
5.80617e-005
5.80617e-005
5.80617e-005
5.80617e-005
5.80617e-005
5.80617e-005
5.80617e-005
5.80617e-005
5.80617e-005
5.80617e-005
5.80617e-005
5.80617e-005
5.80617e-005
5.80617e-005
5.80617e-005
5.80617e-005
5.80617e-005
5.80617e-005
5.80617e-005
5.80617e-005
5.80617e-005
5.80616e-005
5.80616e-005
5.80616e-005
5.80616e-005
5.80616e-005
5.80616e-005
5.80615e-005
5.80615e-005
5.80615e-005
5.80615e-005
5.80615e-005
5.80615e-005
5.80615e-005
5.80615e-005
5.80615e-005
5.80616e-005
5.80616e-005
5.80616e-005
5.80616e-005
5.80617e-005
5.80617e-005
5.80617e-005
5.80618e-005
5.80619e-005
5.8062e-005
5.80622e-005
5.80621e-005
5.80624e-005
5.80623e-005
5.80631e-005
5.93318e-005
4.60768e-006
4.6077e-006
4.60777e-006
4.60786e-006
4.60788e-006
4.60787e-006
4.60789e-006
4.60798e-006
4.60808e-006
4.6081e-006
4.60807e-006
4.60806e-006
4.60814e-006
4.60829e-006
4.60841e-006
4.6085e-006
4.60858e-006
4.60864e-006
4.60869e-006
4.60873e-006
4.60875e-006
4.60876e-006
4.60877e-006
4.60877e-006
4.60878e-006
4.60881e-006
4.60884e-006
4.60888e-006
4.60893e-006
4.60898e-006
4.60903e-006
4.60907e-006
4.60912e-006
4.60916e-006
4.60921e-006
4.60925e-006
4.60929e-006
4.60933e-006
4.60937e-006
4.60941e-006
4.60945e-006
4.60949e-006
4.60953e-006
4.60957e-006
4.60961e-006
4.60965e-006
4.60969e-006
4.60973e-006
4.60977e-006
4.6098e-006
4.60984e-006
4.60988e-006
4.60992e-006
4.60996e-006
4.61e-006
4.61004e-006
4.61008e-006
4.61012e-006
4.61016e-006
4.6102e-006
4.61024e-006
4.61028e-006
4.61031e-006
4.61035e-006
4.61038e-006
4.61042e-006
4.61045e-006
4.61049e-006
4.61052e-006
4.61056e-006
4.61059e-006
4.61062e-006
4.61065e-006
4.61069e-006
4.61072e-006
4.61075e-006
4.61078e-006
4.61081e-006
4.61084e-006
4.61086e-006
4.61089e-006
4.61092e-006
4.61094e-006
4.61097e-006
4.61099e-006
4.61101e-006
4.61103e-006
4.61104e-006
4.61106e-006
4.61108e-006
4.6111e-006
4.61111e-006
4.61112e-006
4.61113e-006
4.61113e-006
4.61113e-006
4.61113e-006
4.61112e-006
4.61111e-006
4.6111e-006
4.61109e-006
4.61107e-006
4.61105e-006
4.61103e-006
4.61101e-006
4.61099e-006
4.61096e-006
4.61094e-006
4.61091e-006
4.61088e-006
4.61084e-006
4.61081e-006
4.61077e-006
4.61073e-006
4.61067e-006
4.6106e-006
4.61053e-006
4.61048e-006
4.61047e-006
4.61049e-006
4.61052e-006
4.61056e-006
4.61061e-006
4.61066e-006
4.61069e-006
4.61075e-006
4.61076e-006
4.61085e-006
4.61089e-006
4.61096e-006
4.61114e-006
4.61123e-006
4.61139e-006
4.61197e-006
4.61165e-006
4.6123e-006
4.6177e-006
4.61604e-006
4.56297e-006
7.2391e-007
7.23977e-007
7.24027e-007
7.24065e-007
7.24106e-007
7.24156e-007
7.24201e-007
7.24233e-007
7.24257e-007
7.24287e-007
7.24328e-007
7.24371e-007
7.24405e-007
7.24425e-007
7.24444e-007
7.24469e-007
7.24496e-007
7.24524e-007
7.24553e-007
7.24582e-007
7.24613e-007
7.24646e-007
7.24682e-007
7.24718e-007
7.24755e-007
7.2479e-007
7.24824e-007
7.24856e-007
7.24887e-007
7.24918e-007
7.24948e-007
7.24978e-007
7.25008e-007
7.25038e-007
7.25065e-007
7.25091e-007
7.25117e-007
7.25143e-007
7.25169e-007
7.25196e-007
7.25223e-007
7.25251e-007
7.25278e-007
7.25305e-007
7.25332e-007
7.25359e-007
7.25386e-007
7.25413e-007
7.2544e-007
7.25466e-007
7.25492e-007
7.25518e-007
7.25544e-007
7.2557e-007
7.25595e-007
7.25619e-007
7.25643e-007
7.25666e-007
7.25689e-007
7.25711e-007
7.25732e-007
7.25753e-007
7.25774e-007
7.25795e-007
7.25815e-007
7.25836e-007
7.25856e-007
7.25876e-007
7.25896e-007
7.25915e-007
7.25933e-007
7.25952e-007
7.2597e-007
7.25987e-007
7.26004e-007
7.2602e-007
7.26035e-007
7.26049e-007
7.26063e-007
7.26076e-007
7.26088e-007
7.26101e-007
7.26113e-007
7.26124e-007
7.26134e-007
7.26145e-007
7.26154e-007
7.26162e-007
7.26174e-007
7.26189e-007
7.26204e-007
7.26217e-007
7.26229e-007
7.26239e-007
7.26248e-007
7.26256e-007
7.26262e-007
7.26267e-007
7.26271e-007
7.26273e-007
7.26273e-007
7.26272e-007
7.26269e-007
7.26265e-007
7.26259e-007
7.26251e-007
7.26241e-007
7.26229e-007
7.26216e-007
7.262e-007
7.26179e-007
7.26159e-007
7.26138e-007
7.26114e-007
7.26086e-007
7.26056e-007
7.26031e-007
7.26014e-007
7.26003e-007
7.25995e-007
7.25985e-007
7.25975e-007
7.25947e-007
7.25941e-007
7.25898e-007
7.25894e-007
7.25865e-007
7.25833e-007
7.25824e-007
7.25833e-007
7.25796e-007
7.25953e-007
7.25784e-007
7.25781e-007
7.27075e-007
7.28596e-007
6.05329e-007
6.57943e-007
2.04393e-005
2.12962e-007
2.12992e-007
2.13019e-007
2.13048e-007
2.13072e-007
2.13091e-007
2.1311e-007
2.13133e-007
2.13161e-007
2.13182e-007
2.13197e-007
2.13212e-007
2.13231e-007
2.13257e-007
2.13285e-007
2.13308e-007
2.1333e-007
2.13351e-007
2.13372e-007
2.13392e-007
2.13412e-007
2.13431e-007
2.13449e-007
2.13467e-007
2.13485e-007
2.13504e-007
2.13525e-007
2.13546e-007
2.13567e-007
2.13589e-007
2.13612e-007
2.13634e-007
2.13656e-007
2.13679e-007
2.13701e-007
2.13723e-007
2.13744e-007
2.13764e-007
2.13785e-007
2.13805e-007
2.13826e-007
2.13846e-007
2.13867e-007
2.13887e-007
2.13907e-007
2.13927e-007
2.13947e-007
2.13966e-007
2.13985e-007
2.14004e-007
2.14023e-007
2.14041e-007
2.14059e-007
2.14077e-007
2.14094e-007
2.14111e-007
2.14128e-007
2.14145e-007
2.14161e-007
2.14177e-007
2.14194e-007
2.1421e-007
2.14227e-007
2.14243e-007
2.14259e-007
2.14274e-007
2.1429e-007
2.14305e-007
2.1432e-007
2.14334e-007
2.14349e-007
2.14363e-007
2.14376e-007
2.1439e-007
2.14403e-007
2.14415e-007
2.14428e-007
2.14439e-007
2.14451e-007
2.14462e-007
2.14473e-007
2.14483e-007
2.14493e-007
2.14502e-007
2.1451e-007
2.14519e-007
2.14526e-007
2.14533e-007
2.14541e-007
2.14549e-007
2.14558e-007
2.14567e-007
2.14575e-007
2.14583e-007
2.14591e-007
2.14598e-007
2.14604e-007
2.1461e-007
2.14615e-007
2.14619e-007
2.14623e-007
2.14625e-007
2.14627e-007
2.14627e-007
2.14626e-007
2.14624e-007
2.14621e-007
2.14617e-007
2.14611e-007
2.14604e-007
2.14594e-007
2.14581e-007
2.14568e-007
2.14553e-007
2.14536e-007
2.14517e-007
2.14499e-007
2.14482e-007
2.14467e-007
2.14451e-007
2.14434e-007
2.14416e-007
2.14387e-007
2.14369e-007
2.14332e-007
2.14308e-007
2.14275e-007
2.14248e-007
2.14192e-007
2.14229e-007
2.14407e-007
2.13271e-007
2.14221e-007
2.17886e-007
2.02192e-007
1.8521e-007
3.02522e-006
0.000492023
0.017853
1.03784e-007
1.03805e-007
1.03822e-007
1.03835e-007
1.03849e-007
1.03866e-007
1.03884e-007
1.03896e-007
1.03906e-007
1.03918e-007
1.03934e-007
1.03954e-007
1.03968e-007
1.0398e-007
1.03992e-007
1.04005e-007
1.04019e-007
1.04034e-007
1.04048e-007
1.04063e-007
1.04079e-007
1.04095e-007
1.04113e-007
1.04131e-007
1.0415e-007
1.04169e-007
1.04188e-007
1.04206e-007
1.04224e-007
1.04242e-007
1.04261e-007
1.0428e-007
1.04299e-007
1.04318e-007
1.04337e-007
1.04356e-007
1.04375e-007
1.04394e-007
1.04413e-007
1.04431e-007
1.0445e-007
1.04469e-007
1.04487e-007
1.04506e-007
1.04524e-007
1.04542e-007
1.0456e-007
1.04578e-007
1.04595e-007
1.04613e-007
1.0463e-007
1.04647e-007
1.04664e-007
1.04681e-007
1.04697e-007
1.04713e-007
1.04729e-007
1.04745e-007
1.04761e-007
1.04777e-007
1.04793e-007
1.04809e-007
1.04824e-007
1.0484e-007
1.04855e-007
1.0487e-007
1.04885e-007
1.04899e-007
1.04913e-007
1.04927e-007
1.04941e-007
1.04954e-007
1.04967e-007
1.0498e-007
1.04992e-007
1.05005e-007
1.05016e-007
1.05028e-007
1.05039e-007
1.0505e-007
1.05061e-007
1.05071e-007
1.05081e-007
1.05091e-007
1.051e-007
1.05109e-007
1.05117e-007
1.05125e-007
1.05132e-007
1.05139e-007
1.05146e-007
1.05153e-007
1.0516e-007
1.05166e-007
1.05173e-007
1.05179e-007
1.05184e-007
1.05189e-007
1.05194e-007
1.05199e-007
1.05203e-007
1.05206e-007
1.05208e-007
1.0521e-007
1.05211e-007
1.05211e-007
1.0521e-007
1.05209e-007
1.05206e-007
1.05202e-007
1.05197e-007
1.05189e-007
1.05179e-007
1.05167e-007
1.05154e-007
1.05139e-007
1.05124e-007
1.05108e-007
1.05093e-007
1.05077e-007
1.0506e-007
1.05041e-007
1.05017e-007
1.04995e-007
1.04964e-007
1.04935e-007
1.049e-007
1.04868e-007
1.04868e-007
1.04846e-007
1.03284e-007
1.09314e-007
1.05234e-007
8.51585e-008
1.70663e-007
7.69527e-006
0.000706048
0.0203392
0.129152
7.01328e-008
7.01457e-008
7.01574e-008
7.0171e-008
7.01844e-008
7.01941e-008
7.02018e-008
7.02127e-008
7.02277e-008
7.02431e-008
7.02528e-008
7.02602e-008
7.02693e-008
7.02823e-008
7.02991e-008
7.0314e-008
7.0328e-008
7.03426e-008
7.03572e-008
7.03719e-008
7.03871e-008
7.04028e-008
7.04185e-008
7.04338e-008
7.04483e-008
7.04629e-008
7.04787e-008
7.04949e-008
7.05117e-008
7.05285e-008
7.05458e-008
7.05633e-008
7.0581e-008
7.05985e-008
7.06163e-008
7.06342e-008
7.06524e-008
7.06705e-008
7.06888e-008
7.07069e-008
7.0725e-008
7.07433e-008
7.07614e-008
7.07793e-008
7.07972e-008
7.08149e-008
7.08324e-008
7.08499e-008
7.08673e-008
7.08846e-008
7.09018e-008
7.09189e-008
7.09358e-008
7.09527e-008
7.09694e-008
7.0986e-008
7.10025e-008
7.10188e-008
7.1035e-008
7.10512e-008
7.10674e-008
7.10834e-008
7.10991e-008
7.11147e-008
7.11299e-008
7.11449e-008
7.11597e-008
7.11742e-008
7.11882e-008
7.12022e-008
7.12158e-008
7.12292e-008
7.12425e-008
7.12551e-008
7.1268e-008
7.12802e-008
7.12923e-008
7.13042e-008
7.13156e-008
7.13271e-008
7.13379e-008
7.13487e-008
7.13588e-008
7.13689e-008
7.13786e-008
7.1388e-008
7.1397e-008
7.14059e-008
7.1414e-008
7.14211e-008
7.14279e-008
7.14344e-008
7.14406e-008
7.14466e-008
7.14523e-008
7.14577e-008
7.14628e-008
7.14674e-008
7.14718e-008
7.14757e-008
7.14791e-008
7.14819e-008
7.14842e-008
7.1486e-008
7.14873e-008
7.14878e-008
7.14876e-008
7.14865e-008
7.14846e-008
7.14819e-008
7.14784e-008
7.14733e-008
7.14656e-008
7.14561e-008
7.14452e-008
7.1433e-008
7.14196e-008
7.14054e-008
7.13915e-008
7.13774e-008
7.1362e-008
7.1345e-008
7.13254e-008
7.13042e-008
7.12797e-008
7.12524e-008
7.12278e-008
7.11933e-008
7.10524e-008
7.01108e-008
7.7105e-008
5.86e-008
6.98022e-008
4.61201e-007
3.43782e-005
0.00168996
0.0310336
0.162161
0.404323
5.85245e-008
5.85341e-008
5.85407e-008
5.85455e-008
5.85515e-008
5.8558e-008
5.85687e-008
5.85784e-008
5.85839e-008
5.85877e-008
5.85948e-008
5.86059e-008
5.86186e-008
5.86271e-008
5.86339e-008
5.86407e-008
5.86487e-008
5.86562e-008
5.86643e-008
5.86742e-008
5.86848e-008
5.86945e-008
5.87037e-008
5.87129e-008
5.87227e-008
5.87335e-008
5.87443e-008
5.87552e-008
5.87658e-008
5.87769e-008
5.8788e-008
5.8799e-008
5.881e-008
5.88214e-008
5.8833e-008
5.88448e-008
5.88565e-008
5.88685e-008
5.88803e-008
5.88921e-008
5.89039e-008
5.89153e-008
5.89268e-008
5.89385e-008
5.89502e-008
5.8962e-008
5.89738e-008
5.89855e-008
5.89973e-008
5.9009e-008
5.90205e-008
5.90322e-008
5.90437e-008
5.90551e-008
5.90668e-008
5.90782e-008
5.90894e-008
5.91006e-008
5.91118e-008
5.91229e-008
5.9134e-008
5.91449e-008
5.91555e-008
5.91659e-008
5.91761e-008
5.91863e-008
5.91962e-008
5.9206e-008
5.92159e-008
5.92252e-008
5.92345e-008
5.92438e-008
5.92524e-008
5.92615e-008
5.92697e-008
5.92782e-008
5.92868e-008
5.92946e-008
5.93023e-008
5.93096e-008
5.93174e-008
5.93242e-008
5.93317e-008
5.93386e-008
5.93451e-008
5.93514e-008
5.93574e-008
5.93636e-008
5.9369e-008
5.93739e-008
5.93782e-008
5.93822e-008
5.93861e-008
5.93894e-008
5.93923e-008
5.93951e-008
5.93975e-008
5.93997e-008
5.94016e-008
5.9403e-008
5.94039e-008
5.94046e-008
5.94048e-008
5.94051e-008
5.94037e-008
5.94024e-008
5.9401e-008
5.93989e-008
5.93961e-008
5.93925e-008
5.93885e-008
5.93835e-008
5.9377e-008
5.93691e-008