/*--------------------------------*- C++ -*----------------------------------*\
| =========                 |                                                 |
| \\      /  F ield         | OpenFOAM: The Open Source CFD Toolbox           |
|  \\    /   O peration     | Version:  5.x                                   |
|   \\  /    A nd           | Web:      www.OpenFOAM.org                      |
|    \\/     M anipulation  |                                                 |
\*---------------------------------------------------------------------------*/
/*   Windows 32 and 64 bit porting by blueCAPE: http://www.bluecape.com.pt   *\
|  Based on Windows porting (2.0.x v4) by Symscape: http://www.symscape.com   |
\*---------------------------------------------------------------------------*/
FoamFile
{
    version     2.0;
    format      ascii;
    class       volScalarField;
    location    "210";
    object      p;
}
// * * * * * * * * * * * * * * * * * * * * * * * * * * * * * * * * * * * * * //

dimensions      [0 2 -2 0 0 0 0];

internalField   nonuniform List<scalar> 
43900
(
0.364912
0.364567
0.364523
0.364396
0.364194
0.363965
0.363769
0.363432
0.363202
0.362885
0.362563
0.362236
0.361892
0.361536
0.36117
0.360795
0.36041
0.360017
0.359616
0.359207
0.358792
0.35837
0.357942
0.357508
0.357069
0.356625
0.356176
0.355723
0.355265
0.362885
0.37096
0.364826
0.368118
0.36561
0.36637
0.365454
0.365285
0.364828
0.364399
0.363993
0.363563
0.363133
0.362705
0.362274
0.361841
0.361406
0.360967
0.360526
0.360081
0.359633
0.359182
0.358727
0.358269
0.357808
0.357343
0.356875
0.356404
0.355929
0.35596
0.377732
0.366643
0.372892
0.367805
0.370379
0.367988
0.368331
0.367243
0.366826
0.366246
0.365689
0.365152
0.364625
0.364105
0.363591
0.363081
0.362576
0.362074
0.361574
0.361075
0.360577
0.360079
0.359581
0.359082
0.358582
0.35808
0.357577
0.357071
0.350963
0.378663
0.371926
0.371742
0.371388
0.370964
0.369878
0.369851
0.369058
0.368697
0.368141
0.367633
0.367123
0.366613
0.366102
0.36559
0.365077
0.364564
0.36405
0.363535
0.363019
0.3625
0.361982
0.36146
0.360937
0.360412
0.359883
0.359352
0.358819
0.353538
0.377293
0.372301
0.371699
0.371687
0.371267
0.371074
0.370845
0.370333
0.370031
0.369609
0.369198
0.368785
0.368355
0.367909
0.367452
0.366985
0.36651
0.366027
0.365536
0.365036
0.364531
0.364019
0.363501
0.362977
0.362446
0.361912
0.361372
0.360825
0.35814
0.376262
0.373183
0.372903
0.372844
0.372453
0.372208
0.371971
0.371752
0.371492
0.37113
0.370791
0.370426
0.370044
0.369648
0.369235
0.368808
0.368368
0.367914
0.367444
0.366964
0.366472
0.365968
0.365453
0.364924
0.36439
0.363845
0.363288
0.362727
0.364075
0.377921
0.376107
0.375594
0.37556
0.375429
0.375108
0.37466
0.374343
0.374104
0.373776
0.373422
0.373059
0.372673
0.372276
0.371864
0.371438
0.371
0.370543
0.370074
0.369591
0.369093
0.368581
0.36805
0.367515
0.366961
0.366389
0.365815
0.365221
0.370831
0.38186
0.380715
0.380118
0.379946
0.379809
0.379599
0.379256
0.378811
0.37838
0.378033
0.377673
0.377275
0.376862
0.376433
0.375993
0.375539
0.375064
0.374576
0.374071
0.373555
0.373025
0.372472
0.371914
0.371333
0.370736
0.370136
0.369509
0.368871
0.3785
0.387376
0.386669
0.38606
0.385799
0.385605
0.38537
0.38508
0.38471
0.384228
0.383753
0.38336
0.382949
0.382502
0.382047
0.381571
0.381074
0.38056
0.38002
0.379471
0.378904
0.378308
0.377704
0.377075
0.376434
0.375787
0.375108
0.37442
0.373724
0.387604
0.39421
0.393812
0.393205
0.392867
0.392606
0.392318
0.39199
0.391619
0.391184
0.390656
0.390105
0.389621
0.389127
0.388596
0.388055
0.387492
0.386903
0.386306
0.385676
0.385021
0.384357
0.383663
0.382955
0.382237
0.38148
0.380713
0.37993
0.379119
0.39677
0.402471
0.402177
0.40154
0.401131
0.400798
0.400439
0.400036
0.399589
0.399095
0.398537
0.397892
0.397198
0.396568
0.395943
0.395271
0.394593
0.393897
0.393161
0.392416
0.391659
0.390857
0.390044
0.389215
0.388344
0.387472
0.386573
0.385646
0.384718
0.406825
0.411913
0.411668
0.410991
0.410516
0.410116
0.409687
0.40921
0.408683
0.408105
0.407469
0.406763
0.405975
0.405131
0.404349
0.403577
0.402764
0.401935
0.40109
0.400217
0.3993
0.398379
0.397421
0.396423
0.395433
0.394398
0.393339
0.39228
0.391171
0.418167
0.422477
0.422256
0.421556
0.421024
0.42056
0.420069
0.419528
0.418935
0.418286
0.417578
0.416806
0.41596
0.415035
0.41407
0.413151
0.412242
0.411296
0.41033
0.409327
0.408321
0.40725
0.406147
0.405053
0.403884
0.402694
0.401505
0.400244
0.398992
0.4305
0.434083
0.433855
0.433133
0.432544
0.432015
0.431455
0.430843
0.430175
0.429447
0.428654
0.427793
0.42686
0.425849
0.424766
0.423652
0.422566
0.421479
0.420393
0.419281
0.418081
0.416897
0.415693
0.414372
0.413058
0.411741
0.410334
0.408945
0.40752
0.443663
0.44664
0.446376
0.445623
0.444973
0.444369
0.443729
0.443029
0.442266
0.441436
0.440532
0.43955
0.438489
0.437341
0.436105
0.434802
0.433475
0.432187
0.430878
0.42954
0.428232
0.426834
0.425355
0.423925
0.422444
0.42087
0.419295
0.417682
0.415998
0.457668
0.460168
0.459852
0.459061
0.458348
0.457667
0.456944
0.456153
0.455288
0.454345
0.453317
0.452201
0.450993
0.449689
0.448284
0.446778
0.44521
0.443614
0.442084
0.440546
0.43893
0.437293
0.435668
0.433925
0.432129
0.430348
0.428516
0.426621
0.424735
0.472462
0.474608
0.474233
0.473398
0.472621
0.471863
0.471052
0.470165
0.469194
0.468132
0.466974
0.465715
0.46435
0.462877
0.461291
0.459589
0.457781
0.455914
0.454024
0.452176
0.450322
0.448422
0.446498
0.44454
0.442504
0.440408
0.438267
0.436082
0.433849
0.487972
0.489881
0.489448
0.488562
0.487718
0.486882
0.485983
0.484997
0.483916
0.482733
0.481441
0.480033
0.478506
0.476857
0.475084
0.47318
0.471145
0.46902
0.46688
0.464693
0.462565
0.460405
0.458139
0.455823
0.453484
0.451133
0.448699
0.446211
0.443706
0.504124
0.505894
0.505408
0.504468
0.503558
0.502645
0.501659
0.500575
0.499385
0.498079
0.496651
0.495094
0.493401
0.491571
0.489602
0.487491
0.485232
0.48283
0.480339
0.477898
0.475439
0.472935
0.47042
0.467865
0.465228
0.462469
0.459662
0.456864
0.454013
0.520797
0.522515
0.521981
0.520981
0.520003
0.519012
0.517937
0.516751
0.515444
0.514008
0.512432
0.51071
0.508833
0.5068
0.504606
0.502251
0.49973
0.49705
0.494232
0.491336
0.488474
0.485668
0.482807
0.479804
0.47677
0.473734
0.470633
0.467372
0.464061
0.537877
0.539618
0.539041
0.537978
0.536929
0.535858
0.534692
0.533401
0.531973
0.530399
0.528667
0.526769
0.524699
0.522449
0.520017
0.5174
0.514592
0.511588
0.508424
0.505183
0.501878
0.498589
0.495359
0.49206
0.488531
0.48498
0.481384
0.477804
0.474225
0.555241
0.557067
0.556453
0.555324
0.554205
0.553057
0.551801
0.550405
0.548858
0.547146
0.54526
0.543189
0.540922
0.538453
0.535779
0.532897
0.529804
0.526492
0.522956
0.51927
0.515551
0.511813
0.508086
0.504264
0.500427
0.496525
0.492439
0.488244
0.483999
0.572745
0.574704
0.574057
0.572862
0.571674
0.570449
0.569103
0.567603
0.565935
0.564086
0.562041
0.559788
0.557318
0.554624
0.551699
0.54854
0.545142
0.5415
0.53762
0.533528
0.529318
0.52507
0.52085
0.516616
0.512193
0.507658
0.503126
0.498704
0.494098
0.590256
0.592383
0.59171
0.59045
0.589196
0.587899
0.586468
0.584868
0.583084
0.5811
0.5789
0.576472
0.573805
0.570888
0.567715
0.564281
0.560581
0.556604
0.552343
0.547832
0.54317
0.538413
0.53362
0.528823
0.524086
0.519226
0.514089
0.508794
0.50359
0.60762
0.609943
0.609247
0.607925
0.606608
0.605243
0.603731
0.602034
0.600136
0.59802
0.595668
0.593066
0.590201
0.587062
0.58364
0.579928
0.575922
0.571615
0.567
0.562072
0.556875
0.551624
0.546362
0.541026
0.535511
0.529954
0.524321
0.518574
0.512715
0.624699
0.627235
0.62652
0.62514
0.623766
0.622337
0.620749
0.61896
0.616952
0.614708
0.612208
0.609435
0.606376
0.603017
0.599347
0.595358
0.591044
0.586397
0.581411
0.576093
0.570474
0.564615
0.55864
0.552667
0.546714
0.54054
0.534244
0.527862
0.521409
0.641359
0.644115
0.643386
0.641953
0.640527
0.63904
0.63738
0.635504
0.633392
0.631024
0.62838
0.625442
0.622193
0.618617
0.614703
0.61044
0.605821
0.600838
0.595477
0.589726
0.58361
0.577321
0.57073
0.564056
0.55743
0.550771
0.543779
0.536609
0.529455
0.657479
0.660457
0.659716
0.658236
0.656765
0.655226
0.6535
0.651542
0.649332
0.646847
0.644066
0.640969
0.637537
0.633754
0.629604
0.625076
0.620161
0.614851
0.609139
0.603007
0.596425
0.589488
0.582456
0.575095
0.567599
0.560166
0.552621
0.54481
0.536848
0.672954
0.67615
0.6754
0.673879
0.67237
0.670784
0.668998
0.666965
0.664662
0.662066
0.659154
0.655905
0.652296
0.648311
0.643932
0.639146
0.633943
0.628311
0.622244
0.615735
0.608764
0.601319
0.593518
0.585619
0.577438
0.569127
0.560825
0.55228
0.543514
0.687697
0.691101
0.690344
0.68879
0.687249
0.685622
0.683781
0.681677
0.679286
0.676585
0.673547
0.670148
0.666367
0.662183
0.657578
0.652537
0.647046
0.641094
0.634669
0.627761
0.620364
0.612475
0.60415
0.595412
0.586541
0.577472
0.568218
0.55883
0.549285
0.701643
0.705239
0.704477
0.702896
0.701328
0.699666
0.697775
0.695604
0.69313
0.690326
0.687165
0.68362
0.679668
0.675287
0.670456
0.665159
0.659378
0.653102
0.646319
0.639016
0.631178
0.622798
0.613934
0.604652
0.594907
0.584976
0.574885
0.564688
0.554264
0.714745
0.718513
0.717745
0.716145
0.714557
0.712864
0.710925
0.708692
0.706137
0.703234
0.699952
0.696263
0.69214
0.687562
0.682505
0.676948
0.670873
0.664267
0.657117
0.649413
0.641145
0.632292
0.622855
0.612944
0.602651
0.591782
0.580774
0.569544
0.55805
0.726974
0.730892
0.730118
0.728504
0.726901
0.725181
0.723199
0.720906
0.718274
0.715273
0.711871
0.708037
0.703745
0.698969
0.693681
0.687858
0.681482
0.674534
0.667003
0.658879
0.650155
0.640822
0.63086
0.62029
0.609196
0.597757
0.585688
0.573477
0.561063
0.738322
0.742361
0.741581
0.739959
0.738347
0.736603
0.734581
0.73223
0.729523
0.726426
0.722906
0.71893
0.714469
0.709489
0.703964
0.697868
0.691178
0.683876
0.675947
0.66738
0.658168
0.648308
0.637803
0.626632
0.614865
0.602462
0.589783
0.576462
0.562857
0.748794
0.752923
0.752136
0.750513
0.748896
0.747132
0.745073
0.742669
0.73989
0.736701
0.733066
0.72895
0.724315
0.719127
0.713359
0.706982
0.699967
0.692293
0.683941
0.674901
0.665167
0.654736
0.643613
0.631803
0.619328
0.606207
0.592385
0.578153
0.563489
0.758408
0.762594
0.761798
0.760181
0.758564
0.756784
0.754692
0.752238
0.749391
0.746114
0.742366
0.738108
0.733299
0.727905
0.721893
0.715225
0.70787
0.699802
0.691
0.68145
0.671145
0.660085
0.648277
0.635723
0.622469
0.608525
0.593894
0.578577
0.562667
0.767193
0.771401
0.770595
0.76899
0.767379
0.765585
0.763464
0.760965
0.758054
0.754692
0.750834
0.746439
0.741463
0.735865
0.729601
0.722631
0.714922
0.706441
0.69716
0.687061
0.676133
0.664376
0.651803
0.638427
0.624276
0.609415
0.593868
0.577564
0.560497
0.775187
0.779382
0.778564
0.776977
0.775376
0.773574
0.771427
0.768888
0.765919
0.762478
0.758517
0.753991
0.748851
0.743045
0.736527
0.729254
0.721183
0.71227
0.702481
0.691792
0.680187
0.667663
0.654232
0.639921
0.624763
0.608827
0.592161
0.574858
0.556746
0.782433
0.78658
0.785748
0.784186
0.7826
0.780793
0.778627
0.776053
0.773033
0.76952
0.765463
0.760812
0.755511
0.749506
0.742744
0.735167
0.72672
0.717357
0.707035
0.695717
0.68338
0.670016
0.655632
0.64026
0.623948
0.606775
0.588837
0.570208
0.550997
0.788977
0.793044
0.792198
0.790667
0.7891
0.787294
0.785113
0.782511
0.779447
0.775871
0.771728
0.766962
0.761512
0.755318
0.748312
0.740429
0.731608
0.721788
0.710911
0.69893
0.685809
0.67153
0.656096
0.639537
0.62191
0.603309
0.583864
0.56371
0.543028
0.794871
0.798827
0.797966
0.796471
0.79493
0.793128
0.790939
0.788318
0.785219
0.781589
0.777371
0.772501
0.766913
0.760538
0.753299
0.745125
0.735934
0.725649
0.714202
0.701529
0.687577
0.672315
0.655734
0.637858
0.618751
0.59852
0.577323
0.555355
0.532877
0.800163
0.803982
0.803106
0.801655
0.800143
0.798352
0.796162
0.793528
0.790404
0.786732
0.78245
0.777491
0.77178
0.765239
0.757786
0.749327
0.739776
0.729034
0.71701
0.703623
0.6888
0.67249
0.654665
0.635341
0.614578
0.592499
0.569287
0.545203
0.520514
0.804905
0.808564
0.807674
0.806272
0.804795
0.80302
0.800837
0.7982
0.795061
0.791359
0.787027
0.781992
0.776175
0.769489
0.761837
0.753116
0.743219
0.732031
0.719436
0.705326
0.689601
0.672184
0.653023
0.632115
0.609511
0.585343
0.559822
0.533287
0.506019
0.809143
0.812624
0.811723
0.810377
0.80894
0.807187
0.805019
0.802389
0.799245
0.795524
0.791156
0.786063
0.780159
0.773347
0.76552
0.75656
0.746338
0.734725
0.721576
0.706745
0.690101
0.671531
0.65095
0.628323
0.603683
0.577163
0.549006
0.519624
0.489431
0.812924
0.816215
0.815305
0.814022
0.81263
0.810907
0.80876
0.806145
0.803007
0.799279
0.79489
0.789756
0.783786
0.776872
0.768897
0.759726
0.749213
0.737199
0.723518
0.707986
0.690424
0.670671
0.648598
0.624125
0.597249
0.568086
0.536917
0.504228
0.470652
0.81629
0.819381
0.818469
0.817256
0.815914
0.814227
0.812111
0.80952
0.806396
0.802673
0.798275
0.793118
0.787101
0.780112
0.772018
0.762672
0.751906
0.739532
0.725351
0.709146
0.690687
0.669747
0.646129
0.619696
0.590386
0.558269
0.523655
0.487116
0.449546
0.819279
0.82217
0.821261
0.820124
0.818838
0.817194
0.815116
0.812556
0.809455
0.805746
0.801352
0.796186
0.790145
0.783106
0.774927
0.765444
0.754468
0.741783
0.727154
0.71032
0.690999
0.668896
0.643715
0.61523
0.583301
0.547908
0.509364
0.468327
0.425996
0.821925
0.82462
0.823722
0.822669
0.821444
0.819849
0.817815
0.815292
0.812219
0.808531
0.804152
0.798993
0.792947
0.785886
0.777655
0.768075
0.756936
0.743998
0.728986
0.711589
0.691465
0.668245
0.64154
0.610959
0.57625
0.537255
0.494261
0.447948
0.399924
0.824255
0.82677
0.82589
0.824927
0.823767
0.822227
0.820242
0.817759
0.814719
0.811058
0.806702
0.801563
0.795533
0.788475
0.780225
0.770591
0.759342
0.746213
0.730893
0.713019
0.692189
0.667928
0.63977
0.607127
0.569541
0.526658
0.478705
0.426201
0.371305
0.826292
0.828655
0.827799
0.826929
0.825838
0.824356
0.822422
0.819981
0.816975
0.813344
0.80902
0.803917
0.797922
0.790896
0.782665
0.773022
0.761723
0.748474
0.732938
0.714697
0.693289
0.668124
0.638623
0.604
0.563583
0.516596
0.463175
0.403422
0.340309
0.828053
0.830307
0.829473
0.8287
0.827678
0.826255
0.824372
0.821973
0.819002
0.815409
0.811129
0.80608
0.800149
0.79319
0.785022
0.775429
0.764151
0.750873
0.735231
0.716764
0.694953
0.669088
0.638464
0.602009
0.558928
0.507748
0.448452
0.380214
0.307304
0.829551
0.831753
0.830933
0.830255
0.829296
0.827932
0.826099
0.823744
0.82082
0.817281
0.813074
0.808114
0.80229
0.79545
0.787409
0.777939
0.766773
0.75358
0.737977
0.719454
0.697458
0.671154
0.639759
0.60181
0.556413
0.50116
0.435913
0.35785
0.273182
0.830799
0.83301
0.832188
0.831598
0.830697
0.829388
0.827612
0.825319
0.822472
0.819034
0.814952
0.810143
0.804493
0.797844
0.790009
0.780753
0.76981
0.756833
0.741436
0.723066
0.701157
0.674752
0.643043
0.604159
0.557106
0.498241
0.427423
0.338412
0.239805
0.831811
0.834088
0.83324
0.832728
0.831877
0.83063
0.828935
0.82675
0.824044
0.820778
0.816899
0.812321
0.806923
0.800547
0.793004
0.784061
0.773455
0.760833
0.745814
0.72782
0.706286
0.680152
0.648601
0.609414
0.56151
0.499929
0.424246
0.32383
0.208378
0.832585
0.834971
0.834074
0.833628
0.832825
0.831659
0.830087
0.82807
0.825577
0.822562
0.81896
0.814681
0.809597
0.803552
0.796362
0.787796
0.777597
0.76541
0.750864
0.733354
0.712334
0.68665
0.655504
0.616363
0.568081
0.504544
0.424321
0.312859
0.175819
0.833081
0.835593
0.834631
0.834241
0.833483
0.832412
0.830984
0.829166
0.826918
0.824183
0.820884
0.816915
0.812148
0.806421
0.799556
0.791319
0.781462
0.769616
0.755423
0.73823
0.717536
0.69204
0.661066
0.621626
0.572748
0.506919
0.421574
0.297583
0.132995
0.833294
0.83592
0.834892
0.834546
0.833821
0.832817
0.831492
0.829816
0.827743
0.825211
0.82213
0.818383
0.813835
0.808316
0.801644
0.793573
0.783855
0.772092
0.757945
0.740696
0.719915
0.69409
0.662746
0.622258
0.572152
0.502885
0.412037
0.272447
0.0722081
0.833698
0.836389
0.835333
0.835038
0.834371
0.83344
0.832177
0.830542
0.828486
0.825958
0.822885
0.819161
0.814644
0.809156
0.802498
0.7944
0.784599
0.772662
0.758239
0.740609
0.719365
0.692856
0.660658
0.618714
0.56673
0.493534
0.39764
0.244996
0.00542461
0.836044
0.838719
0.837724
0.837584
0.837291
0.836911
0.836275
0.835196
0.833501
0.831068
0.827823
0.823716
0.818684
0.812606
0.805304
0.796556
0.78608
0.773529
0.758465
0.740278
0.718177
0.691131
0.657501
0.615251
0.560098
0.486836
0.384141
0.236706
0.0627227
0.35472
0.354086
0.353444
0.352797
0.352143
0.351483
0.350818
0.350147
0.349471
0.348791
0.348106
0.347417
0.346724
0.346027
0.345326
0.344621
0.343914
0.343203
0.342489
0.341772
0.341053
0.340332
0.339608
0.338883
0.338156
0.337428
0.336698
0.335967
0.335236
0.334503
0.333771
0.333038
0.332305
0.331572
0.33084
0.330108
0.329377
0.328647
0.327919
0.327192
0.326466
0.325743
0.325021
0.324302
0.323586
0.322872
0.322162
0.321454
0.32075
0.32005
0.319354
0.318662
0.317975
0.317292
0.316614
0.315941
0.315274
0.314612
0.313955
0.313305
0.31266
0.312022
0.311391
0.310766
0.310147
0.309536
0.308932
0.308335
0.307746
0.307164
0.306591
0.306025
0.305468
0.304919
0.304378
0.303846
0.303323
0.302809
0.302304
0.301808
0.301322
0.300845
0.300377
0.29992
0.299472
0.299034
0.298606
0.298188
0.29778
0.297383
0.296996
0.29662
0.296255
0.2959
0.295556
0.295223
0.294901
0.29459
0.294289
0.294
0.293722
0.293455
0.293199
0.292954
0.29272
0.292497
0.292284
0.292083
0.291892
0.291712
0.291543
0.291384
0.291234
0.291095
0.290966
0.290846
0.290736
0.290635
0.290543
0.290462
0.290389
0.290327
0.290273
0.290227
0.290189
0.290159
0.290134
0.290119
0.290106
0.290104
0.290106
0.290114
0.29013
0.29015
0.290185
0.290215
0.290281
0.290303
0.290455
0.355366
0.354712
0.354051
0.353385
0.352713
0.352036
0.351353
0.350665
0.349972
0.349274
0.348571
0.347864
0.347152
0.346436
0.345717
0.344993
0.344267
0.343537
0.342804
0.342068
0.341329
0.340588
0.339845
0.339099
0.338352
0.337603
0.336852
0.3361
0.335346
0.334592
0.333837
0.333082
0.332327
0.331571
0.330816
0.330062
0.329308
0.328556
0.327804
0.327055
0.326307
0.325561
0.324817
0.324076
0.323338
0.322602
0.32187
0.321141
0.320416
0.319694
0.318977
0.318264
0.317555
0.316852
0.316153
0.315459
0.314771
0.314088
0.313411
0.31274
0.312075
0.311417
0.310765
0.310121
0.309483
0.308853
0.30823
0.307615
0.307008
0.306409
0.305818
0.305235
0.304661
0.304096
0.303539
0.302992
0.302453
0.301925
0.301405
0.300895
0.300396
0.299906
0.299426
0.298957
0.298498
0.298049
0.297612
0.297185
0.296769
0.296364
0.29597
0.295587
0.295215
0.294854
0.294505
0.294167
0.293841
0.293527
0.293224
0.292932
0.292653
0.292385
0.292129
0.291885
0.291652
0.291432
0.291223
0.291025
0.29084
0.290666
0.290504
0.290353
0.290214
0.290086
0.28997
0.289865
0.289772
0.289689
0.289617
0.289554
0.289501
0.289456
0.289419
0.289391
0.28937
0.289357
0.289351
0.289345
0.289357
0.289354
0.289374
0.289377
0.289402
0.289396
0.289437
0.289404
0.289412
0.289373
0.289326
0.356474
0.355781
0.355084
0.354383
0.353677
0.352966
0.352249
0.351527
0.350801
0.350068
0.34933
0.348587
0.347839
0.347087
0.346329
0.345566
0.3448
0.344029
0.343254
0.342476
0.341694
0.34091
0.340123
0.339333
0.338542
0.337749
0.336954
0.336159
0.335362
0.334564
0.333766
0.332968
0.33217
0.331372
0.330575
0.329778
0.328983
0.328188
0.327396
0.326605
0.325816
0.32503
0.324246
0.323465
0.322687
0.321912
0.321142
0.320375
0.319612
0.318853
0.318099
0.317349
0.316605
0.315865
0.315131
0.314403
0.313681
0.312964
0.312254
0.311551
0.310854
0.310164
0.309481
0.308806
0.308138
0.307478
0.306827
0.306183
0.305547
0.304921
0.304302
0.303693
0.303093
0.302503
0.301921
0.30135
0.300788
0.300236
0.299695
0.299164
0.298643
0.298133
0.297634
0.297146
0.296669
0.296203
0.295749
0.295306
0.294874
0.294454
0.294046
0.29365
0.293266
0.292893
0.292533
0.292185
0.29185
0.291526
0.291216
0.290918
0.290632
0.29036
0.2901
0.289853
0.289618
0.289397
0.289189
0.288995
0.288814
0.288646
0.288492
0.288351
0.288224
0.288112
0.288013
0.287928
0.287856
0.287799
0.287755
0.287724
0.287707
0.287703
0.287712
0.287734
0.287769
0.287816
0.287877
0.287948
0.288028
0.288116
0.288213
0.288311
0.288411
0.288554
0.288524
0.288876
0.288598
0.28943
0.288488
0.358187
0.357455
0.356717
0.355973
0.355224
0.354468
0.353706
0.352939
0.352165
0.351387
0.350603
0.349813
0.349019
0.348218
0.347413
0.346605
0.345792
0.344975
0.344154
0.343329
0.342501
0.341668
0.340832
0.339992
0.339149
0.338302
0.337453
0.336602
0.335748
0.334893
0.334036
0.333179
0.332321
0.331462
0.330605
0.329747
0.328891
0.328036
0.327182
0.326331
0.325481
0.324634
0.32379
0.322949
0.322111
0.321276
0.320446
0.31962
0.318798
0.317981
0.317168
0.316361
0.31556
0.314765
0.313975
0.313192
0.312415
0.311645
0.310883
0.310128
0.30938
0.30864
0.307908
0.307184
0.306469
0.305762
0.305064
0.304375
0.303696
0.303026
0.302365
0.301715
0.301075
0.300444
0.299825
0.299216
0.298617
0.29803
0.297453
0.296888
0.296334
0.295791
0.29526
0.29474
0.294233
0.293737
0.293252
0.29278
0.292321
0.291873
0.291438
0.291017
0.290608
0.290212
0.289829
0.289459
0.289103
0.28876
0.288431
0.288116
0.287815
0.287528
0.287256
0.286998
0.286755
0.286527
0.286314
0.286116
0.285934
0.285768
0.285618
0.285484
0.285367
0.285266
0.285181
0.285114
0.285064
0.285031
0.285017
0.285021
0.285043
0.285085
0.285146
0.285228
0.28533
0.285457
0.285599
0.285761
0.285969
0.286178
0.286377
0.286828
0.286633
0.287765
0.286629
0.289237
0.286336
0.291468
0.28514
0.360177
0.35942
0.358653
0.357878
0.357092
0.356298
0.355493
0.354683
0.353864
0.353035
0.352198
0.351351
0.350499
0.349643
0.348779
0.347904
0.347024
0.346137
0.345243
0.344345
0.343441
0.342534
0.341623
0.34071
0.339793
0.338875
0.337955
0.337034
0.336112
0.335189
0.334264
0.333339
0.332413
0.331486
0.33056
0.329633
0.328707
0.327782
0.326859
0.325936
0.325015
0.324097
0.323181
0.322268
0.321358
0.320452
0.31955
0.318653
0.31776
0.316873
0.315992
0.315116
0.314246
0.313383
0.312527
0.311678
0.310836
0.310002
0.309176
0.308357
0.307547
0.306746
0.305953
0.30517
0.304395
0.303631
0.302875
0.30213
0.301394
0.300669
0.299954
0.29925
0.298556
0.297873
0.297202
0.296541
0.295892
0.295255
0.29463
0.294016
0.293414
0.292825
0.292248
0.291684
0.291133
0.290595
0.290071
0.289559
0.289062
0.288578
0.288109
0.287654
0.287213
0.286787
0.286375
0.285978
0.285597
0.285231
0.28488
0.284545
0.284227
0.283924
0.283637
0.283367
0.283114
0.282878
0.282658
0.282456
0.282272
0.282105
0.281956
0.281825
0.281713
0.28162
0.281546
0.281491
0.281457
0.281442
0.281449
0.281479
0.28153
0.281605
0.281705
0.281832
0.281984
0.282171
0.282405
0.282651
0.282909
0.283446
0.283346
0.284788
0.283532
0.287103
0.283113
0.290647
0.281342
0.29584
0.273976
0.362053
0.361259
0.360457
0.359637
0.358801
0.357958
0.357103
0.356231
0.355349
0.354454
0.353553
0.352642
0.351722
0.350788
0.349848
0.348905
0.347957
0.347001
0.34604
0.345073
0.3441
0.34312
0.342135
0.341143
0.340147
0.339147
0.338142
0.337133
0.336122
0.335109
0.334094
0.33308
0.332065
0.33105
0.330035
0.32902
0.328007
0.326994
0.325983
0.324975
0.323969
0.322965
0.321965
0.320969
0.319976
0.318988
0.318004
0.317026
0.316052
0.315084
0.314123
0.313167
0.312218
0.311277
0.310342
0.309415
0.308497
0.307586
0.306684
0.30579
0.304906
0.304031
0.303166
0.302311
0.301466
0.300631
0.299808
0.298995
0.298194
0.297404
0.296626
0.29586
0.295106
0.294364
0.293636
0.29292
0.292217
0.291528
0.290852
0.290191
0.289543
0.288909
0.28829
0.287685
0.287095
0.286519
0.28596
0.285414
0.284885
0.284371
0.283872
0.283389
0.282922
0.28247
0.282035
0.281617
0.281214
0.280829
0.28046
0.280108
0.279773
0.279455
0.279155
0.278872
0.278607
0.27836
0.278132
0.277921
0.277729
0.277556
0.277403
0.277268
0.277154
0.27706
0.276987
0.276936
0.276906
0.2769
0.276917
0.27696
0.277029
0.277125
0.277251
0.277406
0.277594
0.277802
0.278054
0.278412
0.27849
0.279339
0.278834
0.280626
0.279101
0.282185
0.279491
0.283926
0.278632
0.290731
0.259027
0.364506
0.363674
0.362813
0.361938
0.361049
0.36014
0.359211
0.358264
0.357312
0.356343
0.355362
0.354362
0.353343
0.35232
0.351284
0.350229
0.349158
0.348081
0.346995
0.345901
0.344802
0.343699
0.34259
0.341477
0.340355
0.339231
0.338106
0.336981
0.335855
0.334731
0.333606
0.332477
0.331349
0.330223
0.329096
0.32797
0.326844
0.325719
0.324595
0.323472
0.322349
0.321229
0.320114
0.319004
0.3179
0.316803
0.315712
0.31463
0.313555
0.312489
0.311432
0.310384
0.309345
0.308316
0.307297
0.306288
0.305289
0.304301
0.303323
0.302357
0.301402
0.300458
0.299526
0.298606
0.297698
0.296802
0.295919
0.295048
0.294191
0.293345
0.292514
0.291695
0.29089
0.290099
0.289321
0.288559
0.287808
0.287074
0.286353
0.285646
0.284955
0.284276
0.283614
0.282967
0.282335
0.281719
0.281118
0.280533
0.279965
0.279412
0.278876
0.278357
0.277855
0.277369
0.276901
0.27645
0.276017
0.275601
0.275202
0.274821
0.274459
0.274114
0.273787
0.273479
0.27319
0.272919
0.272667
0.272434
0.272221
0.272028
0.271854
0.271701
0.27157
0.271459
0.271371
0.271305
0.271261
0.271241
0.271244
0.271271
0.271323
0.271397
0.271495
0.271615
0.27176
0.271919
0.272038
0.27237
0.272286
0.272929
0.272547
0.273489
0.272952
0.273845
0.27394
0.274075
0.274159
0.281001
0.249068
0.368114
0.367202
0.366268
0.36532
0.364338
0.363325
0.362327
0.361309
0.360241
0.359153
0.358043
0.356936
0.355822
0.354675
0.353511
0.352341
0.351166
0.349985
0.348791
0.347589
0.346375
0.34515
0.343916
0.342668
0.341422
0.340176
0.338917
0.337644
0.336361
0.335068
0.333808
0.332592
0.331379
0.330162
0.328945
0.327729
0.326512
0.325296
0.324077
0.322849
0.321608
0.320371
0.319139
0.317915
0.316699
0.31549
0.31429
0.313097
0.311914
0.31074
0.309576
0.308423
0.307281
0.306151
0.305031
0.303922
0.302826
0.301739
0.300664
0.2996
0.298548
0.297507
0.296479
0.295464
0.294462
0.293473
0.292498
0.291537
0.290591
0.289659
0.288742
0.287841
0.286953
0.286081
0.285228
0.284386
0.283565
0.282758
0.281966
0.281195
0.280437
0.279698
0.278976
0.278272
0.277585
0.276912
0.27626
0.275622
0.275002
0.2744
0.273813
0.273245
0.272692
0.272158
0.27164
0.27114
0.270657
0.270192
0.269745
0.269315
0.268904
0.268511
0.268137
0.267781
0.267445
0.267127
0.266828
0.266549
0.26629
0.26605
0.26583
0.26563
0.26545
0.265291
0.265151
0.265031
0.26493
0.264849
0.264787
0.264738
0.26471
0.264694
0.264692
0.264702
0.264726
0.264777
0.264749
0.264931
0.264805
0.265135
0.264936
0.265332
0.265269
0.265262
0.265671
0.264788
0.264368
0.271384
0.242966
0.372874
0.371874
0.370852
0.369798
0.368723
0.367627
0.366478
0.365312
0.364152
0.362984
0.361783
0.360551
0.359308
0.358059
0.356801
0.355521
0.354203
0.352863
0.351519
0.350164
0.348795
0.347412
0.346074
0.344794
0.343475
0.342081
0.340669
0.339265
0.337865
0.33646
0.335021
0.333551
0.332086
0.330636
0.329198
0.327773
0.326365
0.324973
0.323597
0.32225
0.320932
0.319593
0.318234
0.316884
0.315542
0.314208
0.312879
0.311573
0.310288
0.309015
0.30775
0.306494
0.305246
0.304005
0.302774
0.301555
0.300338
0.299132
0.29794
0.296762
0.295601
0.294457
0.29333
0.29222
0.291126
0.29005
0.288989
0.287946
0.28692
0.285911
0.284919
0.283944
0.282985
0.282043
0.28112
0.280218
0.279327
0.278453
0.2776
0.276757
0.275936
0.27513
0.274341
0.273565
0.272808
0.272071
0.271348
0.270646
0.269961
0.269295
0.268648
0.26802
0.26741
0.26682
0.266249
0.265697
0.265163
0.264649
0.264153
0.263676
0.263217
0.262777
0.262355
0.261952
0.261568
0.261201
0.260853
0.260523
0.260211
0.259917
0.259641
0.259381
0.259138
0.258911
0.2587
0.258505
0.258323
0.258154
0.258
0.257855
0.257724
0.257607
0.257495
0.257396
0.257301
0.257258
0.257124
0.257182
0.257007
0.257145
0.256988
0.257085
0.25725
0.2571
0.257469
0.256674
0.255316
0.261764
0.237435
0.378158
0.377014
0.375836
0.374624
0.373385
0.372124
0.370824
0.369527
0.368196
0.366812
0.365417
0.363992
0.362552
0.361093
0.359603
0.358102
0.356625
0.355143
0.353623
0.352084
0.350563
0.349045
0.34751
0.345943
0.344355
0.342789
0.341242
0.339684
0.338135
0.336595
0.335051
0.3335
0.331951
0.33041
0.328863
0.327312
0.325758
0.324204
0.322653
0.321103
0.319543
0.318008
0.316516
0.315036
0.313564
0.312105
0.310661
0.309218
0.307773
0.306339
0.304917
0.303509
0.302115
0.300737
0.299374
0.298028
0.296711
0.295418
0.294146
0.292897
0.291666
0.290455
0.289259
0.288079
0.286908
0.28575
0.284607
0.283482
0.282376
0.281287
0.280218
0.279155
0.278125
0.277107
0.276101
0.275115
0.274135
0.273195
0.272273
0.271375
0.270494
0.269619
0.268773
0.267959
0.267159
0.266376
0.265619
0.264877
0.264155
0.263452
0.262767
0.2621
0.261452
0.260821
0.260209
0.259614
0.259038
0.258479
0.257939
0.257417
0.256914
0.256428
0.25596
0.255509
0.255076
0.25466
0.25426
0.253877
0.25351
0.253158
0.252822
0.2525
0.252193
0.251899
0.251619
0.251352
0.251099
0.250857
0.25063
0.250415
0.250212
0.250026
0.249853
0.249694
0.249536
0.249444
0.249276
0.249262
0.249103
0.249139
0.24904
0.24901
0.249215
0.248685
0.248512
0.247882
0.246746
0.252203
0.231271
0.383589
0.382243
0.380874
0.379472
0.378037
0.376576
0.375081
0.373542
0.371975
0.370399
0.368835
0.367235
0.3656
0.36396
0.36232
0.360674
0.358983
0.35726
0.355544
0.353854
0.35215
0.350407
0.348581
0.346713
0.344907
0.343118
0.341309
0.339572
0.337873
0.336095
0.334266
0.332477
0.330753
0.329049
0.327344
0.325629
0.323905
0.322178
0.320456
0.318741
0.31705
0.315395
0.313755
0.312122
0.310504
0.308901
0.30731
0.305725
0.30415
0.302589
0.301045
0.29952
0.298014
0.296529
0.295065
0.293619
0.292191
0.290779
0.289382
0.287999
0.286634
0.285283
0.283953
0.282637
0.28134
0.280075
0.278833
0.277611
0.276413
0.275233
0.274077
0.27295
0.271829
0.270737
0.269682
0.268643
0.267649
0.266657
0.265679
0.264719
0.26377
0.262864
0.261978
0.261103
0.260248
0.259417
0.258601
0.257807
0.257035
0.256284
0.255553
0.254845
0.254156
0.25349
0.252843
0.252216
0.251608
0.251019
0.250449
0.249897
0.249362
0.248844
0.248344
0.24786
0.247393
0.246941
0.246506
0.246086
0.245683
0.245294
0.244921
0.244563
0.24422
0.243893
0.24358
0.243283
0.243002
0.242737
0.242487
0.242256
0.242041
0.241842
0.241666
0.241508
0.241351
0.241259
0.241106
0.241081
0.240929
0.240968
0.240885
0.24071
0.240703
0.240138
0.239736
0.239169
0.238228
0.242974
0.22458
0.389851
0.388315
0.386714
0.385103
0.383464
0.381788
0.380086
0.378338
0.376597
0.374835
0.373014
0.37117
0.369315
0.367431
0.365503