/*--------------------------------*- C++ -*----------------------------------*\
| =========                 |                                                 |
| \\      /  F ield         | OpenFOAM: The Open Source CFD Toolbox           |
|  \\    /   O peration     | Version:  5.x                                   |
|   \\  /    A nd           | Web:      www.OpenFOAM.org                      |
|    \\/     M anipulation  |                                                 |
\*---------------------------------------------------------------------------*/
/*   Windows 32 and 64 bit porting by blueCAPE: http://www.bluecape.com.pt   *\
|  Based on Windows porting (2.0.x v4) by Symscape: http://www.symscape.com   |
\*---------------------------------------------------------------------------*/
FoamFile
{
    version     2.0;
    format      ascii;
    class       surfaceScalarField;
    location    "210";
    object      phi;
}
// * * * * * * * * * * * * * * * * * * * * * * * * * * * * * * * * * * * * * //

dimensions      [0 3 -1 0 0 0 0];

internalField   nonuniform List<scalar> 
87341
(
0.364632
39.5584
0.525827
39.7618
0.490833
39.958
0.594911
39.819
0.630069
39.8879
0.670949
39.8822
0.708186
39.8858
0.75171
39.8795
0.792365
39.8824
0.826931
39.8885
0.858794
39.8912
0.887581
39.8942
0.914542
39.8961
0.939407
39.8982
0.961893
39.9006
0.981983
39.9029
1.00046
39.9046
1.01673
39.9068
1.03164
39.9081
1.04572
39.909
1.05849
39.9103
1.07079
39.9107
1.08251
39.9113
1.09335
39.9122
1.10408
39.9123
1.11436
39.9128
1.12409
39.9133
1.13392
39.9132
39.9134
1.14351
0.965532
38.5929
1.35438
39.373
1.46188
39.8505
1.59479
39.686
1.62729
39.8554
1.78181
39.7276
1.87388
39.7937
2.00182
39.7516
2.09176
39.7924
2.19996
39.7803
2.3049
39.7862
2.40365
39.7955
2.49352
39.8062
2.57518
39.8165
2.65061
39.8251
2.72139
39.8322
2.78613
39.8398
2.84718
39.8457
2.90444
39.8509
2.95733
39.8561
3.00825
39.8593
3.05564
39.8634
3.09976
39.8672
3.14246
39.8695
3.18191
39.8729
3.21904
39.8756
3.25494
39.8774
3.28785
39.8803
39.882
3.3193
2.03266
36.5602
3.34677
38.0589
4.12336
39.0739
4.20368
39.6057
4.36135
39.6977
4.29334
39.7956
4.32557
39.7615
4.2963
39.7808
4.31671
39.772
4.33017
39.7668
4.34425
39.7722
4.36916
39.7706
4.39986
39.7755
4.43411
39.7823
4.47127
39.788
4.50888
39.7946
4.54911
39.7996
4.59061
39.8042
4.63241
39.8091
4.67594
39.8125
4.71788
39.8174
4.75975
39.8215
4.80268
39.8243
4.84328
39.8289
4.88423
39.8319
4.92567
39.8342
4.9647
39.8384
5.00448
39.8405
39.8423
5.04416
1.69551
34.8647
3.49272
36.2617
4.93967
37.627
5.82481
38.7206
6.12335
39.3992
6.21086
39.7081
6.22622
39.7461
6.24432
39.7627
6.25529
39.7611
6.25249
39.7696
6.24905
39.7756
6.23313
39.7865
6.22072
39.7879
6.21717
39.7858
6.21853
39.7866
6.22926
39.7838
6.2458
39.7831
6.26421
39.7858
6.28633
39.7869
6.31058
39.7883
6.33812
39.7899
6.36683
39.7928
6.39452
39.7966
6.42668
39.7967
6.4594
39.7992
6.48946
39.8041
6.52411
39.8037
6.55874
39.8059
39.8102
6.59082
1.07878
33.7859
2.43763
34.9028
4.00155
36.0631
5.45651
37.2656
6.51602
38.3397
7.09034
39.1338
7.28539
39.5511
7.3241
39.724
7.35497
39.7302
7.38694
39.7376
7.41952
39.743
7.45859
39.7474
7.49311
39.7534
7.52081
39.7581
7.55299
39.7544
7.5857
39.7511
7.61932
39.7494
7.65319
39.7519
7.68632
39.7538
7.72641
39.7482
7.7674
39.7489
7.80481
39.7554
7.85001
39.7514
7.8965
39.7502
7.93943
39.7562
7.98868
39.7549
8.03735
39.7551
8.08277
39.7605
39.7594
8.13361
0.840182
32.9457
1.83745
33.9056
2.99143
34.9091
4.30598
35.9511
5.64477
37.0009
6.76681
38.0118
7.47822
38.8397
7.82058
39.3817
7.94749
39.6033
8.02839
39.6567
8.11108
39.6603
8.19033
39.6682
8.27335
39.6704
8.35545
39.676
8.42958
39.6803
8.50567
39.675
8.58149
39.6736
8.65126
39.6822
8.72506
39.68
8.79591
39.6773
8.86195
39.6828
8.9363
39.681
9.00856
39.6791
9.07544
39.6834
9.14848
39.6832
9.21898
39.6844
9.28722
39.6868
9.36175
39.686
39.6871
9.434
0.732325
32.2134
1.56496
33.0729
2.50003
33.974
3.54163
34.9095
4.67934
35.8632
5.87566
36.8155
6.96947
37.7459
7.7774
38.5737
8.21595
39.1647
8.40859
39.4641
8.5291
39.5398
8.65232
39.545
8.7707
39.552
8.88947
39.5573
9.01106
39.5587
9.12636
39.5597
9.23228
39.5677
9.34659
39.5678
9.45902
39.5676
9.56265
39.5737
9.67267
39.5728
9.77676
39.5769
9.8752
39.5807
9.97964
39.5789
10.0786
39.5842
10.1755
39.5875
10.2755
39.5869
10.3666
39.5948
39.5961
10.4576
0.679891
31.5335
1.42888
32.324
2.24965
33.1532
3.14441
34.0147
4.11052
34.897
5.13874
35.7872
6.21425
36.6704
7.26272
37.5253
8.10565
38.3218
8.62945
38.9403
8.87203
39.2972
9.01642
39.4006
9.16032
39.4081
9.29618
39.4214
9.4315
39.4234
9.56663
39.4246
9.70978
39.4245
9.8485
39.4291
9.97651
39.4396
10.1154
39.4348
10.2493
39.439
10.3822
39.444
10.5201
39.4427
10.6488
39.4502
10.7739
39.4591
10.902
39.4594
11.0231
39.4657
11.1479
39.47
39.4699
11.2741
0.644647
30.8889
1.33819
31.6304
2.08555
32.4059
2.88857
33.2117
3.74653
34.0391
4.65565
34.8781
5.60808
35.7179
6.58748
36.5459
7.56278
37.3465
8.40328
38.0998
8.97535
38.7252
9.25681
39.1191
9.42794
39.237
9.60408
39.2453
9.76188
39.2656
9.92452
39.262
10.0847
39.2644
10.2417
39.2721
10.4118
39.2695
10.5714
39.2752
10.7275
39.2829
10.8858
39.2857
11.0353
39.2931
11.1831
39.3024
11.3382
39.3041
11.4858
39.3118
11.6339
39.3177
11.7783
39.3256
39.3372
11.911
0.617551
30.2713
1.27674
30.9712
1.9762
31.7064
2.71744
32.4705
3.50051
33.256
4.32366
34.055
5.18288
34.8587
6.07078
35.658
6.97507
36.4422
7.87622
37.1986
8.69358
37.9078
9.28888
38.5238
9.6004
38.9255
9.80055
39.0451
10.0188
39.0473
10.2161
39.0647
10.4079
39.0727
10.6091
39.0708
10.8007
39.0779
10.9869
39.089
11.1763
39.0935
11.3594
39.1026
11.5395
39.1131
11.7218
39.1201
11.8969
39.129
12.0667
39.142
12.2293
39.155
12.3914
39.1635
39.1704
12.5583
0.613558
29.6578
1.25925
30.3255
1.93801
31.0277
2.65032
31.7582
3.3959
32.5104
4.17348
33.2774
4.98064
34.0516
5.81335
34.8253
6.66535
35.5902
7.52691
36.3371
8.38082
37.0539
9.18233
37.7223
9.79172
38.3161
10.1303
38.7065
10.3527
38.8248
10.5877
38.8297
10.823
38.8373
11.045
38.8489
11.2551
38.8677
11.4719
38.8722
11.6873
38.8781
11.904
38.8859
12.1157
38.9014
12.3258
38.91
12.5216
38.9331
12.7196
38.9441
12.9262
38.9485
13.1299
38.9598
38.979
13.3213
0.622983
29.0348
1.27294
29.6756
1.95109
30.3495
2.65761
31.0516
3.3922
31.7758
4.15382
32.5158
4.94065
33.2647
5.74998
34.0159
6.57786
34.7623
7.41851
35.4964
8.2628
36.2096
9.09427
36.8908
9.8861
37.5242
10.504
38.0886
10.862
38.4668
11.1058
38.586
11.3539
38.5892
11.5956
38.6072
11.8421
38.6212
12.093
38.6213
12.3339
38.6372
12.5533
38.6664
12.7832
38.6715
13.0069
38.6863
13.2403
38.6998
13.4788
38.7055
13.6978
38.7295
13.8945
38.7632
38.7709
14.1025
0.632871
28.4019
1.29031
29.0181
1.97244
29.6674
2.67897
30.3451
3.4093
31.0455
4.16259
31.7625
4.93733
32.49
5.73132
33.2219
6.54159
33.9521
7.36408
34.674
8.19299
35.3807
9.01945
36.0644
9.82871
36.715
10.599
37.3184
11.2111
37.8547
11.5852
38.2119
11.8591
38.3153
12.1248
38.3415
12.4121
38.3339
12.6738
38.3596
12.9207
38.3903
13.1993
38.3878
13.4753
38.3956
13.7245
38.4371
13.975
38.4493
14.2038
38.4767
14.425
38.5084
14.6787
38.5095
38.5191
14.9305
0.641707
27.7602
1.30551
28.3543
1.99136
28.9815
2.6989
29.6376
3.42695
30.3175
4.17414
31.0153
4.9391
31.725
5.71995
32.4411
6.51419
33.1578
7.3186
33.8695
8.12904
34.5703
8.93978
35.2536
9.74252
35.9122
10.5242
36.5367
11.265
37.1138
11.8572
37.6197
12.2361
37.9364
12.5741
38.0036
12.8651
38.0428
13.1542
38.0706
13.4684
38.0761
13.7587
38.0975
14.0161
38.1382
14.3135
38.1397
14.6023
38.1605
14.874
38.2049
15.1611
38.2213
15.4164
38.2541
38.2822
15.6533
0.652474
27.1077
1.32483
27.682
2.01676
28.2896
2.728
28.9263
3.45771
29.5878
4.20408
30.2689
4.96516
30.9639
5.73918
31.6671
6.52399
32.373
7.31685
33.0767
8.11443
33.7727
8.91254
34.4555
9.70564
35.1191
10.4859
35.7564
11.2416
36.3581
11.949
36.9123
12.4979
37.3876
12.8678
37.6337
13.2041
37.7065
13.5477
37.727
13.8764
37.7474
14.21
37.7639
14.5571
37.7911
14.8748
37.8219
15.1562
37.8791
15.4596
37.9016
15.7593
37.9216
16.0633
37.9501
37.9773
16.3682
0.6644
26.4433
1.34722
26.9992
2.04778
27.589
2.76535
28.2087
3.49925
28.8539
4.24835
29.5198
5.01054
30.2018
5.78342
30.8942
6.56491
31.5915
7.3527
32.2889
8.14399
32.9814
8.93548
33.664
9.72315
34.3315
10.5018
34.9777
11.2644
35.5955
12.001
36.1756
12.6801
36.7086
13.171
37.1427
13.5577
37.3198
13.9476
37.3371
14.3125
37.3824
14.6383
37.4381
14.9593
37.4701
15.2932
37.488
15.6498
37.5224
16.0106
37.5408
16.3356
37.5966
16.6261
37.6595
37.6909
16.9124
0.678024
25.7653
1.37349
26.3037
2.08557
26.877
2.81326
27.4811
3.55546
28.1117
4.31115
28.7641
5.07903
29.4339
5.85688
30.1163
6.64212
30.8063
7.43249
31.4985
8.22564
32.1882
9.01874
32.8709
9.80851
33.5417
10.591
34.1952
11.3611
34.8255
12.1118
35.4249
12.836
35.9844
13.4825
36.4961
13.9741
36.8282
14.3672
36.9441
14.7331
37.0166
15.1254
37.0457
15.5196
37.0759
15.9029
37.1048
16.2736
37.1517
16.6094
37.205
16.9415
37.2645
17.2974
37.3036
37.3426
17.6458
0.693022
25.0723
1.40281
25.5939
2.1285
26.1513
2.86901
26.7405
3.6231
27.3576
4.38934
27.9979
5.16642
28.6568
5.95295
29.3298
6.74663
30.0126
7.54485
30.7003
8.34521
31.3879
9.1452
32.0709
9.94192
32.745
10.732
33.4052
11.5112
34.0462
12.2744
34.6617
13.0148
35.244
13.7232
35.7878
14.2965
36.2548
14.7355
36.5052
15.1831
36.5689
15.6152
36.6136
16.0234
36.6678
16.4295
36.6987
16.8273
36.7539
17.2065
36.8259
17.5818
36.8892
17.9297
36.9558
36.9737
18.2985
0.708519
24.3638
1.43346
24.869
2.17382
25.4109
2.92842
25.9859
3.69597
26.59
4.47494
27.2189
5.26371
27.868
6.06072
28.5328
6.86436
29.209
7.67226
29.8924
8.48181
30.5783
9.29056
31.2622
10.0958
31.9398
10.8945
32.6065
11.6834
33.2573
12.4583
33.8868
13.2141
34.4882
13.9469
35.055
14.625
35.5767
15.186
35.9442
15.6693
36.0856
16.1459
36.137
16.5825
36.2311
16.9703
36.311
17.3491
36.3751
17.7543
36.4207
18.1963
36.4471
18.6137
36.5384
36.6051
18.9823
0.725406
23.6384
1.46709
24.1273
2.22399
24.654
2.99489
25.215
3.77846
25.8065
4.57317
26.4242
5.3774
27.0638
6.18936
27.7208
7.00736
28.391
7.82965
29.0701
8.65386
29.7541
9.47743
30.4386
10.2979
31.1193
11.1125
31.7918
11.9183
32.4516
12.7116
33.0934
13.4884
33.7115
14.2442
34.2992
14.9618
34.8591
15.586
35.32
16.1048
35.5668
16.5491
35.6927
17.0217
35.7585
17.5317
35.8009
18.0295
35.8773
18.4928
35.9573
18.8933
36.0466
19.2977
36.134
36.1822
19.7206
0.743684
22.8947
1.50368
23.3673
2.27894
23.8787
3.06824
24.4257
3.87024
25.0045
4.68347
25.611
5.5063
26.241
6.33697
26.8902
7.17363
27.5543
8.01451
28.2292
8.85766
28.911
9.70072
29.5956
10.5413
30.2787
11.3767
30.9564
12.2042
31.6242
13.0203
32.2773
13.8211
32.9106
14.6018
33.5185
15.3632
34.0977
16.0491
34.6341
16.6284
34.9875
17.1618
35.1594
17.6412
35.279
18.0813
35.3609
18.5471
35.4115
19.0357
35.4687
19.5079
35.5744
19.9389
35.703
35.8154
20.3058
0.762609
22.1321
1.54173
22.5882
2.33628
23.0842
3.14508
23.6169
3.9668
24.1827
4.79997
24.7778
5.64298
25.3979
6.49409
26.0391
7.35141
26.697
8.21294
27.3677
9.07675
28.0472
9.94069
28.7316
10.8022
29.4172
11.6587
30.0999
12.5072
30.7757
13.3443
31.4402
14.1662
32.0888
14.9684
32.7163
15.7457
33.3204
16.4859
33.8938
17.1256
34.3478
17.6834
34.6015
18.2761
34.6864
18.8443
34.7927
19.3401
34.9157
19.7425
35.0663
20.1734
35.1435
20.6383
35.2381
35.32
21.1336
0.781518
21.3505
1.57976
21.7899
2.39373
22.2702
3.22227
22.7884
4.0641
23.3409
4.91779
23.9241
5.78177
24.534
6.65431
25.1665
7.53357
25.8177
8.41757
26.4837
9.30429
27.1605
10.1916
27.8443
11.0771
28.5316
11.9584
29.2186
12.8327
29.9014
13.6971
30.5758
14.5484
31.2375
15.3829
31.8818
16.1995
32.5038
16.9795
33.1139
17.6871
33.6403
18.2974
33.9911
18.8047
34.1791
19.2936
34.3038
19.831
34.3784
20.4235
34.4738
20.944
34.6229
21.3769
34.8052
34.9746
21.7223
0.799238
20.5513
1.61551
20.9737
2.44783
21.4379
3.29511
21.9411
4.1561
22.4799
5.02941
23.0508
5.91352
23.6499
6.80672
24.2733
7.7072
24.9173
8.613
25.5779
9.52203
26.2514
10.4321
26.9342
11.3411
27.6227
12.2464
28.3133
13.1456
29.0022
14.0359
29.6855
14.9142
30.3592
15.7773
31.0187
16.6209
31.6602
17.449
32.2858
18.1999
32.8894
18.8635
33.3275
19.523
33.5197
20.0727
33.7541
20.4976
33.9534
20.8926
34.0788
21.4141
34.1014
22.0244
34.195
34.4705
22.5285
0.815469
19.7358
1.64823
20.1409
2.49742
20.5887
3.36201
21.0765
4.24086
21.6011
5.13265
22.159
6.03589
22.7466
6.94897
23.3602
7.8701
23.9961
8.79738
24.6506
9.72875
25.3201
10.6621
26.0009
11.5951
26.6897
12.5254
27.3829
13.4506
28.077
14.3679
28.7683
15.2742
29.4529
16.1661
30.1267
17.0403
30.786
17.8925
31.4336
18.719
32.0629
19.4022
32.6443
19.9474
32.9745
20.5532
33.1483
21.2408
33.2658
21.8246
33.495
22.2197
33.7064
22.63
33.7846
33.9765
23.1241
0.829461
18.9064
1.67648
19.2939
2.54029
19.7249
3.42001
20.1968
4.31457
20.7065
5.22276
21.2508
6.14319
21.8262
7.0743
22.4291
8.01438
23.0561
8.96157
23.7034
9.91388
24.3677
10.8692
25.0456
11.8252
25.7337
12.7796
26.4285
13.7298
27.1268
14.6729
27.8251
15.6059
28.5199
16.5251
29.2076
17.4255
29.8856
18.3053
30.5537
19.1466
31.2216
19.9547
31.8362
20.6785
32.2507
21.1744
32.6525
21.608
32.8322
22.2242
32.8788
22.8375
33.0931
23.3501
33.2719
33.5403
23.7863
0.840656
18.0657
1.69907
18.4355
2.57461
18.8494
3.46653
19.3049
4.3739
19.7991
5.29561
20.3291
6.23036
20.8914
7.17669
21.4828
8.13295
22.0998
9.09735
22.739
10.0679
23.3972
11.0426
24.071
12.0191
24.7572
12.995
25.4526
13.9677
26.1541
14.9345
26.8583
15.8923
27.5621
16.8376
28.2623
17.7673
28.9559
18.6788
29.6423
19.5715
30.3289
20.3521
31.0556
21.0475
31.5553
21.8346
31.8653
22.3855
32.2813
22.7637
32.5006
23.2655
32.5913
23.7835
32.7539
32.9881
24.3357
0.848601
17.2171
1.71509
17.569
2.59898
17.9655
3.49967
18.4042
4.41637
18.8824
5.3481
19.3974
6.29365
19.9459
7.25166
20.5248
8.22056
21.1309
9.19862
21.761
10.1839
22.4119
11.1744
23.0805
12.1678
23.7638
13.1618
24.4587
14.1536
25.1622
15.1406
25.8713
16.1196
26.5831
17.0873
27.2945
18.0402
28.003
18.976
28.7065
19.899
29.4059
20.8279
30.1267
21.5255
30.8577
22.1168
31.274
22.8703
31.5278
23.4745
31.8963
23.9148
32.151
24.3467
32.322
32.533
24.8018
0.853089
16.364
1.7241
16.698
2.61271
17.0769
3.51848
17.4984
4.44077
17.9602
5.37871
18.4594
6.33123
18.9934
7.29707
19.559
8.27474
20.1532
9.26258
20.7731
10.2587
21.4157
11.2612
22.078
12.2678
22.7572
13.2762
23.4503
14.2837
24.1546
15.2878
24.8673
16.2853
25.5856
17.2732
26.3067
18.2481
27.0281
19.2063
27.7483
20.1435
28.4686
21.0788
29.1914
22.0206
29.9159
22.671
30.6236
23.1663
31.0325
23.8328
31.2298
24.4289
31.5549
24.8974
31.8535
32.0695
25.361
0.854093
15.5099
1.72605
15.826
2.61571
16.1872
3.52282
16.5913
4.4469
17.0361
5.38722
17.5191
6.34286
18.0377
7.31264
18.5892
8.29522
19.1706
9.28901
19.7793
10.2923
20.4124
11.3031
21.0672
12.3193
21.741
13.3386
22.431
14.3586
23.1345
15.3768
23.8491
16.3904
24.572
17.3964
25.3006
18.392
26.0325
19.3745
26.7658
20.341
27.5021
21.2804
28.2521
22.192
29.0044
23.1101
29.7055
23.7383
30.4043
24.1846
30.7835
24.7826
30.9569
25.3277
31.3085
31.5894
25.8077
0.851685
14.6583
1.72108
14.9566
2.60819
15.3001
3.51298
15.6865
4.43512
16.1139
5.37405
16.5802
6.32899
17.0828
7.29892
17.6192
8.2826
18.187
9.27859
18.7833
10.2852
19.4058
11.3007
20.0518
12.3229
20.7188
13.3496
21.4042
14.3787
22.1055
15.4075
22.8203
16.4335
23.546
17.4538
24.2803
18.4658
25.0206
19.4667
25.7649
20.4554
26.5134
21.435
27.2725
22.3679
28.0715
23.2242
28.8491
24.112
29.5166
24.6993
30.1962
25.1158
30.5404
25.633
30.7912
31.1489
26.0734
0.845991
13.8123
1.70943
14.0932
2.59053
14.419
3.48943
14.7876
4.40601
15.1974
5.33987
15.6463
6.29038
16.1323
7.25668
16.6529
8.23767
17.206
9.23205
17.789
10.2383
18.3996
11.2546
19.0354
12.2791
19.6943
13.3096
20.3737
14.3439
21.0713
15.3794
21.7848
16.4136
22.5119
17.4436
23.2502
18.4667
23.9975
19.4798
24.7518
20.4806
25.5125
21.47
26.2831
22.4641
27.0775
23.3751
27.938
24.1631
28.7287
24.9906
29.3687
25.5426
29.9885
25.9848
30.349
30.6861
26.4476
0.83718
12.9751
1.69145
13.2389
2.56323
13.5472
3.45286
13.898
4.36042
14.2898
5.28568
14.721
6.22818
15.1898
7.18721
15.6939
8.16185
16.2313
9.15091
16.7999
10.153
17.3975
11.1666
18.0219
12.1898
18.6711
13.2204
19.3431
14.2561
20.0355
15.2946
20.7463
16.333
21.4734
17.3686
22.2146
18.3984
22.9678
19.4191
23.7311
20.4282
24.5035
21.4247
25.2865
22.4134
26.0888
23.4226
26.9288
24.3021
27.8491
25.0237
28.6471
25.7528
29.2593
26.2713
29.8305
30.2495
26.7079
0.82546
12.1496
1.66757
12.3968
2.52694
12.6878
3.40415
13.0208
4.29946
13.3945
5.21283
13.8077
6.14399
14.2586
7.09241
14.7455
8.05732
15.2664
9.0377
15.8195
10.0323
16.4029
11.0395
17.0147
12.0576
17.653
13.0845
18.3162
14.118
19.002
15.1557
19.7086
16.1949
20.4343
17.2324
21.177
18.2653
21.935
19.2899
22.7064
20.3033
23.4901
21.3036
24.2862
22.2935
25.0989
23.2778
25.9445
24.2831
26.8439
25.1187
27.8114
25.7658
28.6123
26.4007
29.1956
29.759
26.8913
0.811038
11.3386
1.6382
11.5696
2.48231
11.8437
3.34416
12.1589
4.22421
12.5144
5.12263
12.9092
6.03932
13.3419
6.97394
13.8109
7.92587
14.3145
8.89426
14.8511
9.87797
15.4192
10.8756
16.017
11.8855
16.6431
12.9057
17.2959
13.934
17.9737
14.968
18.6747
16.0047
19.3975
17.0412
20.1405
18.0741
20.9021
19.0998
21.6806
20.1149
22.475
21.1165
23.2847
22.1043
24.111
23.0878
24.961
24.0683
25.8634
25.0546
26.8251
25.8447
27.8222
26.4158
28.6245
29.2117
26.963
0.794115
10.5445
1.60376
10.76
2.42996
11.0175
3.27374
11.3151
4.13578
11.6524
5.01641
12.0286
5.91576
12.4426
6.83365
12.893
7.76969
13.3785
8.72318
13.8976
9.69318
14.4492
10.6785
15.0317
11.6776
15.644
12.6888
16.2847
13.7096
16.9529
14.7374
17.6469
15.7696
18.3654
16.803
19.1071
17.8341
19.8709
18.8592
20.6555
19.8746
21.4596
20.8768
22.2826
21.8634
23.1244
22.837
23.9874
23.8172
24.8832
24.7907
25.8517
25.7339
26.879
26.4532
27.9051
28.7211
26.9439
0.774873
9.7696
1.56462
9.97025
2.37048
10.2117
3.19372
10.4919
4.03519
10.8109
4.89547
11.1683
5.77486
11.5632
6.67344
11.9944
7.591
12.4609
8.52707
12.9616
9.48092
13.4953
10.4515
14.0611
11.4374
14.658
12.437
15.2852
13.448
15.942
14.4679
16.6269
15.4941
17.3392
16.5231
18.0781
17.5515
18.8425
18.5753
19.6317
19.5904
20.4446
20.5927
21.2803
21.5786
22.1384
22.5465
23.0195
23.503
23.9267
24.4726
24.882
25.4343
25.9173
26.3097
27.0298
28.0936
26.9372
0.753468
9.01613
1.52111
9.20261
2.30438
9.4284
3.10476
9.69154
3.92332
9.99238
4.76085
10.3308
5.61788
10.7061
6.4947
11.1176
7.39133
11.5643
8.30755
12.0454
9.24281
12.5601
10.1963
13.1077
11.1667
13.6876
12.1528
14.2992
13.1527
14.9421
14.1635
15.6161
15.1825
16.3202
16.2064
17.0541
17.2316
17.8174
18.2538
18.6095
19.2685
19.4298
20.2711
20.2777
21.257
21.1525
22.2223
22.0541
23.1657
22.9833
24.1011
23.9467
25.048
24.9703
25.9936
26.0842
27.3199
26.7673
0.730035
8.28609
1.47352
8.45912
2.23209
8.66983
3.00747
8.91616
3.80095
9.1989
4.61351
9.51823
5.44593
9.87373
6.29872
10.2648
7.17216
10.6908
8.06627
11.1513
8.98077
11.6456
9.91509
12.1734
10.8683
12.7344
11.8391
13.3283
12.8259
13.9554
13.826
14.6159
14.8368
15.3094
15.8551
16.0358
16.877
16.7955
17.898
17.5885
18.9131
18.4147
19.917
19.2738
20.9041
20.1654
21.8692
21.0891
22.8075
22.0449
23.7198
23.0345
24.6193
24.0707
25.5394
25.1641
26.4188
26.4405
0.7047
7.58139
1.4221
7.74173
2.15403
7.9379
2.90243
8.16775
3.6688
8.43253
4.45435
8.73269
5.26006
9.06802
6.0867
9.43815
6.93482
9.84271
7.80468
10.2814
8.69631
10.7539
9.60939
11.2603
10.5433
11.8005
11.4968
12.3747
12.4688
12.9834
13.4575
13.6273
14.4596
14.3073
15.4718
15.0236
16.4904
15.777
17.5107
16.5683
18.5272
17.3982
19.534
18.267
20.5244
19.175
21.4917
20.1218
22.4294
21.1073
23.3325
22.1313
24.2028
23.2005
25.0552
24.3117
25.5219
25.9521
0.677589
6.9038
1.36711
7.0522
2.0706
7.23441
2.79021
7.44815
3.52762
7.69511
4.28427
7.97604
5.06135
8.29094
5.85989
8.63961
6.68068
9.02193
7.52428
9.43779
8.39099
9.88724
9.28083
10.3705
10.1935
10.8878
11.1283
11.44
12.084
12.0277
13.0592
12.6521
14.0514
13.3151
15.0571
14.0179
16.0725
14.7616
17.0927
15.548
18.1121
16.3788
19.1239
17.2552
20.1205
18.1784
21.0936
19.1487
22.0348
20.1661
22.9361
21.2301
23.7929
22.3436
24.6011
23.5034
24.7017
25.4214
0.648842
6.25496
1.30886
6.39218
1.98227
6.561
2.67144
6.75898
3.37825
6.9883
4.1043
7.24999
4.85103
7.54421
5.61967
7.87097
6.41127
8.23033
7.22667
8.62239
8.06648
9.04742
8.93107
9.50586
9.8205
9.99842
10.7344
10.5261
11.672
11.0901
12.6321
11.692
13.613
12.3342
14.6114
13.0195
15.6234
13.7495
16.6443
14.5271
17.668
15.355
18.6873
16.236
19.6935
17.1721
20.677
18.1652
21.6271
19.216
22.5331
20.324
23.3867
21.49
24.177
22.7132
23.962
24.9166
0.61862
5.63634
1.24768
5.76312
1.88958
5.9191
2.54689
6.10166
3.22166
6.31353
3.91566
6.55599
4.63052
6.82936
5.36766
7.13383
6.12837
7.46962
6.91375
7.83702
7.72473
8.23644
8.56203
8.66856
9.4261
9.13434
10.3171
9.63511
11.2345
10.1726
12.1776
10.7489
13.1452
11.3667
14.135
12.0296
15.1432
12.7413
16.1649
13.5054
17.1942
14.3258
18.2233
15.2069
19.2428
16.1526
20.2417
17.1664
21.2071
18.2505
22.1255
19.4057
22.9843
20.6312
23.7709
21.9266
23.2624
24.4704
0.587111
5.04923
1.18396
5.16627
1.79315
5.30992
2.41744
5.47737
3.05901
5.67197
3.71978
5.89522
4.40151
6.14762
5.10581
6.42954
5.83413
6.7413
6.58782
7.08332
7.36812
7.45614
8.1761
7.86058
9.01266
8.29778
9.87838
8.76939
10.7734
9.27751
11.6975
9.8248
12.6498
10.4145
13.6287
11.0507
14.6315
11.7386
15.6535
12.4833
16.6888
13.2905
17.7297
14.166
18.766
15.1162
19.7855
16.1469
20.7732
17.2628
21.7122
18.4667
22.5854
19.7579
23.377
21.135
22.5754
24.0641
0.554525
4.4947
1.11816
4.60263
1.69371
4.73437
2.28411
4.88696
2.89164
5.06444
3.51831
5.26855
4.16598
5.49995
4.83636
5.75916
5.53104
6.04662
6.25158
6.36279
6.99948
6.70824
7.77619
7.08386
8.58304
7.49094
9.42112
7.93131
10.2912
8.40741
11.1937
8.92236
12.1281
9.48003
13.0936
10.0852
14.0884
10.7437
15.1091
11.4627
16.15
12.2496
17.2035
13.1126
18.2593
14.0604
19.3042
15.102
20.3213
16.2458
21.29
17.498
22.188
18.8599
22.9939
20.3291
21.8872
23.6821
0.521088
3.97362
1.05079
4.07293
1.59208
4.19307
2.14806
4.33098
2.72104
4.49146
3.31309
4.67649
3.92611
4.88694
4.56181
5.12345
5.22189
5.38654
5.90804
5.67663
6.62203
5.99426
7.36563
6.34026
8.1406
6.71597
8.94857
7.12334
9.79091
7.56507
10.6686
8.04463
11.5822
8.56645
12.5314
9.13602
13.5152
9.7599
14.5315
10.4463
15.576
11.2051
16.6416
12.0469
17.7183
12.9837
18.7924
14.0279
19.8455
15.1927
20.8531
16.4904
21.7875
17.9256
22.6192
19.4974
21.1884
23.318
0.487039
3.48658
0.9824
3.57757
1.48916
3.68631
2.01053
3.80962
2.54881
3.95318
3.10608
4.11922
3.68417
4.30885
4.28477
4.52285
4.90957
4.76175
5.56037
5.02583
6.23914
5.31549
6.94797
5.63143
7.68904
5.9749
8.46448
6.3479
9.27624
6.75331
10.126
7.19484
11.0151
7.67734
11.9443
8.20689
12.9133
8.79082
13.9213
9.43839
14.9655
10.1608
16.0408
10.9716
17.1379
11.8866
18.2431
12.9228
19.3372
14.0986
20.3925
15.4351
21.3758
16.9423
22.2471
18.6261
20.4673
22.9682
0.452632
3.03394
0.913615
3.11659
1.38593
3.21399
1.87284
3.32271
2.37661
3.44942
2.89923
3.5966
3.44243
3.76564
4.00777
3.95751
4.59688
4.17264
5.21161
4.4111
5.85411
4.673
6.52675
4.95879
7.23211
5.26954
7.97274
5.60727
8.75119
5.97486
9.56973
6.3763
10.4305
6.8166
11.3351
7.30229
12.2846
7.84129
13.2793
8.44372
14.3182
9.12194
15.3981
9.89173
16.5123
10.7724
17.6474
11.7877
18.785
12.961
19.8958
14.3242
20.9412
15.8969
21.8673
17.7
19.71
22.6246
0.418165
2.61578
0.845131
2.68962
1.28343
2.77569
1.73636
2.86979
2.20606
2.97972
2.69442
3.10824
3.20296
3.2571
3.73308
3.4274
4.28627
3.61945
4.86443
3.83294
5.46984
4.06758
6.10515
4.32348
6.77326
4.60143
7.47711
4.90342
8.21967
5.2323
9.00372
5.59225
9.83201
5.98831
10.7072
6.4271
11.6316
6.91688
12.6069
7.46843
13.6339
8.09493
14.7111
8.8146
15.8356
9.64783
16.9965
10.6267
18.1776
11.78
19.3481
13.1537
20.4657
14.7794
21.4606
16.7051
18.8992
22.2714
0.384017
2.23176
0.777748
2.29589
1.1828
2.37064
1.60245
2.45013
2.0387
2.54347
2.49327
2.65366
2.96745
2.78291
3.46243
2.93242
3.97958
3.1023
4.52084
3.29168
5.08861
3.49981
5.68581
3.72629
6.31552
3.97172
6.98094
4.238
7.68523
4.52801
8.43171
4.84577
9.22372
5.19631
10.0646
5.58621
10.9579
6.02362
11.9065
6.51978
12.9136
7.08782
13.9796
7.74867
15.105
8.52243
16.2831
9.44861
17.5026
10.5604
18.7311
11.9252
19.9273
13.5832
21.0036
15.6288
18.0169
21.8859
0.350699
1.88106
0.712365
1.93422
1.08518
1.99782
1.47243
2.06288
1.87588
2.14003
2.29707
2.23247
2.73706
2.34292
3.1969
2.47258
3.67794
2.62125
4.18215
2.78747
4.71209
2.96987
5.27082
3.16756
5.8614
3.38114
6.48715
3.61225
7.15145
3.86371
7.85783
4.13938
8.61009
4.44405
9.41208
4.78422
10.2683
5.16743
11.1828
5.60525
12.161
6.10964
13.2057
6.70397
14.3213
7.40677
15.5037
8.26626
16.7508
9.31328
18.0301
10.6459
19.3074
12.3059
20.4723
14.4638
17.0465
21.4427
0.318874
1.56219
0.649932
1.60317
0.991744
1.65601
1.34749
1.70713
1.71867
1.76886
2.10666
1.84448
2.5124
1.93718
2.93699
2.04799
3.38192
2.17632
3.84925
2.32015
4.34165
2.47747
4.86202
2.64719
5.41344
2.82972
5.99911
3.02659
6.62242
3.2404
7.28694
3.47486
7.99674
3.73425
8.75602
4.02495
9.57006
4.35339
10.4438
4.73151
11.3846
5.16879
12.3973
5.69135
13.4907
6.31333
14.6627
7.09423
15.9221
8.0539
17.238
9.33
18.593
10.9509
19.847
13.2098
15.9704
20.9231
0.28929
1.2729
0.591337
1.30112
0.903482
1.34387
1.22859
1.38202
1.56785
1.42959
1.92258
1.48976
2.29386
1.56589
2.68311
1.65875
3.09218
1.76724
3.52325
1.88908
3.97893
2.02179
4.46187
2.16425
4.97489
2.3167
5.52087
2.4806
6.10308
2.65819
6.72497
2.85297
7.39075
3.06847
8.10482
3.31088
8.87311
3.58509
9.70098
3.90364
10.5972
4.27257
11.5675
4.72108
12.6257
5.25515
13.7725
5.94734
15.028
6.7984
16.3629
7.99509
17.7879
9.52602
19.1285
11.8691
14.7674
20.3315
0.262603
1.0103
0.537231
1.02649
0.821151
1.05995
1.11644
1.08674
1.42411
1.12192
1.74553
1.16835
2.08233
1.22908
2.4365
1.30458
2.81041
1.39334
3.20634
1.49315
3.62666
1.60148
4.0736
1.7173
4.54953
1.84077
5.05693
1.9732
5.59875
2.11638
6.17825
2.27346
6.79965
2.44707
7.46734
2.64319
8.18748
2.86495
8.96581
3.12532
9.81218
3.4262
10.7333
3.79993
11.7466
4.24191
12.8561
4.83781
14.0926
5.56196
15.4323
6.65532
16.9196
8.03874
18.36
10.4287
13.3954
19.7321
0.239118
0.771178
0.487898
0.777711
0.745188
0.802657
1.01167
0.820256
1.28844
0.845143
1.57715
0.879642
1.88017
0.926067
2.20018
0.984559
2.54
1.05352
2.90203
1.13112
3.28831
1.21519
3.70064
1.30497
4.1408
1.40061
4.61077
1.50323
5.11317
1.61397
5.65108
1.73556
6.22859
1.86957
6.85007
2.0217
7.52173
2.19329
8.24961
2.39744
9.04405
2.63176
9.91328
2.93069
10.8765
3.27871
11.9422
3.77207
13.1492
4.35498
14.4926
5.31189
16.0388
6.49261
17.6469
8.8206
11.7578
19.2845
0.218658
0.552521
0.443235
0.553133
0.675791
0.5701
0.915051
0.580997
1.16256
0.597631
1.4204
0.621808
1.69146
0.654999
1.97891
0.697111
2.28576
0.746676
2.6146
0.802279
2.96738
0.862414
3.34559
0.926758
3.75058
0.995627
4.18389
1.06991
4.6478
1.15007
5.14508
1.23828
5.67961
1.33504
6.25576
1.44555
6.87965
1.5694
7.5578
1.7193
8.3006
1.88895
9.11818
2.11311
10.0311
2.36578
11.0542
2.74901
12.2295
3.1797
13.5951
3.94622
15.1958
4.89193
17.1647
6.85172
9.65353
19.2689
0.200757
0.351763
0.402889
0.351002
0.612991
0.359998
0.827427
0.36656
1.04856
0.376503
1.27861
0.391754
1.52067
0.412941
1.77803
0.439752
2.05364
0.471065
2.35003
0.505888
2.66913
0.543311
3.01244
0.583453
3.38126
0.626802
3.77709
0.674089
4.20194
0.72521
4.65834
0.781879
5.14983
0.843547
5.68058
0.914801
6.2564
0.993584
6.88428
1.09142
7.57473
1.1985
8.33954
1.3483
9.19998
1.50533
10.1783
1.7707
11.3192
2.03884
12.6911
2.57431
14.3731
3.20987
16.8446
4.38026
6.92171
19.5764
0.184918
0.166846
0.366388
0.169531
0.556689
0.169698
0.749212
0.174037
0.947478
0.178237
1.15368
0.185549
1.37085
0.195769
1.60199
0.208618
1.84959
0.223464
2.11573
0.239744
2.40209
0.256954
2.71018
0.275364
3.04156
0.295422
3.39799
0.317654
3.78159
0.341613
4.19473
0.368736
4.64066
0.397623
5.12334
0.432113
5.64764
0.469288
6.22129
0.517774
6.85374
0.566053
7.55885
0.643189
8.35449
0.709686
9.27253
0.852666
10.351
0.96032
11.6724
1.25297
13.3341
1.54818
15.9661
1.7482
3.76051
19.1273
0.166846
0.336377
0.506075
0.680112
0.858349
1.0439
1.23967
1.44829
1.67175
1.91149
2.16845
2.44381
2.73923
3.05689
3.3985
3.76724
4.16486
4.59697
5.06626
5.58404
6.15009
6.79328
7.50296
8.35563
9.31595
10.5689
12.1171
13.8653
17.6258
1.1561
54.1276
1.16888
54.1275
1.18115
54.128
1.19229
54.1291
1.20324
54.1293
1.21495
54.1285
1.22678
54.1284
1.23751
54.1295
1.24692
54.1308
1.25603
54.1311
1.26599
54.1303
1.27663
54.1296
1.2865
54.1304
1.29432
54.1324
1.30026
54.1343
1.30495
54.1355
1.30873
54.1365
1.31176
54.1372
1.31421
54.1378
1.3163
54.1381
1.3183
54.1382
1.3204
54.1381
1.32277
54.1379
1.32545
54.1376
1.32833
54.1374
1.33123
54.1373
1.33395
54.1375
1.3363
54.1379
1.33821
54.1383
1.33962
54.1388
1.34054
54.1393
1.341
54.1398
1.341
54.1402
1.34056
54.1407
1.33971
54.1411
1.33842
54.1415
1.3367
54.142
1.33455
54.1424
1.33197
54.1428
1.32898
54.1432
1.32559
54.1436
1.32181
54.144
1.31763
54.1444
1.31305
54.1448
1.30808
54.1452
1.30272
54.1456
1.29698
54.146
1.29086
54.1464
1.28438
54.1467
1.27753
54.1471
1.2703
54.1475
1.26271
54.1478
1.25474
54.1482
1.24638
54.1486
1.23762
54.149
1.22846
54.1494
1.21887
54.1498
1.20886
54.1502
1.19841
54.1507
1.1875
54.1511
1.17616
54.1516
1.16443
54.152
1.1523
54.1524
1.13979
54.1527
1.1269
54.1531
1.11363
54.1535
1.09998
54.1539
1.08597
54.1542
1.0716
54.1546
1.05686
54.155
1.04177
54.1553
1.02633
54.1557
1.01053
54.156
0.994384
54.1564
0.977901
54.1567
0.961061
54.1571
0.943898
54.1574
0.926396
54.1577
0.908558
54.1581
0.890386
54.1584
0.87188
54.1587
0.853065
54.159
0.833956
54.1593
0.814582
54.1596
0.794959
54.1599
0.775102
54.1601
0.755047
54.1603
0.734811
54.1605
0.714376
54.1607
0.693758
54.1609
0.673006
54.161
0.652149
54.1611
0.631232
54.1612
0.610287
54.1612
0.589354
54.1612
0.568456
54.1611
0.547636
54.1611
0.526915
54.161
0.506336
54.1608
0.485922
54.1607
0.465701
54.1605
0.445702
54.1602
0.425927
54.16
0.406392
54.1598
0.387093
54.1595
0.368044
54.1593
0.349253
54.159
0.330744
54.1587
0.312522
54.1585
0.294628
54.1581
0.277081
54.1578
0.259828
54.1575
0.242938
54.1571
0.226572
54.1566
0.21084
54.156
0.195821
54.1553
0.181574
54.1545
0.167996
54.1538
0.154536
54.1537
0.140883
54.1539
0.126771
54.1543
0.112133
54.1549
0.0967897