/*--------------------------------*- C++ -*----------------------------------*\
| =========                 |                                                 |
| \\      /  F ield         | OpenFOAM: The Open Source CFD Toolbox           |
|  \\    /   O peration     | Version:  5.x                                   |
|   \\  /    A nd           | Web:      www.OpenFOAM.org                      |
|    \\/     M anipulation  |                                                 |
\*---------------------------------------------------------------------------*/
/*   Windows 32 and 64 bit porting by blueCAPE: http://www.bluecape.com.pt   *\
|  Based on Windows porting (2.0.x v4) by Symscape: http://www.symscape.com   |
\*---------------------------------------------------------------------------*/
FoamFile
{
    version     2.0;
    format      ascii;
    class       volVectorField;
    location    "210";
    object      U;
}
// * * * * * * * * * * * * * * * * * * * * * * * * * * * * * * * * * * * * * //

dimensions      [0 1 -1 0 0 0 0];

internalField   nonuniform List<vector> 
43900
(
(1.16163 -0.000720396 -1.7382e-027)
(1.16718 0.00215917 -4.65842e-027)
(1.16975 0.000364556 1.45617e-030)
(1.16841 0.00180606 2.80652e-030)
(1.16972 0.000792263 3.67503e-030)
(1.16989 0.00195058 3.63422e-030)
(1.17012 0.00118037 6.2197e-027)
(1.1704 0.00182079 -1.24185e-026)
(1.17049 0.00168575 9.35377e-030)
(1.17044 0.00176016 -1.23914e-026)
(1.17028 0.00193216 1.24142e-026)
(1.17017 0.00193846 1.1475e-029)
(1.17012 0.00200738 -1.23568e-026)
(1.17011 0.00206864 2.46851e-029)
(1.1701 0.00212353 2.53636e-029)
(1.17009 0.00217049 2.59975e-029)
(1.1701 0.00221359 -2.46084e-026)
(1.17009 0.00225212 5.4323e-029)
(1.17009 0.00228631 2.46355e-026)
(1.17009 0.00231929 2.81741e-029)
(1.17009 0.00234986 2.86278e-029)
(1.17009 0.00237685 2.90558e-029)
(1.17009 0.00240501 2.94587e-029)
(1.17008 0.00242954 2.98389e-029)
(1.17009 0.00245336 3.0198e-029)
(1.17008 0.00247823 -2.43437e-026)
(1.17008 0.00249962 6.17314e-029)
(1.17008 0.00252152 6.23578e-029)
(1.17008 0.00254319 9.71845e-026)
(1.15876 0.0114342 0)
(1.1656 -0.00497807 0)
(1.17152 0.00903871 0)
(1.16663 -0.000212374 0)
(1.16854 0.00616866 0)
(1.16807 0.00266781 0)
(1.16834 0.00487392 0)
(1.16746 0.0045301 0)
(1.1679 0.00457983 0)
(1.16811 0.00525257 0)
(1.16846 0.00524396 0)
(1.16865 0.00552459 0)
(1.16873 0.00579071 0)
(1.1688 0.00598951 0)
(1.1689 0.00616644 0)
(1.16899 0.00633373 0)
(1.16904 0.00649158 0)
(1.16914 0.00663977 0)
(1.16918 0.00678186 0)
(1.16919 0.00691018 0)
(1.16925 0.00702856 0)
(1.16925 0.00714831 0)
(1.16926 0.00725226 0)
(1.1693 0.00735451 0)
(1.16929 0.00745355 0)
(1.16931 0.00753824 0)
(1.16933 0.00762829 0)
(1.16931 0.00771042 0)
(1.16933 0.00778516 0)
(1.10228 0.0321125 0)
(1.14493 -0.0175816 0)
(1.16323 0.0287887 0)
(1.16347 -0.00372754 0)
(1.16659 0.0208648 0)
(1.16456 0.00393869 0)
(1.16611 0.0149949 0)
(1.1665 0.00830063 0)
(1.16662 0.0117921 0)
(1.16631 0.0104642 0)
(1.16622 0.0106919 0)
(1.16652 0.0108918 0)
(1.16687 0.0109211 0)
(1.16715 0.0110004 0)
(1.16733 0.0110853 0)
(1.16742 0.0111706 0)
(1.16761 0.0112689 0)
(1.16767 0.0113775 0)
(1.16775 0.011476 0)
(1.16788 0.0115783 0)
(1.16788 0.0116932 0)
(1.16798 0.0117841 0)
(1.16807 0.0118938 0)
(1.16807 0.0120021 0)
(1.16819 0.0120914 0)
(1.16825 0.0122049 0)
(1.16826 0.0122971 0)
(1.16837 0.0123911 0)
(1.16842 0.0124955 1.70787e-027)
(1.04101 0.0200135 0)
(1.08694 -0.00676542 0)
(1.12989 0.0201112 0)
(1.15589 0.00811525 0)
(1.1636 0.0222057 0)
(1.16631 0.0106668 0)
(1.16506 0.0205329 0)
(1.16403 0.0135783 0)
(1.16491 0.017997 0)
(1.16515 0.0156595 0)
(1.16561 0.0166162 0)
(1.16559 0.0163878 0)
(1.16567 0.0163367 0)
(1.16571 0.0163096 0)
(1.16581 0.0162827 0)
(1.16604 0.0163183 0)
(1.16601 0.0163724 0)
(1.16614 0.0164057 0)
(1.16626 0.0164608 0)
(1.16622 0.0165371 0)
(1.16642 0.01658 0)
(1.16649 0.0166762 0)
(1.16649 0.0167468 0)
(1.1667 0.0168011 0)
(1.16671 0.0169183 0)
(1.16674 0.0169803 0)
(1.16693 0.0170636 0)
(1.16691 0.01717 0)
(1.16696 0.017243 1.82062e-027)
(1.00404 0.0101238 3.64463e-027)
(1.03956 -0.000928251 0)
(1.07643 0.0107463 0)
(1.11469 0.0127811 0)
(1.14501 0.018175 0)
(1.16057 0.0171633 0)
(1.16381 0.0225861 0)
(1.16486 0.0182781 0)
(1.16398 0.021433 0)
(1.16422 0.0199448 0)
(1.16417 0.0205154 0)
(1.16458 0.0207009 0)
(1.16454 0.0206937 0)
(1.16457 0.0207225 0)
(1.16458 0.0208313 0)
(1.16434 0.0209507 0)
(1.16453 0.0210223 0)
(1.16453 0.0211095 0)
(1.16449 0.0212244 0)
(1.16477 0.0212993 0)
(1.16472 0.021439 0)
(1.16475 0.0215359 0)
(1.16501 0.021639 0)
(1.16491 0.0218151 0)
(1.16499 0.0218826 0)
(1.1652 0.0220364 0)
(1.16508 0.0222021 0)
(1.16519 0.022277 0)
(1.16537 0.0224398 -7.66168e-027)
(0.977001 0.00680765 -3.80426e-027)
(1.00695 0.000585065 0)
(1.03825 0.00748194 0)
(1.0707 0.0108447 0)
(1.10318 0.0146546 0)
(1.13361 0.017901 0)
(1.15388 0.0218391 0)
(1.16194 0.0217938 0)
(1.16308 0.0241092 0)
(1.16294 0.0225935 0)
(1.16311 0.0238684 0)
(1.16283 0.0237636 0)
(1.16294 0.0239932 0)
(1.16287 0.0242733 0)
(1.16274 0.0245069 0)
(1.16316 0.0247288 0)
(1.16305 0.0249274 0)
(1.16299 0.025166 0)
(1.16328 0.025343 0)
(1.16307 0.0255965 0)
(1.16318 0.02576 0)
(1.16342 0.0259529 0)
(1.16321 0.0262475 0)
(1.16339 0.0263442 0)
(1.16355 0.02661 0)
(1.16338 0.0268544 0)
(1.16365 0.0269516 0)
(1.16377 0.0272515 0)
(1.16364 0.0274552 4.05226e-027)
(0.954669 0.00518941 0)
(0.98105 0.00134897 0)
(1.00867 0.00628518 0)
(1.03736 0.00942537 0)
(1.0665 0.0126808 0)
(1.09541 0.0162343 0)
(1.12343 0.0199304 0)
(1.14654 0.0227215 0)
(1.15781 0.025358 0)
(1.16083 0.0257116 0)
(1.16067 0.0258436 0)
(1.16093 0.0266562 0)
(1.16066 0.0268108 0)
(1.1608 0.0271643 0)
(1.16116 0.0276239 0)
(1.16071 0.027954 0)
(1.16071 0.0283105 0)
(1.16109 0.0285831 0)
(1.16085 0.0290321 0)
(1.1611 0.0293119 0)
(1.16125 0.0295952 0)
(1.16094 0.0300532 0)
(1.16127 0.0302071 0)
(1.16136 0.0306298 0)
(1.16121 0.0309406 0)
(1.16159 0.0311278 0)
(1.16157 0.0315916 0)
(1.16145 0.0317923 0)
(1.16187 0.0320351 0)
(0.933992 0.00434674 0)
(0.958083 0.00181951 0)
(0.983327 0.00585621 0)
(1.00955 0.00882957 0)
(1.03635 0.0117984 0)
(1.0633 0.0150132 0)
(1.08988 0.0184737 0)
(1.11529 0.0219425 0)
(1.13834 0.0251822 0)
(1.15251 0.0274279 0)
(1.15707 0.0290318 0)
(1.15701 0.0288625 0)
(1.15735 0.0296269 0)
(1.15731 0.0300116 0)
(1.15703 0.0304779 0)
(1.15757 0.0309542 0)
(1.15796 0.0312813 0)
(1.1575 0.0318947 0)
(1.15772 0.0322392 0)
(1.15786 0.0326406 0)
(1.15763 0.033225 0)
(1.15813 0.0334594 0)
(1.15811 0.034098 0)
(1.15793 0.0344341 0)
(1.1583 0.0347477 0)
(1.15821 0.0354345 0)
(1.15828 0.0355739 0)
(1.15879 0.0360251 0)
(1.15867 0.0365957 0)
(0.914749 0.003767 0)
(0.937084 0.00218221 0)
(0.960494 0.00568762 0)
(0.984823 0.00856134 0)
(1.00979 0.0113953 0)
(1.03506 0.0143995 0)
(1.06027 0.0176043 0)
(1.08499 0.0209528 0)
(1.10865 0.024348 0)
(1.13055 0.0274772 0)
(1.14653 0.0301262 0)
(1.15235 0.0318574 0)
(1.1523 0.0318669 0)
(1.15264 0.0327265 0)
(1.15299 0.0333968 0)
(1.15275 0.0336699 0)
(1.15235 0.0345152 0)
(1.15296 0.03483 0)
(1.15332 0.035455 0)
(1.15302 0.0361709 0)
(1.15346 0.0364302 0)
(1.15324 0.0372709 0)
(1.15326 0.0375913 0)
(1.15378 0.0380997 0)
(1.15385 0.0388622 0)
(1.15401 0.039043 0)
(1.15432 0.0397705 0)
(1.15407 0.0403156 0)
(1.15426 0.040561 0)
(0.896311 0.00321232 0)
(0.917386 0.00254401 0)
(0.939468 0.00569113 0)
(0.962409 0.00850976 0)
(0.985978 0.0112789 0)
(1.00992 0.0141683 0)
(1.03396 0.0172174 0)
(1.05779 0.020399 0)
(1.08106 0.023675 0)
(1.10331 0.0269742 0)
(1.12385 0.0300977 0)
(1.14058 0.0328217 0)
(1.14702 0.034847 0)
(1.14685 0.0349931 0)
(1.14726 0.0359443 0)
(1.14728 0.0368818 0)
(1.14788 0.0373051 0)
(1.1477 0.038145 0)
(1.14717 0.0389445 0)
(1.14775 0.0393183 0)
(1.14778 0.0404468 0)
(1.14823 0.0407277 0)
(1.14858 0.0415619 0)
(1.14854 0.0423322 0)
(1.1485 0.0426422 0)
(1.14883 0.0436459 0)
(1.14894 0.0440797 0)
(1.1496 0.0445296 0)
(1.1501 0.0453798 -1.06409e-026)
(0.878405 0.00305278 0)
(0.898441 0.00283419 0)
(0.919475 0.00591551 0)
(0.941345 0.00878047 0)
(0.963847 0.0115867 0)
(0.986761 0.0144846 0)
(1.00986 0.0175165 0)
(1.03289 0.0206642 0)
(1.0556 0.0239031 0)
(1.07766 0.0272056 0)
(1.09867 0.0305163 0)
(1.11793 0.0336766 0)
(1.13448 0.0364986 0)
(1.14114 0.038754 0)
(1.14073 0.0391768 0)
(1.14148 0.0400275 0)
(1.14137 0.041269 0)
(1.14149 0.0417881 0)
(1.14232 0.0426305 0)
(1.14241 0.0438254 0)
(1.14267 0.0441387 0)
(1.14275 0.0452812 0)
(1.14293 0.0461323 0)
(1.14325 0.0466184 0)
(1.14388 0.0478325 0)
(1.14437 0.0482852 0)
(1.14494 0.0490569 0)
(1.14483 0.0500986 0)
(1.1448 0.0505776 1.12303e-026)
(0.860373 0.00300188 0)
(0.879535 0.00317428 0)
(0.899678 0.00631651 0)
(0.920647 0.00931402 0)
(0.942261 0.0122492 0)
(0.964322 0.0152598 0)
(0.986624 0.0183893 0)
(1.00896 0.0216243 0)
(1.0311 0.0249447 0)
(1.05281 0.0283315 0)
(1.0738 0.0317589 0)
(1.09369 0.0351724 0)
(1.1119 0.0384403 0)
(1.12771 0.0413902 0)
(1.13449 0.0438224 0)
(1.13415 0.044485 0)
(1.13473 0.045319 0)
(1.13524 0.0465939 0)
(1.13566 0.0475382 0)
(1.13587 0.0481655 0)
(1.13605 0.0497523 0)
(1.13649 0.0503858 0)
(1.1372 0.051038 0)
(1.13757 0.0525047 0)
(1.13831 0.053001 0)
(1.13844 0.054002 0)
(1.13828 0.0552717 0)
(1.13904 0.0556444 0)
(1.14026 0.056737 1.2284e-026)
(0.841947 0.00291286 0)
(0.860355 0.00355041 0)
(0.879735 0.0067785 0)
(0.89994 0.00993041 0)
(0.920794 0.0130252 0)
(0.942122 0.0161835 0)
(0.963738 0.0194472 0)
(0.985454 0.022806 0)
(1.00708 0.0262425 0)
(1.02841 0.0297408 0)
(1.04922 0.0332821 0)
(1.06926 0.0368379 0)
(1.08818 0.0403531 0)
(1.10547 0.0437035 0)
(1.12041 0.0468235 0)
(1.12693 0.0491605 0)
(1.12648 0.0503709 0)
(1.12704 0.0511854 0)
(1.12737 0.0523436 0)
(1.12739 0.0540174 0)
(1.12831 0.0546253 0)
(1.12957 0.0556222 0)
(1.12942 0.0574725 0)
(1.12999 0.0579722 0)
(1.12995 0.0591804 0)
(1.1303 0.0606166 0)
(1.13191 0.0609008 0)
(1.13315 0.0623068 0)
(1.13284 0.0635493 -1.29799e-026)
(0.823279 0.00283447 0)
(0.841008 0.00392789 0)
(0.8597 0.007266 0)
(0.879237 0.0105815 0)
(0.899453 0.0138508 0)
(0.920165 0.0171734 0)
(0.941206 0.0205877 0)
(0.962406 0.0240852 0)
(0.983591 0.0276504 0)
(1.00458 0.0312692 0)
(1.0252 0.0349259 0)
(1.04523 0.0386 0)
(1.06444 0.0422601 0)
(1.0825 0.0458471 0)
(1.09892 0.0492707 0)
(1.11259 0.0524912 0)
(1.11791 0.0548145 0)
(1.11861 0.0561264 0)
(1.118 0.057887 0)
(1.11947 0.0584977 0)
(1.12031 0.0601243 0)
(1.11935 0.0620736 0)
(1.11997 0.0623112 0)
(1.12156 0.0641087 0)
(1.12242 0.0657149 0)
(1.1237 0.0662325 0)
(1.12403 0.0680767 0)
(1.12317 0.0694078 0)
(1.12419 0.0697617 -1.42527e-026)
(0.804332 0.00279536 0)
(0.821451 0.00432123 0)
(0.839536 0.00781368 0)
(0.858467 0.0113154 0)
(0.878116 0.0147833 0)
(0.898318 0.0183019 0)
(0.918888 0.0219008 0)
(0.939667 0.025572 0)
(0.960501 0.0293015 0)
(0.981226 0.033076 0)
(1.00168 0.0368816 0)
(1.0217 0.0407017 0)
(1.04107 0.0445139 0)
(1.05958 0.0482826 0)
(1.07691 0.0519411 0)
(1.09261 0.0554539 0)
(1.10484 0.0586726 0)
(1.10728 0.0610778 0)
(1.10993 0.0620435 0)
(1.11022 0.0641882 0)
(1.10989 0.0658144 0)
(1.11195 0.0664729 0)
(1.11361 0.0692229 0)
(1.11239 0.0705631 0)
(1.11261 0.0712506 0)
(1.11381 0.073615 0)
(1.11458 0.0745278 0)
(1.11723 0.0757321 0)
(1.11827 0.0778785 1.51131e-026)
(0.785051 0.00279713 0)
(0.801612 0.00473051 0)
(0.819155 0.00841975 0)
(0.837559 0.0121388 0)
(0.856692 0.0158289 0)
(0.876426 0.0195685 0)
(0.896604 0.023386 0)
(0.917045 0.0272674 0)
(0.937597 0.0311986 0)
(0.958117 0.0351679 0)
(0.978457 0.0391621 0)
(0.998464 0.0431665 0)
(1.01797 0.0471639 0)
(1.0368 0.0511314 0)
(1.05472 0.0550288 0)
(1.07141 0.058778 0)
(1.08659 0.062459 0)
(1.09746 0.0654403 0)
(1.09916 0.0682697 0)
(1.10009 0.0690998 0)
(1.10128 0.0712591 0)
(1.10062 0.0738191 0)
(1.10072 0.0745407 0)
(1.10331 0.0761243 0)
(1.10638 0.0786701 0)
(1.10654 0.0797233 0)
(1.10691 0.0817725 0)
(1.10626 0.0835667 0)
(1.10703 0.0845964 0)
(0.765403 0.0028452 0)
(0.781442 0.00516471 0)
(0.798485 0.00909438 0)
(0.816418 0.0130679 0)
(0.835108 0.0170189 0)
(0.854418 0.021014 0)
(0.87422 0.0250829 0)
(0.894372 0.0292179 0)
(0.914699 0.0333988 0)
(0.935054 0.0376126 0)
(0.955305 0.0418481 0)
(0.975308 0.0460913 0)
(0.994912 0.0503267 0)
(1.01395 0.0545362 0)
(1.03223 0.0586925 0)
(1.04951 0.0627446 0)
(1.06546 0.0666383 0)
(1.07953 0.0705896 0)
(1.08722 0.0732585 0)
(1.08738 0.0764089 0)
(1.08925 0.0778636 0)
(1.09274 0.0791579 0)
(1.0947 0.0824415 0)
(1.09374 0.0840534 0)
(1.09263 0.0856738 0)
(1.09344 0.0881435 0)
(1.09633 0.0895375 0)
(1.10053 0.0913714 0)
(1.102 0.0935013 0)
(0.745325 0.00294201 0)
(0.760863 0.00562692 0)
(0.777432 0.00983848 0)
(0.794919 0.0141032 0)
(0.813201 0.0183508 0)
(0.832143 0.0226424 0)
(0.851605 0.0270023 0)
(0.871463 0.0314246 0)
(0.891581 0.0358966 0)
(0.9118 0.0404006 0)
(0.931978 0.0449226 0)
(0.951988 0.0494505 0)
(0.971694 0.0539687 0)
(0.990951 0.0584608 0)
(1.0096 0.0629062 0)
(1.02743 0.0672675 0)
(1.04422 0.0714643 0)
(1.05974 0.0755125 0)
(1.07131 0.0799322 0)
(1.07771 0.0818138 0)
(1.07976 0.0847714 0)
(1.0785 0.0872403 0)
(1.0782 0.08923 0)
(1.08056 0.0916551 0)
(1.08465 0.0944219 0)
(1.087 0.0958803 0)
(1.08766 0.0982605 0)
(1.08631 0.10082 0)
(1.08753 0.101945 0)
(0.724802 0.00308281 4.34929e-026)
(0.739856 0.00611689 0)
(0.755967 0.0106469 0)
(0.77303 0.015236 0)
(0.790925 0.0198113 0)
(0.809523 0.0244312 0)
(0.828689 0.0291184 0)
(0.848287 0.0338633 0)
(0.868196 0.0386542 0)
(0.888288 0.0434786 0)
(0.908414 0.0483205 0)
(0.928441 0.0531642 0)
(0.948242 0.0579957 0)
(0.96768 0.0627982 0)
(0.986604 0.0675537 0)
(1.00484 0.0722389 0)
(1.02218 0.0768059 0)
(1.03843 0.0812196 0)
(1.05323 0.0851685 0)
(1.06124 0.0903735 0)
(1.06314 0.091841 0)
(1.06648 0.0950985 0)
(1.07046 0.0985466 0)
(1.0703 0.100229 0)
(1.0693 0.10238 0)
(1.07105 0.105065 0)
(1.07409 0.107515 0)
(1.07932 0.109912 0)
(1.0797 0.112891 0)
(0.703813 0.00327134 1.51603e-027)
(0.718388 0.00664769 0)
(0.734053 0.0115388 0)
(0.750705 0.0164939 0)
(0.768228 0.0214372 0)
(0.786499 0.0264275 0)
(0.805386 0.0314869 0)
(0.824759 0.0366053 0)
(0.844487 0.0417675 0)
(0.864455 0.0469635 0)
(0.884535 0.0521794 0)
(0.904589 0.0573984 0)
(0.924496 0.0626065 0)
(0.944127 0.067787 0)
(0.96334 0.0729222 0)
(0.981977 0.0779892 0)
(0.999844 0.0829517 0)
(1.0167 0.0877537 0)
(1.03239 0.0926322 0)
(1.04502 0.0963877 0)
(1.05095 0.101112 0)
(1.05112 0.103637 0)
(1.05221 0.10561 0)
(1.05678 0.109573 0)
(1.06166 0.112745 0)
(1.06277 0.115607 0)
(1.06147 0.118341 0)
(1.06187 0.120908 0)
(1.06551 0.123124 0)
(0.682304 0.00350718 -5.03501e-026)
(0.696402 0.00722607 0)
(0.711622 0.0125236 0)
(0.727864 0.0178896 0)
(0.745017 0.0232452 0)
(0.762961 0.0286516 0)
(0.78157 0.0341316 0)
(0.800715 0.0396748 0)
(0.82027 0.0452653 0)
(0.840109 0.0508889 0)
(0.860123 0.0565349 0)
(0.880188 0.06219 0)
(0.900172 0.0678345 0)
(0.919954 0.0734545 0)
(0.939402 0.0790324 0)
(0.958373 0.084549 0)
(0.976709 0.0899706 0)
(0.994242 0.0952173 0)
(1.01092 0.100188 0)
(1.02519 0.106073 0)
(1.0335 0.109215 0)
(1.03995 0.113004 0)
(1.04371 0.117815 0)
(1.04202 0.119046 0)
(1.04139 0.122796 0)
(1.0445 0.125659 0)
(1.05075 0.128839 0)
(1.05614 0.133265 0)
(1.05604 0.134287 0)
(0.660246 0.00378539 0)
(0.673863 0.00785161 0)
(0.688634 0.0135984 0)
(0.704463 0.0194177 0)
(0.721243 0.0252272 0)
(0.738856 0.0310921 0)
(0.757182 0.0370369 0)
(0.776095 0.0430501 0)
(0.795474 0.0491151 0)
(0.815196 0.0552166 0)
(0.835145 0.061342 0)
(0.855207 0.0674752 0)
(0.875264 0.0736011 0)
(0.895198 0.079701 0)
(0.914885 0.0857555 0)
(0.934191 0.0917431 0)
(0.952967 0.0976381 0)
(0.971055 0.103391 0)
(0.988358 0.108936 0)
(1.00476 0.114051 0)
(1.01684 0.12025 0)
(1.02103 0.123492 0)
(1.02341 0.12696 0)
(1.02995 0.132351 0)
(1.03404 0.135851 0)
(1.03476 0.138603 0)
(1.03487 0.141054 0)
(1.03657 0.144696 0)
(1.04286 0.148079 0)
(0.637625 0.0041011 -6.20549e-026)
(0.650756 0.00852284 0)
(0.665071 0.0147585 0)
(0.680478 0.0210705 0)
(0.696874 0.0273729 0)
(0.714147 0.0337368 0)
(0.732179 0.0401886 0)
(0.75085 0.0467165 0)
(0.77004 0.0533029 0)
(0.789632 0.0599323 0)
(0.809509 0.0665892 0)
(0.829564 0.0732587 0)
(0.849686 0.0799246 0)
(0.86976 0.0865679 0)
(0.889674 0.0931701 0)
(0.909304 0.0997108 0)
(0.928517 0.106162 0)
(0.947167 0.112481 0)
(0.965108 0.118585 0)
(0.982342 0.12495 0)
(0.996378 0.129924 0)
(1.00665 0.135648 0)
(1.01071 0.140137 0)
(1.01014 0.142721 0)
(1.01265 0.146589 0)
(1.02042 0.151306 0)
(1.02575 0.155655 0)
(1.03072 0.159623 0)
(1.02908 0.161466 5.69785e-026)
(0.614463 0.0044456 -1.97077e-027)
(0.627098 0.00923184 0)
(0.640948 0.0159894 0)
(0.655923 0.0228265 0)
(0.671925 0.0296538 0)
(0.688844 0.0365495 0)
(0.706568 0.0435426 0)
(0.724981 0.0506204 0)
(0.743967 0.0577645 0)
(0.763413 0.0649586 0)
(0.783206 0.0721866 0)
(0.803238 0.079432 0)
(0.823402 0.0866772 0)
(0.843591 0.0939035 0)
(0.863693 0.101092 0)
(0.883593 0.108222 0)
(0.903165 0.115273 0)
(0.922277 0.122205 0)
(0.94082 0.128919 0)
(0.958989 0.135424 0)
(0.975686 0.14249 0)
(0.985871 0.14776 0)
(0.991994 0.151915 0)
(1.00099 0.159075 0)
(1.00392 0.161609 0)
(1.00235 0.164755 0)
(1.00511 0.167268 0)
(1.00984 0.172448 0)
(1.0212 0.179099 1.13664e-027)
(0.590799 0.00481558 7.17761e-026)
(0.602931 0.00997721 0)
(0.616305 0.0172871 0)
(0.630837 0.0246794 0)
(0.646429 0.0320622 0)
(0.66298 0.0395221 0)
(0.68038 0.0470909 0)
(0.698517 0.0547555 0)
(0.717281 0.0624968 0)
(0.736561 0.0702978 0)
(0.75625 0.078142 0)
(0.77624 0.0860117 0)
(0.796429 0.0938887 0)
(0.816713 0.101753 0)
(0.836984 0.109585 0)
(0.85713 0.117363 0)
(0.877032 0.125063 0)
(0.89656 0.132656 0)
(0.915585 0.14007 0)
(0.934156 0.147416 0)
(0.95245 0.153812 0)
(0.968251 0.162058 0)
(0.974414 0.166405 0)
(0.978003 0.169681 0)
(0.985608 0.176284 0)
(0.994655 0.182199 0)
(0.995178 0.186711 0)
(0.997095 0.18853 0)
(1.00066 0.192187 -6.57995e-026)
(0.566686 0.00520384 0)
(0.578307 0.0107518 0)
(0.591194 0.0186386 0)
(0.605267 0.0266101 0)
(0.620434 0.0345729 0)
(0.636596 0.0426233 0)
(0.653649 0.050796 0)
(0.671487 0.0590777 0)
(0.690002 0.0674485 0)
(0.709089 0.0758911 0)
(0.728643 0.0843882 0)
(0.748562 0.092922 0)
(0.768746 0.101473 0)
(0.789092 0.110019 0)
(0.8095 0.11854 0)
(0.829867 0.127013 0)
(0.850085 0.135411 0)
(0.870043 0.143699 0)
(0.88965 0.15181 0)
(0.908918 0.159687 0)
(0.927658 0.16776 0)
(0.945135 0.174355 0)
(0.957794 0.18153 0)
(0.966362 0.189116 0)
(0.96645 0.190831 0)
(0.970509 0.195052 0)
(0.981283 0.201487 0)
(0.984125 0.207198 0)
(0.992163 0.211368 0)
(0.542198 0.00560426 0)
(0.553301 0.011548 0)
(0.565691 0.0200296 0)
(0.579291 0.0285974 0)
(0.594014 0.037158 0)
(0.609767 0.0458179 0)
(0.62645 0.0546152 0)
(0.643962 0.0635361 0)
(0.662201 0.0725604 0)
(0.681065 0.0816701 0)
(0.700454 0.0908475 0)
(0.720271 0.100074 0)
(0.740419 0.10933 0)
(0.760798 0.118591 0)
(0.781315 0.127834 0)
(0.801872 0.137036 0)
(0.82237 0.146169 0)
(0.842714 0.155205 0)
(0.862825 0.164093 0)
(0.882728 0.172762 0)
(0.902921 0.18089 0)
(0.922493 0.190759 0)
(0.934549 0.195586 0)
(0.947082 0.201914 0)
(0.957934 0.212724 0)
(0.957777 0.213456 0)
(0.960542 0.217425 0)
(0.968647 0.222749 0)
(0.974565 0.228028 7.75725e-026)
(0.517427 0.00601072 0)
(0.528006 0.0123578 0)
(0.53989 0.0214457 0)
(0.553004 0.03062 0)
(0.567266 0.0397893 0)
(0.582588 0.0490709 0)
(0.598877 0.058506 0)
(0.616038 0.0680806 0)
(0.633972 0.077774 0)
(0.652583 0.0875681 0)
(0.671776 0.0974446 0)
(0.691458 0.107384 0)
(0.711536 0.117365 0)
(0.731919 0.127364 0)
(0.752516 0.137355 0)
(0.773234 0.147312 0)
(0.793985 0.157205 0)
(0.814677 0.167003 0)
(0.835228 0.176673 0)
(0.855581 0.186166 0)
(0.875817 0.195411 0)
(0.898225 0.20386 0)
(0.916448 0.215618 0)
(0.923516 0.218287 0)
(0.935464 0.224699 0)
(0.947316 0.236339 0)
(0.950593 0.236899 0)
(0.953618 0.243201 0)
(0.961321 0.246026 1.08289e-027)
(0.49247 0.00641833 0)
(0.502524 0.0131749 0)
(0.513895 0.022875 0)
(0.526511 0.0326604 0)
(0.540296 0.0424438 0)
(0.555168 0.0523535 0)
(0.571041 0.0624341 0)
(0.587825 0.0726711 0)
(0.605426 0.0830437 0)
(0.623755 0.0935336 0)
(0.642721 0.104122 0)
(0.662236 0.11479 0)
(0.682211 0.125513 0)
(0.702561 0.136268 0)
(0.723203 0.147029 0)
(0.744049 0.157768 0)
(0.765016 0.168454 0)
(0.786022 0.179055 0)
(0.806992 0.189531 0)
(0.82787 0.199834 0)
(0.848701 0.20998 0)
(0.869272 0.219812 0)
(0.892912 0.228791 0)
(0.909939 0.241261 0)
(0.914737 0.243598 0)
(0.924307 0.249387 0)
(0.935919 0.259904 0)
(0.942769 0.261202 0)
(0.946973 0.268784 -1.77865e-025)
(0.467432 0.00682298 0)
(0.476961 0.0139942 0)
(0.487814 0.0243083 0)
(0.499922 0.034705 0)
(0.513216 0.0451037 0)
(0.527621 0.0556442 0)
(0.543057 0.0663738 0)
(0.559438 0.0772783 0)
(0.576679 0.0883368 0)
(0.594696 0.0995311 0)
(0.613402 0.110843 0)
(0.632715 0.122252 0)
(0.652553 0.133733 0)
(0.672832 0.145264 0)
(0.693475 0.156817 0)
(0.714402 0.168365 0)
(0.735534 0.179876 0)
(0.756793 0.19132 0)
(0.778108 0.202663 0)
(0.799436 0.213848 0)
(0.820833 0.224856 0)
(0.842753 0.235623 0)
(0.86286 0.246498 0)
(0.886776 0.254945 0)
(0.903919 0.268104 0)
(0.907618 0.270678 0)
(0.915586 0.275793 0)
(0.927057 0.285482 0)
(0.934677 0.28749 -9.31583e-028)
(0.442413 0.00722095 0)
(0.45142 0.0148115 0)
(0.461754 0.0257375 0)
(0.473347 0.0367421 0)
(0.486138 0.0477538 0)
(0.500059 0.0589239 0)
(0.515035 0.0703028 0)
(0.53099 0.0818763 0)
(0.547843 0.093624 0)
(0.565514 0.105528 0)
(0.583926 0.117571 0)
(0.603001 0.129731 0)
(0.622661 0.141985 0)
(0.642829 0.154308 0)
(0.663428 0.166672 0)
(0.684386 0.179049 0)
(0.705627 0.191408 0)
(0.727076 0.203717 0)
(0.748661 0.215945 0)
(0.770328 0.228052 0)
(0.79211 0.239986 0)
(0.814288 0.251718 0)
(0.838197 0.263219 0)
(0.856658 0.275002 0)
(0.880723 0.282834 0)
(0.897577 0.295717 0)
(0.901087 0.299174 0)
(0.911002 0.303784 0)
(0.918796 0.312046 1.0175e-025)
(0.417513 0.00760868 0)
(0.426004 0.0156228 0)
(0.435818 0.0271553 0)
(0.446891 0.0387605 0)
(0.459168 0.0503792 0)
(0.47259 0.0621742 0)
(0.487088 0.0741986 0)
(0.502591 0.0864387 0)
(0.519027 0.0988747 0)
(0.536323 0.11149 0)
(0.554406 0.124267 0)
(0.573205 0.137184 0)
(0.592648 0.150219 0)
(0.612661 0.163346 0)
(0.633172 0.176534 0)
(0.654112 0.189755 0)
(0.675413 0.202976 0)
(0.697002 0.216163 0)
(0.71881 0.22928 0)
(0.740778 0.24229 0)
(0.762899 0.255149 0)
(0.785331 0.267832 0)
(0.808718 0.280287 0)
(0.835149 0.292554 0)
(0.851396 0.304922 0)
(0.875335 0.312021 0)
(0.890923 0.32465 0)
(0.896177 0.327778 0)
(0.908625 0.334748 1.09382e-025)
(0.392825 0.00798282 0)
(0.40081 0.0164245 0)
(0.410108 0.0285546 0)
(0.420658 0.0407498 0)
(0.432413 0.0529662 0)
(0.445321 0.0653781 0)
(0.459322 0.0780408 0)
(0.474352 0.0909413 0)
(0.490345 0.104061 0)
(0.507233 0.117385 0)
(0.524951 0.130895 0)
(0.543433 0.144571 0)
(0.562616 0.158394 0)
(0.582433 0.172332 0)
(0.602816 0.186354 0)
(0.6237 0.200431 0)
(0.645019 0.214527 0)
(0.666709 0.228604 0)
(0.688705 0.242623 0)
(0.710951 0.256542 0)
(0.733423 0.270317 0)
(0.756196 0.283892 0)
(0.779636 0.29741 0)
(0.804511 0.310529 0)
(0.833397 0.323666 0)
(0.848046 0.336273 0)
(0.870326 0.342707 0)
(0.88585 0.354426 0)
(0.892342 0.358305 -1.16306e-025)
(0.368438 0.00834036 0)
(0.375928 0.0172133 0)
(0.384716 0.0299293 0)
(0.394742 0.0427009 0)
(0.405969 0.055503 0)
(0.418353 0.0685211 0)
(0.431841 0.0818126 0)
(0.446376 0.0953654 0)
(0.461898 0.109163 0)
(0.478348 0.123191 0)
(0.495667 0.137433 0)
(0.513796 0.15187 0)
(0.532678 0.166479 0)
(0.552256 0.181228 0)
(0.572465 0.196089 0)
(0.593249 0.21103 0)
(0.614549 0.226012 0)
(0.636305 0.240993 0)
(0.658459 0.25593 0)
(0.680957 0.270775 0)
(0.703768 0.28548 0)
(0.726918 0.29998 0)
(0.750586 0.314303 0)
(0.775455 0.328556 0)
(0.801926 0.342763 0)
(0.8325 0.355503 0)
(0.846806 0.369504 0)
(0.866155 0.373171 0)
(0.882735 0.386464 1.24479e-025)
(0.344434 0.0086783 0)
(0.351444 0.0179856 0)
(0.35973 0.0312728 0)
(0.369234 0.0446041 0)
(0.379929 0.0579769 0)
(0.391778 0.0715875 0)
(0.404738 0.0854948 0)
(0.418757 0.0996882 0)
(0.433784 0.114153 0)
(0.449767 0.128877 0)
(0.466655 0.143845 0)
(0.484396 0.159039 0)
(0.502941 0.174433 0)
(0.522241 0.190002 0)
(0.542237 0.205716 0)
(0.562878 0.221533 0)
(0.584114 0.237415 0)
(0.605896 0.253318 0)
(0.628171 0.269193 0)
(0.650893 0.284986 0)
(0.674024 0.300645 0)
(0.697562 0.316106 0)
(0.721582 0.331344 0)
(0.746416 0.346297 0)
(0.773275 0.361659 0)
(0.801275 0.376451 0)
(0.832224 0.389205 0)
(0.84787 0.403396 0)
(0.86411 0.405936 -2.64588e-025)
(0.32089 0.00899378 0)
(0.327435 0.0187375 0)
(0.33523 0.0325778 0)
(0.344216 0.0464489 0)
(0.354376 0.0603745 0)
(0.365684 0.074561 0)
(0.378101 0.0890684 0)
(0.391586 0.103888 0)
(0.406094 0.119008 0)
(0.421581 0.134419 0)
(0.438002 0.150108 0)
(0.455316 0.166057 0)
(0.473478 0.182242 0)
(0.492451 0.198645 0)
(0.512191 0.215225 0)
(0.532648 0.231937 0)
(0.553783 0.248746 0)
(0.575553 0.265601 0)
(0.597916 0.282448 0)
(0.620831 0.299228 0)
(0.644262 0.315881 0)
(0.66819 0.332342 0)
(0.692636 0.348572 0)
(0.717735 0.36446 0)
(0.744072 0.380295 0)
(0.773152 0.396422 0)
(0.803015 0.412178 0)
(0.833014 0.424395 0)
(0.850243 0.437414 3.78825e-028)
(0.297876 0.00928398 0)
(0.303976 0.0194643 0)
(0.311291 0.033836 0)
(0.319764 0.0482235 0)
(0.329389 0.0626808 0)
(0.340149 0.0774234 0)
(0.352012 0.0925127 0)
(0.364944 0.107942 0)
(0.378908 0.123704 0)
(0.393869 0.139792 0)
(0.409789 0.156196 0)
(0.426634 0.1729 0)
(0.444371 0.189884 0)
(0.46297 0.207124 0)
(0.482406 0.224578 0)
(0.502628 0.242213 0)
(0.52361 0.25998 0)
(0.545322 0.277828 0)
(0.56773 0.295697 0)
(0.590801 0.31352 0)
(0.614504 0.331227 0)
(0.638814 0.348746 0)
(0.663724 0.366013 0)
(0.689273 0.382961 0)
(0.715653 0.399528 0)
(0.743939 0.416231 0)
(0.775082 0.432778 0)
(0.807514 0.449825 0)
(0.835697 0.460744 7.92306e-028)
(0.275458 0.0095461 0)
(0.281131 0.02016 0)
(0.287981 0.0350372 0)
(0.295949 0.0499136 0)
(0.30504 0.0648773 0)
(0.315245 0.0801524 0)
(0.326543 0.0958011 0)
(0.338904 0.11182 0)
(0.3523 0.128207 0)
(0.366703 0.144957 0)
(0.382085 0.162066 0)
(0.39842 0.179521 0)
(0.415684 0.197303 0)
(0.433855 0.215383 0)
(0.452923 0.233742 0)
(0.472858 0.252335 0)
(0.493633 0.271099 0)
(0.515234 0.289989 0)
(0.537637 0.308936 0)
(0.560821 0.327869 0)
(0.584762 0.346706 0)
(0.609437 0.36536 0)
(0.63483 0.383745 0)
(0.660941 0.401789 0)
(0.687828 0.419378 0)
(0.715848 0.436655 0)
(0.746307 0.453919 0)
(0.780068 0.471016 0)
(0.814682 0.488621 1.57361e-025)
(0.253697 0.00977737 0)
(0.258965 0.0208174 0)
(0.265364 0.0361692 0)
(0.272835 0.0515021 0)
(0.281394 0.0669424 0)
(0.291041 0.0827216 0)
(0.301762 0.0989026 0)
(0.313535 0.115487 0)
(0.326339 0.132475 0)
(0.340152 0.149871 0)
(0.354957 0.167672 0)
(0.370736 0.185871 0)
(0.387476 0.204453 0)
(0.405164 0.223394 0)
(0.423797 0.242672 0)
(0.44338 0.262236 0)
(0.46388 0.28204 0)
(0.485302 0.302026 0)
(0.507639 0.322123 0)
(0.530884 0.342247 0)
(0.555023 0.362307 0)
(0.580043 0.382198 0)
(0.605927 0.40181 0)
(0.632664 0.421041 0)
(0.660267 0.439774 0)
(0.688839 0.457934 0)
(0.718921 0.475735 0)
(0.751717 0.493349 0)
(0.789361 0.511105 -1.63325e-025)
(0.23265 0.00997514 0)
(0.237535 0.0214282 0)
(0.243499 0.0372182 0)
(0.250482 0.0529698 0)
(0.258512 0.0688516 0)
(0.267599 0.0851012 0)
(0.277734 0.101782 0)
(0.288901 0.118901 0)
(0.301088 0.136465 0)
(0.31428 0.154483 0)
(0.328468 0.172959 0)
(0.343643 0.19189 0)
(0.359803 0.211266 0)
(0.376947 0.23107 0)
(0.395078 0.25127 0)
(0.414224 0.271846 0)
(0.43438 0.292746 0)
(0.455547 0.313888 0)
(0.477743 0.335208 0)
(0.50098 0.356616 0)
(0.525263 0.378004 0)
(0.550595 0.399252 0)
(0.576967 0.420225 0)
(0.604369 0.440783 0)
(0.632798 0.460777 0)
(0.662275 0.480084 0)
(0.693063 0.498586 0)
(0.7252 0.516747 0)
(0.761961 0.534236 1.72852e-025)
(0.212372 0.010137 0)
(0.216896 0.021983 0)
(0.222442 0.038169 0)
(0.228947 0.0542956 0)
(0.236453 0.0705782 0)
(0.244977 0.087259 0)
(0.254516 0.104402 0)
(0.265063 0.12202 0)
(0.276609 0.140126 0)
(0.289148 0.158738 0)
(0.302679 0.177864 0)
(0.317202 0.19751 0)
(0.332724 0.217672 0)
(0.349256 0.238338 0)
(0.366816 0.259486 0)
(0.385428 0.281095 0)
(0.405144 0.303111 0)
(0.425966 0.325474 0)
(0.447935 0.348099 0)
(0.471084 0.370891 0)
(0.495442 0.393732 0)
(0.521035 0.416481 0)
(0.547875 0.438977 0)
(0.575965 0.46104 0)
(0.605299 0.482475 0)
(0.635868 0.503106 0)
(0.667816 0.522713 0)
(0.700985 0.541368 0)
(0.735889 0.559132 0)
(0.192913 0.0102606 0)
(0.197097 0.0224719 0)
(0.202243 0.0390053 0)
(0.208281 0.0554578 0)
(0.215267 0.072095 0)
(0.223227 0.0891624 0)
(0.232164 0.106725 0)
(0.242074 0.1248 0)
(0.252958 0.14341 0)
(0.264814 0.16258 0)
(0.277649 0.182326 0)
(0.29147 0.202661 0)
(0.306295 0.22359 0)
(0.322145 0.24511 0)
(0.339052 0.267209 0)
(0.357054 0.289857 0)
(0.376218 0.31303 0)
(0.396598 0.336668 0)
(0.418228 0.360677 0)
(0.44118 0.384962 0)
(0.465517 0.409392 0)
(0.491294 0.433808 0)
(0.518557 0.45802 0)
(0.547333 0.481806 0)
(0.57763 0.504919 0)
(0.609433 0.527109 0)
(0.642793 0.548091 0)
(0.677686 0.567772 0)
(0.713179 0.585616 1.81225e-025)
(0.174318 0.0103443 0)
(0.178186 0.0228849 0)
(0.182947 0.0397114 0)
(0.188528 0.0564349 0)
(0.195 0.0733757 0)
(0.202396 0.0907802 0)
(0.210724 0.108713 0)
(0.219987 0.127199 0)
(0.230188 0.14627 0)
(0.241334 0.165955 0)
(0.253435 0.186282 0)
(0.266507 0.207272 0)
(0.280576 0.228941 0)
(0.295675 0.251295 0)
(0.311848 0.274333 0)
(0.329149 0.298037 0)
(0.347647 0.322382 0)
(0.367447 0.347329 0)
(0.38862 0.372806 0)
(0.411252 0.39869 0)
(0.435445 0.424851 0)
(0.4613 0.451114 0)
(0.488905 0.477261 0)
(0.518329 0.503029 0)
(0.549614 0.528108 0)
(0.58276 0.552166 0)
(0.617759 0.574814 0)
(0.65463 0.595904 0)
(0.69237 0.614462 -5.81631e-027)
(0.156629 0.0103863 0)
(0.160201 0.0232122 0)
(0.164594 0.0402721 0)
(0.169728 0.0572073 0)
(0.175691 0.0743968 0)
(0.182523 0.0920853 0)
(0.190238 0.110337 0)
(0.198843 0.129184 0)
(0.208346 0.148664 0)
(0.218758 0.168817 0)
(0.230093 0.189678 0)
(0.242373 0.211279 0)
(0.255631 0.233647 0)
(0.269908 0.256803 0)
(0.285263 0.280759 0)
(0.301765 0.305512 0)
(0.319498 0.331044 0)
(0.338575 0.357333 0)
(0.359137 0.384316 0)
(0.381299 0.411893 0)
(0.405198 0.439924 0)
(0.430986 0.468221 0)
(0.45881 0.496543 0)
(0.488799 0.524586 0)
(0.521052 0.551974 0)